 Entering Gaussian System, Link 0=/opt/software/Gaussian/g16-AVX2-C.01/g16/g16
 Input=charge-conf-684.com
 Output=charge-conf-684.log
 Initial command:
 /opt/software/Gaussian/g16-AVX2-C.01/g16/l1.exe "/mnt/gs18/scratch/users/kengmith/Gau-33720.inp" -scrdir="/mnt/gs18/scratch/users/kengmith/"
 Entering Link 1 = /opt/software/Gaussian/g16-AVX2-C.01/g16/l1.exe PID=     33732.
  
 Copyright (c) 1988-2019, Gaussian, Inc.  All Rights Reserved.
  
 This is part of the Gaussian(R) 16 program.  It is based on
 the Gaussian(R) 09 system (copyright 2009, Gaussian, Inc.),
 the Gaussian(R) 03 system (copyright 2003, Gaussian, Inc.),
 the Gaussian(R) 98 system (copyright 1998, Gaussian, Inc.),
 the Gaussian(R) 94 system (copyright 1995, Gaussian, Inc.),
 the Gaussian 92(TM) system (copyright 1992, Gaussian, Inc.),
 the Gaussian 90(TM) system (copyright 1990, Gaussian, Inc.),
 the Gaussian 88(TM) system (copyright 1988, Gaussian, Inc.),
 the Gaussian 86(TM) system (copyright 1986, Carnegie Mellon
 University), and the Gaussian 82(TM) system (copyright 1983,
 Carnegie Mellon University). Gaussian is a federally registered
 trademark of Gaussian, Inc.
  
 This software contains proprietary and confidential information,
 including trade secrets, belonging to Gaussian, Inc.
  
 This software is provided under written license and may be
 used, copied, transmitted, or stored only in accord with that
 written license.
  
 The following legend is applicable only to US Government
 contracts under FAR:
  
                    RESTRICTED RIGHTS LEGEND
  
 Use, reproduction and disclosure by the US Government is
 subject to restrictions as set forth in subparagraphs (a)
 and (c) of the Commercial Computer Software - Restricted
 Rights clause in FAR 52.227-19.
  
 Gaussian, Inc.
 340 Quinnipiac St., Bldg. 40, Wallingford CT 06492
  
  
 ---------------------------------------------------------------
 Warning -- This program may not be used in any manner that
 competes with the business of Gaussian, Inc. or will provide
 assistance to any competitor of Gaussian, Inc.  The licensee
 of this program is prohibited from giving any competitor of
 Gaussian, Inc. access to this program.  By using this program,
 the user acknowledges that Gaussian, Inc. is engaged in the
 business of creating and licensing software in the field of
 computational chemistry and represents and warrants to the
 licensee that it is not a competitor of Gaussian, Inc. and that
 it will not use this program in any manner prohibited above.
 ---------------------------------------------------------------
  

 Cite this work as:
 Gaussian 16, Revision C.01,
 M. J. Frisch, G. W. Trucks, H. B. Schlegel, G. E. Scuseria, 
 M. A. Robb, J. R. Cheeseman, G. Scalmani, V. Barone, 
 G. A. Petersson, H. Nakatsuji, X. Li, M. Caricato, A. V. Marenich, 
 J. Bloino, B. G. Janesko, R. Gomperts, B. Mennucci, H. P. Hratchian, 
 J. V. Ortiz, A. F. Izmaylov, J. L. Sonnenberg, D. Williams-Young, 
 F. Ding, F. Lipparini, F. Egidi, J. Goings, B. Peng, A. Petrone, 
 T. Henderson, D. Ranasinghe, V. G. Zakrzewski, J. Gao, N. Rega, 
 G. Zheng, W. Liang, M. Hada, M. Ehara, K. Toyota, R. Fukuda, 
 J. Hasegawa, M. Ishida, T. Nakajima, Y. Honda, O. Kitao, H. Nakai, 
 T. Vreven, K. Throssell, J. A. Montgomery, Jr., J. E. Peralta, 
 F. Ogliaro, M. J. Bearpark, J. J. Heyd, E. N. Brothers, K. N. Kudin, 
 V. N. Staroverov, T. A. Keith, R. Kobayashi, J. Normand, 
 K. Raghavachari, A. P. Rendell, J. C. Burant, S. S. Iyengar, 
 J. Tomasi, M. Cossi, J. M. Millam, M. Klene, C. Adamo, R. Cammi, 
 J. W. Ochterski, R. L. Martin, K. Morokuma, O. Farkas, 
 J. B. Foresman, and D. J. Fox, Gaussian, Inc., Wallingford CT, 2019.
 
 ******************************************
 Gaussian 16:  ES64L-G16RevC.01  3-Jul-2019
                31-May-2022 
 ******************************************
 %mem=8gb
 %nproc=4
 Will use up to    4 processors via shared memory.
 %chk=conf-684.chk
 ----------------------------------------------------------------------
 # B3LYP/6-31G* empiricaldispersion=gd3 guess=read geom=check nosymm in
 tegral(ultrafinegrid)
 ----------------------------------------------------------------------
 1/29=2,38=1,172=1/1;
 2/12=2,15=1,40=1/2;
 3/5=1,6=6,7=1,11=2,14=-4,25=1,30=1,74=-5,75=-5,116=-2,124=31/1,2,3;
 4/5=1/1;
 5/5=2,38=6/2;
 6/7=2,8=2,9=2,10=2,28=1/1;
 99/5=1,9=1/99;
 ------------------------------------------------------
 Candidate Structure: Conf:684 Charge calc in gas phase
 ------------------------------------------------------
 Structure from the checkpoint file:  "conf-684.chk"
 Charge =  1 Multiplicity = 1
 Redundant internal coordinates found in file.  (old form).
 N,0,32.9320006917,-31.4981915884,44.8949411295
 C,0,32.3915005014,-30.1783415179,44.4386698118
 C,0,33.603733234,-29.4699433195,43.7973743137
 O,0,34.7163720591,-29.6041172176,44.3012714376
 C,0,31.1692305864,-30.4111406261,43.5261513613
 C,0,30.1502881863,-31.3374034252,44.1535842744
 C,0,30.1661288345,-32.7079262608,43.8605975952
 C,0,29.2092222852,-30.8631116065,45.080531164
 C,0,29.2676144844,-33.5826611921,44.4712509039
 C,0,28.3066547255,-31.7232779221,45.6941138673
 C,0,28.3316096085,-33.0919095579,45.3899607051
 O,0,27.4231863723,-33.8806506405,46.0224092253
 H,0,33.2083072794,-32.0619297037,43.9360522523
 H,0,32.0951187991,-29.6058548946,45.3252346952
 H,0,30.7119314211,-29.4351683799,43.319654833
 H,0,31.5222635585,-30.8332932904,42.5799033745
 H,0,30.890636925,-33.096196931,43.1476343106
 H,0,29.1731912355,-29.8017150548,45.3176809454
 H,0,29.2892052603,-34.6425920336,44.227662941
 H,0,27.5704446528,-31.3595287027,46.4031712824
 H,0,27.51242328,-34.7983532645,45.7203822547
 H,0,33.8064631558,-31.3600379487,45.4107644849
 H,0,32.2498181632,-32.0092296298,45.4578877006
 N,0,33.4011141492,-28.7511967401,42.6647459222
 C,0,34.5365077616,-28.1845156131,41.9330515883
 C,0,35.5685868865,-29.2785861837,41.5968284279
 O,0,36.7812328211,-28.9865641491,41.5957660977
 C,0,34.0504172772,-27.3983099156,40.6882902666
 C,0,33.3364713313,-28.2834758945,39.6536937109
 C,0,35.2145793196,-26.6321879951,40.0447765896
 H,0,32.4758775712,-28.6745878545,42.2679455139
 H,0,35.0756543359,-27.5020383062,42.5968082651
 H,0,33.3302814327,-26.6607798912,41.0712267329
 H,0,32.4833733916,-28.8329850368,40.0715341332
 H,0,32.9509028484,-27.6660424071,38.8367366077
 H,0,34.0240774579,-29.0198280458,39.2236447658
 H,0,35.7072281445,-25.9715944845,40.7657512881
 H,0,34.8471800095,-26.0191547197,39.2159402357
 H,0,35.9716283014,-27.3184102017,39.6512897949
 N,0,35.0930827388,-30.4974692606,41.2921374533
 C,0,35.7909546434,-31.7481136414,41.6331342484
 C,0,34.9273245109,-32.4735058302,42.7031448432
 O,0,35.490705294,-33.1564871012,43.5501457617
 C,0,36.0414138125,-32.6473622627,40.4138967716
 C,0,36.9425140288,-32.0569954966,39.3169442399
 C,0,38.4285127062,-31.9155328822,39.6820849328
 N,0,38.6341512686,-30.8289251272,40.6494470544
 C,0,39.4468521435,-30.8470307609,41.7010366781
 N,0,40.5012208777,-31.6828942085,41.7630505559
 N,0,39.2005896762,-30.018585234,42.7289689712
 O,0,33.6520254923,-32.2303874021,42.6125922286
 H,0,34.0907079367,-30.6308870654,41.412355851
 H,0,36.7249225241,-31.4911671155,42.129915922
 H,0,35.0688101182,-32.8939320052,39.9708521371
 H,0,36.4656035089,-33.5899294426,40.7824045931
 H,0,36.5531662769,-31.0812320237,38.9955397958
 H,0,36.8947324192,-32.7074429871,38.4359975466
 H,0,39.0166717566,-31.7123843364,38.779259392
 H,0,38.7905874434,-32.8542363479,40.1186884463
 H,0,37.9097071003,-30.0992012118,40.7044936508
 H,0,40.9512570925,-31.8839854214,42.6439448367
 H,0,40.7828038568,-32.2253605251,40.9609031582
 H,0,39.9331049202,-29.7647016271,43.3754989382
 H,0,38.3541021637,-29.4504163661,42.6976456089
 Recover connectivity data from disk.
                           ----------------------------
                           !    Current Parameters    !
                           ! (Angstroms and Degrees)  !
 --------------------------                            --------------------------
 ! Name  Definition              Value                                          !
 --------------------------------------------------------------------------------
 ! R1    R(1,2)                  1.4974                                         !
 ! R2    R(1,13)                 1.1461                                         !
 ! R3    R(1,22)                 1.0246                                         !
 ! R4    R(1,23)                 1.0215                                         !
 ! R5    R(2,3)                  1.5436                                         !
 ! R6    R(2,5)                  1.543                                          !
 ! R7    R(2,14)                 1.0962                                         !
 ! R8    R(3,4)                  1.2288                                         !
 ! R9    R(3,24)                 1.3566                                         !
 ! R10   R(5,6)                  1.5132                                         !
 ! R11   R(5,15)                 1.0974                                         !
 ! R12   R(5,16)                 1.0946                                         !
 ! R13   R(6,7)                  1.4016                                         !
 ! R14   R(6,8)                  1.4035                                         !
 ! R15   R(7,9)                  1.3948                                         !
 ! R16   R(7,17)                 1.0881                                         !
 ! R17   R(8,10)                 1.3896                                         !
 ! R18   R(8,18)                 1.0882                                         !
 ! R19   R(9,11)                 1.4003                                         !
 ! R20   R(9,19)                 1.0878                                         !
 ! R21   R(10,11)                1.4022                                         !
 ! R22   R(10,20)                1.0849                                         !
 ! R23   R(11,12)                1.3592                                         !
 ! R24   R(12,21)                0.9702                                         !
 ! R25   R(24,25)                1.4648                                         !
 ! R26   R(24,31)                1.0096                                         !
 ! R27   R(25,26)                1.5412                                         !
 ! R28   R(25,28)                1.5504                                         !
 ! R29   R(25,32)                1.0941                                         !
 ! R30   R(26,27)                1.2473                                         !
 ! R31   R(26,40)                1.3434                                         !
 ! R32   R(28,29)                1.5374                                         !
 ! R33   R(28,30)                1.535                                          !
 ! R34   R(28,33)                1.0996                                         !
 ! R35   R(29,34)                1.0974                                         !
 ! R36   R(29,35)                1.0942                                         !
 ! R37   R(29,36)                1.0954                                         !
 ! R38   R(30,37)                1.0949                                         !
 ! R39   R(30,38)                1.0944                                         !
 ! R40   R(30,39)                1.0949                                         !
 ! R41   R(40,41)                1.4722                                         !
 ! R42   R(40,52)                1.0183                                         !
 ! R43   R(41,42)                1.5547                                         !
 ! R44   R(41,44)                1.5356                                         !
 ! R45   R(41,53)                1.0886                                         !
 ! R46   R(42,43)                1.2253                                         !
 ! R47   R(42,51)                1.3014                                         !
 ! R48   R(44,45)                1.5375                                         !
 ! R49   R(44,54)                1.0968                                         !
 ! R50   R(44,55)                1.0973                                         !
 ! R51   R(45,46)                1.5367                                         !
 ! R52   R(45,56)                1.0986                                         !
 ! R53   R(45,57)                1.0961                                         !
 ! R54   R(46,47)                1.4693                                         !
 ! R55   R(46,58)                1.0965                                         !
 ! R56   R(46,59)                1.0968                                         !
 ! R57   R(47,48)                1.3292                                         !
 ! R58   R(47,60)                1.0297                                         !
 ! R59   R(48,49)                1.3469                                         !
 ! R60   R(48,50)                1.343                                          !
 ! R61   R(49,61)                1.0094                                         !
 ! R62   R(49,62)                1.0085                                         !
 ! R63   R(50,63)                1.0095                                         !
 ! R64   R(50,64)                1.02                                           !
 ! A1    A(2,1,13)             105.404                                          !
 ! A2    A(2,1,22)             110.0356                                         !
 ! A3    A(2,1,23)             111.5814                                         !
 ! A4    A(13,1,22)            106.3651                                         !
 ! A5    A(13,1,23)            112.086                                          !
 ! A6    A(22,1,23)            111.0987                                         !
 ! A7    A(1,2,3)              104.3373                                         !
 ! A8    A(1,2,5)              109.4595                                         !
 ! A9    A(1,2,14)             108.1484                                         !
 ! A10   A(3,2,5)              116.4646                                         !
 ! A11   A(3,2,14)             107.9796                                         !
 ! A12   A(5,2,14)             110.0554                                         !
 ! A13   A(2,3,4)              119.3823                                         !
 ! A14   A(2,3,24)             118.2102                                         !
 ! A15   A(4,3,24)             122.3746                                         !
 ! A16   A(2,5,6)              112.3667                                         !
 ! A17   A(2,5,15)             107.8904                                         !
 ! A18   A(2,5,16)             108.2966                                         !
 ! A19   A(6,5,15)             109.9868                                         !
 ! A20   A(6,5,16)             109.8479                                         !
 ! A21   A(15,5,16)            108.3437                                         !
 ! A22   A(5,6,7)              120.2822                                         !
 ! A23   A(5,6,8)              121.2309                                         !
 ! A24   A(7,6,8)              118.4303                                         !
 ! A25   A(6,7,9)              120.961                                          !
 ! A26   A(6,7,17)             119.5655                                         !
 ! A27   A(9,7,17)             119.4734                                         !
 ! A28   A(6,8,10)             121.1951                                         !
 ! A29   A(6,8,18)             119.7201                                         !
 ! A30   A(10,8,18)            119.0805                                         !
 ! A31   A(7,9,11)             119.8703                                         !
 ! A32   A(7,9,19)             120.018                                          !
 ! A33   A(11,9,19)            120.1098                                         !
 ! A34   A(8,10,11)            119.7905                                         !
 ! A35   A(8,10,20)            121.4522                                         !
 ! A36   A(11,10,20)           118.7554                                         !
 ! A37   A(9,11,10)            119.7521                                         !
 ! A38   A(9,11,12)            123.2745                                         !
 ! A39   A(10,11,12)           116.9734                                         !
 ! A40   A(11,12,21)           110.0333                                         !
 ! A41   A(3,24,25)            120.413                                          !
 ! A42   A(3,24,31)            120.3432                                         !
 ! A43   A(25,24,31)           118.9895                                         !
 ! A44   A(24,25,26)           110.6964                                         !
 ! A45   A(24,25,28)           110.7444                                         !
 ! A46   A(24,25,32)           108.6775                                         !
 ! A47   A(26,25,28)           113.2525                                         !
 ! A48   A(26,25,32)           104.1921                                         !
 ! A49   A(28,25,32)           108.9808                                         !
 ! A50   A(25,26,27)           119.0153                                         !
 ! A51   A(25,26,40)           117.165                                          !
 ! A52   A(27,26,40)           123.8046                                         !
 ! A53   A(25,28,29)           113.1981                                         !
 ! A54   A(25,28,30)           110.6024                                         !
 ! A55   A(25,28,33)           105.4171                                         !
 ! A56   A(29,28,30)           110.9422                                         !
 ! A57   A(29,28,33)           108.4447                                         !
 ! A58   A(30,28,33)           107.9333                                         !
 ! A59   A(28,29,34)           113.1455                                         !
 ! A60   A(28,29,35)           109.9492                                         !
 ! A61   A(28,29,36)           111.0829                                         !
 ! A62   A(34,29,35)           107.0315                                         !
 ! A63   A(34,29,36)           107.5082                                         !
 ! A64   A(35,29,36)           107.9014                                         !
 ! A65   A(28,30,37)           111.4875                                         !
 ! A66   A(28,30,38)           110.0264                                         !
 ! A67   A(28,30,39)           111.2371                                         !
 ! A68   A(37,30,38)           108.166                                          !
 ! A69   A(37,30,39)           107.6775                                         !
 ! A70   A(38,30,39)           108.1198                                         !
 ! A71   A(26,40,41)           123.3985                                         !
 ! A72   A(26,40,52)           116.1369                                         !
 ! A73   A(41,40,52)           109.1449                                         !
 ! A74   A(40,41,42)           107.0051                                         !
 ! A75   A(40,41,44)           113.01                                           !
 ! A76   A(40,41,53)           108.1724                                         !
 ! A77   A(42,41,44)           111.3365                                         !
 ! A78   A(42,41,53)           105.8214                                         !
 ! A79   A(44,41,53)           111.1385                                         !
 ! A80   A(41,42,43)           118.7142                                         !
 ! A81   A(41,42,51)           114.1613                                         !
 ! A82   A(43,42,51)           127.071                                          !
 ! A83   A(41,44,45)           115.9274                                         !
 ! A84   A(41,44,54)           107.923                                          !
 ! A85   A(41,44,55)           107.4233                                         !
 ! A86   A(45,44,54)           108.532                                          !
 ! A87   A(45,44,55)           110.0514                                         !
 ! A88   A(54,44,55)           106.5786                                         !
 ! A89   A(44,45,46)           115.6303                                         !
 ! A90   A(44,45,56)           110.0024                                         !
 ! A91   A(44,45,57)           108.6639                                         !
 ! A92   A(46,45,56)           109.2958                                         !
 ! A93   A(46,45,57)           106.7233                                         !
 ! A94   A(56,45,57)           106.0501                                         !
 ! A95   A(45,46,47)           111.0914                                         !
 ! A96   A(45,46,58)           109.8834                                         !
 ! A97   A(45,46,59)           109.5746                                         !
 ! A98   A(47,46,58)           109.2695                                         !
 ! A99   A(47,46,59)           108.9457                                         !
 ! A100  A(58,46,59)           108.0148                                         !
 ! A101  A(46,47,48)           126.6127                                         !
 ! A102  A(46,47,60)           117.4398                                         !
 ! A103  A(48,47,60)           113.4236                                         !
 ! A104  A(47,48,49)           121.5683                                         !
 ! A105  A(47,48,50)           119.0155                                         !
 ! A106  A(49,48,50)           119.4137                                         !
 ! A107  A(48,49,61)           120.8506                                         !
 ! A108  A(48,49,62)           121.0486                                         !
 ! A109  A(61,49,62)           117.5477                                         !
 ! A110  A(48,50,63)           120.817                                          !
 ! A111  A(48,50,64)           118.1836                                         !
 ! A112  A(63,50,64)           118.8025                                         !
 ! D1    D(13,1,2,3)           -66.1979                                         !
 ! D2    D(13,1,2,5)            59.1221                                         !
 ! D3    D(13,1,2,14)          179.0269                                         !
 ! D4    D(22,1,2,3)            48.1048                                         !
 ! D5    D(22,1,2,5)           173.4248                                         !
 ! D6    D(22,1,2,14)          -66.6704                                         !
 ! D7    D(23,1,2,3)           171.9051                                         !
 ! D8    D(23,1,2,5)           -62.7749                                         !
 ! D9    D(23,1,2,14)           57.1298                                         !
 ! D10   D(1,2,3,4)            -37.527                                          !
 ! D11   D(1,2,3,24)           140.4377                                         !
 ! D12   D(5,2,3,4)           -158.2798                                         !
 ! D13   D(5,2,3,24)            19.685                                          !
 ! D14   D(14,2,3,4)            77.3672                                         !
 ! D15   D(14,2,3,24)         -104.6681                                         !
 ! D16   D(1,2,5,6)             50.9284                                         !
 ! D17   D(1,2,5,15)           172.3428                                         !
 ! D18   D(1,2,5,16)           -70.5889                                         !
 ! D19   D(3,2,5,6)            168.9149                                         !
 ! D20   D(3,2,5,15)           -69.6708                                         !
 ! D21   D(3,2,5,16)            47.3975                                         !
 ! D22   D(14,2,5,6)           -67.8002                                         !
 ! D23   D(14,2,5,15)           53.6141                                         !
 ! D24   D(14,2,5,16)          170.6825                                         !
 ! D25   D(2,3,24,25)         -173.1385                                         !
 ! D26   D(2,3,24,31)            1.0104                                         !
 ! D27   D(4,3,24,25)            4.7617                                         !
 ! D28   D(4,3,24,31)          178.9105                                         !
 ! D29   D(2,5,6,7)            -95.0515                                         !
 ! D30   D(2,5,6,8)             82.1695                                         !
 ! D31   D(15,5,6,7)           144.7405                                         !
 ! D32   D(15,5,6,8)           -38.0385                                         !
 ! D33   D(16,5,6,7)            25.5757                                         !
 ! D34   D(16,5,6,8)          -157.2033                                         !
 ! D35   D(5,6,7,9)            177.444                                          !
 ! D36   D(5,6,7,17)            -2.4605                                         !
 ! D37   D(8,6,7,9)              0.1461                                         !
 ! D38   D(8,6,7,17)          -179.7585                                         !
 ! D39   D(5,6,8,10)          -177.5472                                         !
 ! D40   D(5,6,8,18)             3.2107                                         !
 ! D41   D(7,6,8,10)            -0.2761                                         !
 ! D42   D(7,6,8,18)          -179.5182                                         !
 ! D43   D(6,7,9,11)             0.102                                          !
 ! D44   D(6,7,9,19)           179.6023                                         !
 ! D45   D(17,7,9,11)         -179.9934                                         !
 ! D46   D(17,7,9,19)           -0.493                                          !
 ! D47   D(6,8,10,11)            0.1557                                         !
 ! D48   D(6,8,10,20)         -179.3305                                         !
 ! D49   D(18,8,10,11)         179.4026                                         !
 ! D50   D(18,8,10,20)          -0.0836                                         !
 ! D51   D(7,9,11,10)           -0.2255                                         !
 ! D52   D(7,9,11,12)          179.8419                                         !
 ! D53   D(19,9,11,10)        -179.7254                                         !
 ! D54   D(19,9,11,12)           0.342                                          !
 ! D55   D(8,10,11,9)            0.0983                                         !
 ! D56   D(8,10,11,12)        -179.9649                                         !
 ! D57   D(20,10,11,9)         179.5983                                         !
 ! D58   D(20,10,11,12)         -0.4649                                         !
 ! D59   D(9,11,12,21)          -1.684                                          !
 ! D60   D(10,11,12,21)        178.3816                                         !
 ! D61   D(3,24,25,26)          54.1144                                         !
 ! D62   D(3,24,25,28)        -179.4181                                         !
 ! D63   D(3,24,25,32)         -59.7372                                         !
 ! D64   D(31,24,25,26)       -120.113                                          !
 ! D65   D(31,24,25,28)          6.3545                                         !
 ! D66   D(31,24,25,32)        126.0354                                         !
 ! D67   D(24,25,26,27)       -145.3734                                         !
 ! D68   D(24,25,26,40)         35.9866                                         !
 ! D69   D(28,25,26,27)         89.5661                                         !
 ! D70   D(28,25,26,40)        -89.074                                          !
 ! D71   D(32,25,26,27)        -28.7161                                         !
 ! D72   D(32,25,26,40)        152.6439                                         !
 ! D73   D(24,25,28,29)        -63.3114                                         !
 ! D74   D(24,25,28,30)        171.481                                          !
 ! D75   D(24,25,28,33)         55.0644                                         !
 ! D76   D(26,25,28,29)         61.7233                                         !
 ! D77   D(26,25,28,30)        -63.4844                                         !
 ! D78   D(26,25,28,33)       -179.9009                                         !
 ! D79   D(32,25,28,29)        177.1898                                         !
 ! D80   D(32,25,28,30)         51.9821                                         !
 ! D81   D(32,25,28,33)        -64.4344                                         !
 ! D82   D(25,26,40,41)       -146.3971                                         !
 ! D83   D(25,26,40,52)         -6.8353                                         !
 ! D84   D(27,26,40,41)         35.0341                                         !
 ! D85   D(27,26,40,52)        174.596                                          !
 ! D86   D(25,28,29,34)         56.1552                                         !
 ! D87   D(25,28,29,35)        175.761                                          !
 ! D88   D(25,28,29,36)        -64.8724                                         !
 ! D89   D(30,28,29,34)       -178.8204                                         !
 ! D90   D(30,28,29,35)        -59.2146                                         !
 ! D91   D(30,28,29,36)         60.152                                          !
 ! D92   D(33,28,29,34)        -60.4491                                         !
 ! D93   D(33,28,29,35)         59.1568                                         !
 ! D94   D(33,28,29,36)        178.5233                                         !
 ! D95   D(25,28,30,37)        -55.5532                                         !
 ! D96   D(25,28,30,38)       -175.5602                                         !
 ! D97   D(25,28,30,39)         64.6521                                         !
 ! D98   D(29,28,30,37)        177.9727                                         !
 ! D99   D(29,28,30,38)         57.9657                                         !
 ! D100  D(29,28,30,39)        -61.822                                          !
 ! D101  D(33,28,30,37)         59.2922                                         !
 ! D102  D(33,28,30,38)        -60.7148                                         !
 ! D103  D(33,28,30,39)        179.4975                                         !
 ! D104  D(26,40,41,42)        112.2964                                         !
 ! D105  D(26,40,41,44)       -124.7985                                         !
 ! D106  D(26,40,41,53)         -1.3105                                         !
 ! D107  D(52,40,41,42)        -29.6505                                         !
 ! D108  D(52,40,41,44)         93.2545                                         !
 ! D109  D(52,40,41,53)       -143.2574                                         !
 ! D110  D(40,41,42,43)       -147.9804                                         !
 ! D111  D(40,41,42,51)         29.5479                                         !
 ! D112  D(44,41,42,43)         88.081                                          !
 ! D113  D(44,41,42,51)        -94.3906                                         !
 ! D114  D(53,41,42,43)        -32.7892                                         !
 ! D115  D(53,41,42,51)        144.7392                                         !
 ! D116  D(40,41,44,45)         62.3199                                         !
 ! D117  D(40,41,44,54)        -59.5959                                         !
 ! D118  D(40,41,44,55)       -174.1661                                         !
 ! D119  D(42,41,44,45)       -177.2155                                         !
 ! D120  D(42,41,44,54)         60.8686                                         !
 ! D121  D(42,41,44,55)        -53.7015                                         !
 ! D122  D(53,41,44,45)        -59.5152                                         !
 ! D123  D(53,41,44,54)        178.5689                                         !
 ! D124  D(53,41,44,55)         63.9987                                         !
 ! D125  D(41,44,45,46)         70.2516                                         !
 ! D126  D(41,44,45,56)        -54.1286                                         !
 ! D127  D(41,44,45,57)       -169.8195                                         !
 ! D128  D(54,44,45,46)       -168.1566                                         !
 ! D129  D(54,44,45,56)         67.4632                                         !
 ! D130  D(54,44,45,57)        -48.2276                                         !
 ! D131  D(55,44,45,46)        -51.8801                                         !
 ! D132  D(55,44,45,56)       -176.2603                                         !
 ! D133  D(55,44,45,57)         68.0489                                         !
 ! D134  D(44,45,46,47)        -72.0389                                         !
 ! D135  D(44,45,46,58)        166.922                                          !
 ! D136  D(44,45,46,59)         48.3905                                         !
 ! D137  D(56,45,46,47)         52.7076                                         !
 ! D138  D(56,45,46,58)        -68.3316                                         !
 ! D139  D(56,45,46,59)        173.1369                                         !
 ! D140  D(57,45,46,47)        166.9793                                         !
 ! D141  D(57,45,46,58)         45.9401                                         !
 ! D142  D(57,45,46,59)        -72.5914                                         !
 ! D143  D(45,46,47,48)        138.7863                                         !
 ! D144  D(45,46,47,60)        -21.9169                                         !
 ! D145  D(58,46,47,48)        -99.8144                                         !
 ! D146  D(58,46,47,60)         99.4824                                         !
 ! D147  D(59,46,47,48)         17.9856                                         !
 ! D148  D(59,46,47,60)       -142.7176                                         !
 ! D149  D(46,47,48,49)         22.6191                                         !
 ! D150  D(46,47,48,50)       -156.8037                                         !
 ! D151  D(60,47,48,49)       -176.021                                          !
 ! D152  D(60,47,48,50)          4.5561                                         !
 ! D153  D(47,48,49,61)       -162.416                                          !
 ! D154  D(47,48,49,62)          8.8458                                         !
 ! D155  D(50,48,49,61)         17.0046                                         !
 ! D156  D(50,48,49,62)       -171.7336                                         !
 ! D157  D(47,48,50,63)       -158.4437                                         !
 ! D158  D(47,48,50,64)          4.5146                                         !
 ! D159  D(49,48,50,63)         22.1208                                         !
 ! D160  D(49,48,50,64)       -174.9209                                         !
 --------------------------------------------------------------------------------
 Symmetry turned off by external request.
 Stoichiometry    C20H33N6O5(1+)
 Framework group  C1[X(C20H33N6O5)]
 Deg. of freedom   186
 Full point group                 C1      NOp   1
                          Input orientation:                          
 ---------------------------------------------------------------------
 Center     Atomic      Atomic             Coordinates (Angstroms)
 Number     Number       Type             X           Y           Z
 ---------------------------------------------------------------------
      1          7           0       32.932001  -31.498192   44.894941
      2          6           0       32.391501  -30.178342   44.438670
      3          6           0       33.603733  -29.469943   43.797374
      4          8           0       34.716372  -29.604117   44.301271
      5          6           0       31.169231  -30.411141   43.526151
      6          6           0       30.150288  -31.337403   44.153584
      7          6           0       30.166129  -32.707926   43.860598
      8          6           0       29.209222  -30.863112   45.080531
      9          6           0       29.267614  -33.582661   44.471251
     10          6           0       28.306655  -31.723278   45.694114
     11          6           0       28.331610  -33.091910   45.389961
     12          8           0       27.423186  -33.880651   46.022409
     13          1           0       33.208307  -32.061930   43.936052
     14          1           0       32.095119  -29.605855   45.325235
     15          1           0       30.711931  -29.435168   43.319655
     16          1           0       31.522264  -30.833293   42.579903
     17          1           0       30.890637  -33.096197   43.147634
     18          1           0       29.173191  -29.801715   45.317681
     19          1           0       29.289205  -34.642592   44.227663
     20          1           0       27.570445  -31.359529   46.403171
     21          1           0       27.512423  -34.798353   45.720382
     22          1           0       33.806463  -31.360038   45.410764
     23          1           0       32.249818  -32.009230   45.457888
     24          7           0       33.401114  -28.751197   42.664746
     25          6           0       34.536508  -28.184516   41.933052
     26          6           0       35.568587  -29.278586   41.596828
     27          8           0       36.781233  -28.986564   41.595766
     28          6           0       34.050417  -27.398310   40.688290
     29          6           0       33.336471  -28.283476   39.653694
     30          6           0       35.214579  -26.632188   40.044777
     31          1           0       32.475878  -28.674588   42.267946
     32          1           0       35.075654  -27.502038   42.596808
     33          1           0       33.330281  -26.660780   41.071227
     34          1           0       32.483373  -28.832985   40.071534
     35          1           0       32.950903  -27.666042   38.836737
     36          1           0       34.024077  -29.019828   39.223645
     37          1           0       35.707228  -25.971594   40.765751
     38          1           0       34.847180  -26.019155   39.215940
     39          1           0       35.971628  -27.318410   39.651290
     40          7           0       35.093083  -30.497469   41.292137
     41          6           0       35.790955  -31.748114   41.633134
     42          6           0       34.927325  -32.473506   42.703145
     43          8           0       35.490705  -33.156487   43.550146
     44          6           0       36.041414  -32.647362   40.413897
     45          6           0       36.942514  -32.056995   39.316944
     46          6           0       38.428513  -31.915533   39.682085
     47          7           0       38.634151  -30.828925   40.649447
     48          6           0       39.446852  -30.847031   41.701037
     49          7           0       40.501221  -31.682894   41.763051
     50          7           0       39.200590  -30.018585   42.728969
     51          8           0       33.652025  -32.230387   42.612592
     52          1           0       34.090708  -30.630887   41.412356
     53          1           0       36.724923  -31.491167   42.129916
     54          1           0       35.068810  -32.893932   39.970852
     55          1           0       36.465604  -33.589929   40.782405
     56          1           0       36.553166  -31.081232   38.995540
     57          1           0       36.894732  -32.707443   38.435998
     58          1           0       39.016672  -31.712384   38.779259
     59          1           0       38.790587  -32.854236   40.118688
     60          1           0       37.909707  -30.099201   40.704494
     61          1           0       40.951257  -31.883985   42.643945
     62          1           0       40.782804  -32.225361   40.960903
     63          1           0       39.933105  -29.764702   43.375499
     64          1           0       38.354102  -29.450416   42.697646
 ---------------------------------------------------------------------
 Rotational constants (GHZ):           0.2518522           0.0729815           0.0649300
 Standard basis: 6-31G(d) (6D, 7F)
   531 basis functions,  1000 primitive gaussians,   531 cartesian basis functions
   117 alpha electrons      117 beta electrons
       nuclear repulsion energy      3373.3053270610 Hartrees.
 NAtoms=   64 NActive=   64 NUniq=   64 SFac= 1.00D+00 NAtFMM=   60 NAOKFM=T Big=T
 Integral buffers will be    131072 words long.
 Raffenetti 2 integral format.
 Two-electron integral symmetry is turned off.
 Nuclear repulsion after empirical dispersion term =     3373.2181962129 Hartrees.
 One-electron integrals computed using PRISM.
 NBasis=   531 RedAO= T EigKep=  4.34D-04  NBF=   531
 NBsUse=   531 1.00D-06 EigRej= -1.00D+00 NBFU=   531
 Initial guess from the checkpoint file:  "conf-684.chk"
 B after Tr=     0.000000    0.000000    0.000000
         Rot=    1.000000    0.000000    0.000000    0.000000 Ang=   0.00 deg.
 Requested convergence on RMS density matrix=1.00D-08 within 128 cycles.
 Requested convergence on MAX density matrix=1.00D-06.
 Requested convergence on             energy=1.00D-06.
 No special actions if energy rises.
 SCF Done:  E(RB3LYP) =  -1486.59423877     A.U. after    3 cycles
            NFock=  3  Conv=0.13D-08     -V/T= 2.0094

 **********************************************************************

            Population analysis using the SCF Density.

 **********************************************************************

 Alpha  occ. eigenvalues --  -19.25586 -19.23713 -19.23331 -19.19775 -19.17791
 Alpha  occ. eigenvalues --  -14.50863 -14.50795 -14.49255 -14.49084 -14.48037
 Alpha  occ. eigenvalues --  -14.45878 -10.46265 -10.40721 -10.40157 -10.36297
 Alpha  occ. eigenvalues --  -10.36085 -10.34728 -10.34065 -10.33317 -10.31708
 Alpha  occ. eigenvalues --  -10.30449 -10.30296 -10.29738 -10.28493 -10.28311
 Alpha  occ. eigenvalues --  -10.27873 -10.27861 -10.27551 -10.27346 -10.26818
 Alpha  occ. eigenvalues --  -10.26561  -1.15928  -1.15064  -1.14330  -1.13809
 Alpha  occ. eigenvalues --   -1.12241  -1.06690  -1.04780  -1.04130  -1.03493
 Alpha  occ. eigenvalues --   -1.02960  -1.01897  -0.94236  -0.91375  -0.90228
 Alpha  occ. eigenvalues --   -0.88541  -0.85205  -0.83388  -0.83127  -0.80694
 Alpha  occ. eigenvalues --   -0.78630  -0.77987  -0.76211  -0.75763  -0.72499
 Alpha  occ. eigenvalues --   -0.71613  -0.70702  -0.70309  -0.68596  -0.68297
 Alpha  occ. eigenvalues --   -0.67855  -0.67690  -0.66775  -0.65869  -0.63923
 Alpha  occ. eigenvalues --   -0.63491  -0.63076  -0.62626  -0.62065  -0.59751
 Alpha  occ. eigenvalues --   -0.59490  -0.58227  -0.57743  -0.57359  -0.56593
 Alpha  occ. eigenvalues --   -0.56160  -0.55313  -0.54822  -0.54313  -0.53962
 Alpha  occ. eigenvalues --   -0.53595  -0.53024  -0.52659  -0.51400  -0.51321
 Alpha  occ. eigenvalues --   -0.50655  -0.50574  -0.50028  -0.49911  -0.49192
 Alpha  occ. eigenvalues --   -0.48638  -0.48431  -0.48301  -0.48278  -0.47156
 Alpha  occ. eigenvalues --   -0.46609  -0.45848  -0.45336  -0.44851  -0.44543
 Alpha  occ. eigenvalues --   -0.44080  -0.43948  -0.43480  -0.43086  -0.42002
 Alpha  occ. eigenvalues --   -0.41417  -0.41342  -0.39168  -0.38619  -0.37784
 Alpha  occ. eigenvalues --   -0.37289  -0.36224  -0.34893  -0.34457  -0.33799
 Alpha  occ. eigenvalues --   -0.31157  -0.30265
 Alpha virt. eigenvalues --   -0.10659  -0.10506  -0.09565  -0.08949  -0.07817
 Alpha virt. eigenvalues --   -0.06151  -0.03917  -0.03690  -0.02592  -0.01816
 Alpha virt. eigenvalues --   -0.01241  -0.00521  -0.00280   0.00549   0.00738
 Alpha virt. eigenvalues --    0.01258   0.01687   0.02272   0.02896   0.03207
 Alpha virt. eigenvalues --    0.03923   0.04380   0.05048   0.05224   0.05498
 Alpha virt. eigenvalues --    0.05828   0.06072   0.06602   0.06868   0.07273
 Alpha virt. eigenvalues --    0.07707   0.07943   0.08174   0.08699   0.09311
 Alpha virt. eigenvalues --    0.09469   0.09677   0.09892   0.10254   0.10493
 Alpha virt. eigenvalues --    0.11457   0.11774   0.12507   0.12671   0.13429
 Alpha virt. eigenvalues --    0.14121   0.14522   0.14584   0.15019   0.15681
 Alpha virt. eigenvalues --    0.16817   0.17055   0.17409   0.18313   0.19010
 Alpha virt. eigenvalues --    0.19426   0.20674   0.23310   0.24489   0.25081
 Alpha virt. eigenvalues --    0.25664   0.26111   0.26851   0.27204   0.27353
 Alpha virt. eigenvalues --    0.28702   0.30733   0.33456   0.34687   0.38251
 Alpha virt. eigenvalues --    0.38666   0.39385   0.40230   0.40408   0.41314
 Alpha virt. eigenvalues --    0.41445   0.42585   0.42749   0.43062   0.43458
 Alpha virt. eigenvalues --    0.43556   0.43775   0.44560   0.45103   0.45390
 Alpha virt. eigenvalues --    0.45616   0.46107   0.47279   0.48005   0.48604
 Alpha virt. eigenvalues --    0.49103   0.49557   0.49863   0.50369   0.50657
 Alpha virt. eigenvalues --    0.51189   0.51798   0.52545   0.53218   0.53448
 Alpha virt. eigenvalues --    0.53703   0.53802   0.54355   0.55059   0.55702
 Alpha virt. eigenvalues --    0.55833   0.56448   0.56672   0.57122   0.57942
 Alpha virt. eigenvalues --    0.58295   0.58875   0.59310   0.60427   0.61038
 Alpha virt. eigenvalues --    0.61675   0.62634   0.62889   0.63977   0.64441
 Alpha virt. eigenvalues --    0.65125   0.65359   0.67068   0.67317   0.67832
 Alpha virt. eigenvalues --    0.68259   0.69137   0.70059   0.71253   0.71813
 Alpha virt. eigenvalues --    0.72033   0.72671   0.73214   0.73456   0.73965
 Alpha virt. eigenvalues --    0.74238   0.74415   0.75069   0.75448   0.75741
 Alpha virt. eigenvalues --    0.75976   0.76043   0.76988   0.77178   0.77487
 Alpha virt. eigenvalues --    0.77763   0.78887   0.79132   0.80184   0.80858
 Alpha virt. eigenvalues --    0.80934   0.81763   0.81841   0.82154   0.82694
 Alpha virt. eigenvalues --    0.83348   0.84123   0.84421   0.84691   0.84819
 Alpha virt. eigenvalues --    0.85260   0.85986   0.86613   0.87297   0.87614
 Alpha virt. eigenvalues --    0.87871   0.88306   0.88757   0.89158   0.90061
 Alpha virt. eigenvalues --    0.90804   0.91469   0.91907   0.92722   0.93660
 Alpha virt. eigenvalues --    0.94161   0.95662   0.96702   0.97159   0.98583
 Alpha virt. eigenvalues --    0.98995   1.00386   1.01237   1.01773   1.02176
 Alpha virt. eigenvalues --    1.02439   1.04085   1.05584   1.06323   1.07289
 Alpha virt. eigenvalues --    1.07948   1.08778   1.10605   1.11329   1.11829
 Alpha virt. eigenvalues --    1.12603   1.13328   1.14470   1.14973   1.16432
 Alpha virt. eigenvalues --    1.16965   1.17475   1.18237   1.20345   1.21208
 Alpha virt. eigenvalues --    1.21917   1.22192   1.23060   1.24740   1.25036
 Alpha virt. eigenvalues --    1.26549   1.28642   1.28884   1.30494   1.31345
 Alpha virt. eigenvalues --    1.31961   1.34500   1.35223   1.35618   1.36103
 Alpha virt. eigenvalues --    1.37004   1.37891   1.38559   1.38890   1.40446
 Alpha virt. eigenvalues --    1.40838   1.42582   1.42634   1.43300   1.44712
 Alpha virt. eigenvalues --    1.45081   1.46846   1.47833   1.49022   1.51002
 Alpha virt. eigenvalues --    1.52609   1.53528   1.55841   1.57187   1.58458
 Alpha virt. eigenvalues --    1.58890   1.59746   1.60608   1.61083   1.63025
 Alpha virt. eigenvalues --    1.64459   1.64566   1.65063   1.65723   1.66688
 Alpha virt. eigenvalues --    1.67346   1.67891   1.68772   1.70198   1.70774
 Alpha virt. eigenvalues --    1.71411   1.72333   1.72708   1.72960   1.73452
 Alpha virt. eigenvalues --    1.74316   1.76131   1.76804   1.77241   1.77912
 Alpha virt. eigenvalues --    1.78250   1.78733   1.79155   1.79950   1.80623
 Alpha virt. eigenvalues --    1.81280   1.82380   1.83097   1.84260   1.84691
 Alpha virt. eigenvalues --    1.86053   1.86364   1.87002   1.87463   1.88108
 Alpha virt. eigenvalues --    1.88903   1.89623   1.89983   1.90096   1.90836
 Alpha virt. eigenvalues --    1.91412   1.92307   1.93013   1.94372   1.94738
 Alpha virt. eigenvalues --    1.95688   1.97006   1.97429   1.97833   1.98295
 Alpha virt. eigenvalues --    1.99140   2.00713   2.02525   2.03210   2.03302
 Alpha virt. eigenvalues --    2.04325   2.05126   2.05762   2.05922   2.07410
 Alpha virt. eigenvalues --    2.07644   2.08248   2.09020   2.11687   2.12138
 Alpha virt. eigenvalues --    2.13233   2.14815   2.16187   2.16852   2.17971
 Alpha virt. eigenvalues --    2.18457   2.19222   2.20685   2.22208   2.22712
 Alpha virt. eigenvalues --    2.22894   2.24693   2.25295   2.26636   2.27831
 Alpha virt. eigenvalues --    2.28432   2.28740   2.29792   2.30700   2.32457
 Alpha virt. eigenvalues --    2.32667   2.34114   2.34794   2.36192   2.37471
 Alpha virt. eigenvalues --    2.38003   2.39637   2.41083   2.41857   2.42995
 Alpha virt. eigenvalues --    2.43950   2.44859   2.46625   2.46837   2.48469
 Alpha virt. eigenvalues --    2.49565   2.50160   2.51803   2.52212   2.53605
 Alpha virt. eigenvalues --    2.53747   2.55620   2.56455   2.57082   2.57984
 Alpha virt. eigenvalues --    2.59806   2.60703   2.61301   2.62237   2.63796
 Alpha virt. eigenvalues --    2.66249   2.67434   2.69116   2.69676   2.70544
 Alpha virt. eigenvalues --    2.74174   2.76950   2.77950   2.80803   2.81717
 Alpha virt. eigenvalues --    2.85452   2.87181   2.88264   2.91174   2.92555
 Alpha virt. eigenvalues --    2.93121   2.94863   2.97796   3.03260   3.04045
 Alpha virt. eigenvalues --    3.08587   3.10860   3.33059   3.67389   3.75943
 Alpha virt. eigenvalues --    3.78000   3.86609   3.88746   3.91147   3.94471
 Alpha virt. eigenvalues --    3.99027   4.03233   4.03742   4.04567   4.05627
 Alpha virt. eigenvalues --    4.11692   4.14194   4.17497   4.18280   4.20241
 Alpha virt. eigenvalues --    4.21120   4.23696   4.25416   4.27306   4.29369
 Alpha virt. eigenvalues --    4.35483   4.37363   4.40076   4.42401   4.51166
 Alpha virt. eigenvalues --    4.57308   4.62859   4.63923   4.67070
          Condensed to atoms (all electrons):
 Mulliken charges:
               1
     1  N   -0.772658
     2  C   -0.088739
     3  C    0.653488
     4  O   -0.529134
     5  C   -0.398950
     6  C    0.122528
     7  C   -0.215699
     8  C   -0.188754
     9  C   -0.190702
    10  C   -0.154897
    11  C    0.358179
    12  O   -0.625849
    13  H    0.462684
    14  H    0.205539
    15  H    0.165427
    16  H    0.193503
    17  H    0.166551
    18  H    0.136295
    19  H    0.143634
    20  H    0.164188
    21  H    0.418578
    22  H    0.401600
    23  H    0.387759
    24  N   -0.656766
    25  C    0.001818
    26  C    0.626894
    27  O   -0.594226
    28  C   -0.129336
    29  C   -0.469301
    30  C   -0.447945
    31  H    0.354959
    32  H    0.195621
    33  H    0.155416
    34  H    0.135751
    35  H    0.177837
    36  H    0.162569
    37  H    0.161452
    38  H    0.165903
    39  H    0.157545
    40  N   -0.570004
    41  C   -0.072968
    42  C    0.608328
    43  O   -0.522129
    44  C   -0.268030
    45  C   -0.307268
    46  C   -0.149307
    47  N   -0.608621
    48  C    0.790089
    49  N   -0.760630
    50  N   -0.775924
    51  O   -0.674955
    52  H    0.359782
    53  H    0.158262
    54  H    0.166388
    55  H    0.169148
    56  H    0.164394
    57  H    0.175541
    58  H    0.184977
    59  H    0.167153
    60  H    0.404132
    61  H    0.379698
    62  H    0.382435
    63  H    0.366993
    64  H    0.419752
 Sum of Mulliken charges =   1.00000
 Mulliken charges with hydrogens summed into heavy atoms:
               1
     1  N    0.479385
     2  C    0.116801
     3  C    0.653488
     4  O   -0.529134
     5  C   -0.040020
     6  C    0.122528
     7  C   -0.049147
     8  C   -0.052459
     9  C   -0.047068
    10  C    0.009291
    11  C    0.358179
    12  O   -0.207271
    24  N   -0.301806
    25  C    0.197439
    26  C    0.626894
    27  O   -0.594226
    28  C    0.026080
    29  C    0.006856
    30  C    0.036955
    40  N   -0.210222
    41  C    0.085294
    42  C    0.608328
    43  O   -0.522129
    44  C    0.067505
    45  C    0.032667
    46  C    0.202823
    47  N   -0.204489
    48  C    0.790089
    49  N    0.001503
    50  N    0.010821
    51  O   -0.674955
 Electronic spatial extent (au):  <R**2>=        3298466.8375
 Charge=              1.0000 electrons
 Dipole moment (field-independent basis, Debye):
    X=            172.6034    Y=           -146.9754    Z=            202.6205  Tot=            304.0539
 Quadrupole moment (field-independent basis, Debye-Ang):
   XX=           6126.3947   YY=           4340.9163   ZZ=           8394.0024
   XY=          -5285.6721   XZ=           7256.3015   YZ=          -6200.1341
 Traceless Quadrupole moment (field-independent basis, Debye-Ang):
   XX=           -160.7097   YY=          -1946.1882   ZZ=           2106.8979
   XY=          -5285.6721   XZ=           7256.3015   YZ=          -6200.1341
 Octapole moment (field-independent basis, Debye-Ang**2):
  XXX=         215692.8775  YYY=        -123184.0169  ZZZ=         340959.0626  XYY=         156451.9525
  XXY=        -187884.7531  XXZ=         256701.5754  XZZ=         299837.3312  YZZ=        -256840.4796
  YYZ=         183061.6587  XYZ=        -222136.4701
 Hexadecapole moment (field-independent basis, Debye-Ang**3):
 XXXX=        7550429.2482 YYYY=        3319800.6426 ZZZZ=       13535435.4732 XXXY=       -6629947.6867
 XXXZ=        9010445.3339 YYYX=       -4457872.2037 YYYZ=       -5190407.9052 ZZZX=       12160018.9985
 ZZZY=      -10430575.9690 XXYY=        5572787.5788 XXZZ=       10575577.4412 YYZZ=        7574016.4929
 XXYZ=       -7867139.9049 YYXZ=        6570383.4053 ZZXY=       -9175546.2946
 N-N= 3.373218196213D+03 E-N=-1.018480849359D+04  KE= 1.472701970993D+03
 Unable to Open any file for archive entry.
 1\1\GINC-AMR-024\SP\RB3LYP\6-31G(d)\C20H33N6O5(1+)\KENGMITH\31-May-202
 2\0\\# B3LYP/6-31G* empiricaldispersion=gd3 guess=read geom=check nosy
 mm integral(ultrafinegrid)\\Candidate Structure: Conf:684 Charge calc 
 in gas phase\\1,1\N,0,32.9320006917,-31.4981915884,44.8949411295\C,0,3
 2.3915005014,-30.1783415179,44.4386698118\C,0,33.603733234,-29.4699433
 195,43.7973743137\O,0,34.7163720591,-29.6041172176,44.3012714376\C,0,3
 1.1692305864,-30.4111406261,43.5261513613\C,0,30.1502881863,-31.337403
 4252,44.1535842744\C,0,30.1661288345,-32.7079262608,43.8605975952\C,0,
 29.2092222852,-30.8631116065,45.080531164\C,0,29.2676144844,-33.582661
 1921,44.4712509039\C,0,28.3066547255,-31.7232779221,45.6941138673\C,0,
 28.3316096085,-33.0919095579,45.3899607051\O,0,27.4231863723,-33.88065
 06405,46.0224092253\H,0,33.2083072794,-32.0619297037,43.9360522523\H,0
 ,32.0951187991,-29.6058548946,45.3252346952\H,0,30.7119314211,-29.4351
 683799,43.319654833\H,0,31.5222635585,-30.8332932904,42.5799033745\H,0
 ,30.890636925,-33.096196931,43.1476343106\H,0,29.1731912355,-29.801715
 0548,45.3176809454\H,0,29.2892052603,-34.6425920336,44.227662941\H,0,2
 7.5704446528,-31.3595287027,46.4031712824\H,0,27.51242328,-34.79835326
 45,45.7203822547\H,0,33.8064631558,-31.3600379487,45.4107644849\H,0,32
 .2498181632,-32.0092296298,45.4578877006\N,0,33.4011141492,-28.7511967
 401,42.6647459222\C,0,34.5365077616,-28.1845156131,41.9330515883\C,0,3
 5.5685868865,-29.2785861837,41.5968284279\O,0,36.7812328211,-28.986564
 1491,41.5957660977\C,0,34.0504172772,-27.3983099156,40.6882902666\C,0,
 33.3364713313,-28.2834758945,39.6536937109\C,0,35.2145793196,-26.63218
 79951,40.0447765896\H,0,32.4758775712,-28.6745878545,42.2679455139\H,0
 ,35.0756543359,-27.5020383062,42.5968082651\H,0,33.3302814327,-26.6607
 798912,41.0712267329\H,0,32.4833733916,-28.8329850368,40.0715341332\H,
 0,32.9509028484,-27.6660424071,38.8367366077\H,0,34.0240774579,-29.019
 8280458,39.2236447658\H,0,35.7072281445,-25.9715944845,40.7657512881\H
 ,0,34.8471800095,-26.0191547197,39.2159402357\H,0,35.9716283014,-27.31
 84102017,39.6512897949\N,0,35.0930827388,-30.4974692606,41.2921374533\
 C,0,35.7909546434,-31.7481136414,41.6331342484\C,0,34.9273245109,-32.4
 735058302,42.7031448432\O,0,35.490705294,-33.1564871012,43.5501457617\
 C,0,36.0414138125,-32.6473622627,40.4138967716\C,0,36.9425140288,-32.0
 569954966,39.3169442399\C,0,38.4285127062,-31.9155328822,39.6820849328
 \N,0,38.6341512686,-30.8289251272,40.6494470544\C,0,39.4468521435,-30.
 8470307609,41.7010366781\N,0,40.5012208777,-31.6828942085,41.763050555
 9\N,0,39.2005896762,-30.018585234,42.7289689712\O,0,33.6520254923,-32.
 2303874021,42.6125922286\H,0,34.0907079367,-30.6308870654,41.412355851
 \H,0,36.7249225241,-31.4911671155,42.129915922\H,0,35.0688101182,-32.8
 939320052,39.9708521371\H,0,36.4656035089,-33.5899294426,40.7824045931
 \H,0,36.5531662769,-31.0812320237,38.9955397958\H,0,36.8947324192,-32.
 7074429871,38.4359975466\H,0,39.0166717566,-31.7123843364,38.779259392
 \H,0,38.7905874434,-32.8542363479,40.1186884463\H,0,37.9097071003,-30.
 0992012118,40.7044936508\H,0,40.9512570925,-31.8839854214,42.643944836
 7\H,0,40.7828038568,-32.2253605251,40.9609031582\H,0,39.9331049202,-29
 .7647016271,43.3754989382\H,0,38.3541021637,-29.4504163661,42.69764560
 89\\Version=ES64L-G16RevC.01\HF=-1486.5942388\RMSD=1.268e-09\Dipole=3.
 4110171,0.4099257,-0.7518273\Quadrupole=-119.4837542,-1446.9432237,156
 6.4269779,-3929.7676703,5394.882327,-4609.6477673\PG=C01 [X(C20H33N6O5
 )]\\@
 The archive entry for this job was punched.


 PENOTUS DIED A HUNDRED YEARS OLD WANTING BUT TWO...
 AND HE USED TO SAY BEFORE HE DIED, HAVING SPENT HIS
 WHOLE LIFE IN VAINLY SEARCHING AFTER THE PHILOSOPHER'S
 STONE, THAT IF HE HAD A MORTAL ENEMY HE DID NOT DARE
 TO ENCOUNTER OPENLY, HE WOULD ADVISE HIM ABOVE ALL
 THINGS TO GIVE HIMSELF UP TO THE STUDY AND PRACTICE
 OF ALCHEMY.  --  NICOLAS LEMERY, M.D.
 "A COURSE OF CHYMISTRY", WALTER KETTILBY, LONDON, 1686
 Job cpu time:       0 days  0 hours  2 minutes 28.7 seconds.
 Elapsed time:       0 days  0 hours  0 minutes 37.7 seconds.
 File lengths (MBytes):  RWF=    264 Int=      0 D2E=      0 Chk=     40 Scr=     16
 Normal termination of Gaussian 16 at Tue May 31 11:32:10 2022.
