 Entering Gaussian System, Link 0=/opt/software/Gaussian/g16-AVX2-C.01/g16/g16
 Input=charge-conf-123.com
 Output=charge-conf-123.log
 Initial command:
 /opt/software/Gaussian/g16-AVX2-C.01/g16/l1.exe "/mnt/gs18/scratch/users/kengmith/Gau-113588.inp" -scrdir="/mnt/gs18/scratch/users/kengmith/"
 Entering Link 1 = /opt/software/Gaussian/g16-AVX2-C.01/g16/l1.exe PID=    113598.
  
 Copyright (c) 1988-2019, Gaussian, Inc.  All Rights Reserved.
  
 This is part of the Gaussian(R) 16 program.  It is based on
 the Gaussian(R) 09 system (copyright 2009, Gaussian, Inc.),
 the Gaussian(R) 03 system (copyright 2003, Gaussian, Inc.),
 the Gaussian(R) 98 system (copyright 1998, Gaussian, Inc.),
 the Gaussian(R) 94 system (copyright 1995, Gaussian, Inc.),
 the Gaussian 92(TM) system (copyright 1992, Gaussian, Inc.),
 the Gaussian 90(TM) system (copyright 1990, Gaussian, Inc.),
 the Gaussian 88(TM) system (copyright 1988, Gaussian, Inc.),
 the Gaussian 86(TM) system (copyright 1986, Carnegie Mellon
 University), and the Gaussian 82(TM) system (copyright 1983,
 Carnegie Mellon University). Gaussian is a federally registered
 trademark of Gaussian, Inc.
  
 This software contains proprietary and confidential information,
 including trade secrets, belonging to Gaussian, Inc.
  
 This software is provided under written license and may be
 used, copied, transmitted, or stored only in accord with that
 written license.
  
 The following legend is applicable only to US Government
 contracts under FAR:
  
                    RESTRICTED RIGHTS LEGEND
  
 Use, reproduction and disclosure by the US Government is
 subject to restrictions as set forth in subparagraphs (a)
 and (c) of the Commercial Computer Software - Restricted
 Rights clause in FAR 52.227-19.
  
 Gaussian, Inc.
 340 Quinnipiac St., Bldg. 40, Wallingford CT 06492
  
  
 ---------------------------------------------------------------
 Warning -- This program may not be used in any manner that
 competes with the business of Gaussian, Inc. or will provide
 assistance to any competitor of Gaussian, Inc.  The licensee
 of this program is prohibited from giving any competitor of
 Gaussian, Inc. access to this program.  By using this program,
 the user acknowledges that Gaussian, Inc. is engaged in the
 business of creating and licensing software in the field of
 computational chemistry and represents and warrants to the
 licensee that it is not a competitor of Gaussian, Inc. and that
 it will not use this program in any manner prohibited above.
 ---------------------------------------------------------------
  

 Cite this work as:
 Gaussian 16, Revision C.01,
 M. J. Frisch, G. W. Trucks, H. B. Schlegel, G. E. Scuseria, 
 M. A. Robb, J. R. Cheeseman, G. Scalmani, V. Barone, 
 G. A. Petersson, H. Nakatsuji, X. Li, M. Caricato, A. V. Marenich, 
 J. Bloino, B. G. Janesko, R. Gomperts, B. Mennucci, H. P. Hratchian, 
 J. V. Ortiz, A. F. Izmaylov, J. L. Sonnenberg, D. Williams-Young, 
 F. Ding, F. Lipparini, F. Egidi, J. Goings, B. Peng, A. Petrone, 
 T. Henderson, D. Ranasinghe, V. G. Zakrzewski, J. Gao, N. Rega, 
 G. Zheng, W. Liang, M. Hada, M. Ehara, K. Toyota, R. Fukuda, 
 J. Hasegawa, M. Ishida, T. Nakajima, Y. Honda, O. Kitao, H. Nakai, 
 T. Vreven, K. Throssell, J. A. Montgomery, Jr., J. E. Peralta, 
 F. Ogliaro, M. J. Bearpark, J. J. Heyd, E. N. Brothers, K. N. Kudin, 
 V. N. Staroverov, T. A. Keith, R. Kobayashi, J. Normand, 
 K. Raghavachari, A. P. Rendell, J. C. Burant, S. S. Iyengar, 
 J. Tomasi, M. Cossi, J. M. Millam, M. Klene, C. Adamo, R. Cammi, 
 J. W. Ochterski, R. L. Martin, K. Morokuma, O. Farkas, 
 J. B. Foresman, and D. J. Fox, Gaussian, Inc., Wallingford CT, 2019.
 
 ******************************************
 Gaussian 16:  ES64L-G16RevC.01  3-Jul-2019
                31-May-2022 
 ******************************************
 %mem=8gb
 %nproc=4
 Will use up to    4 processors via shared memory.
 %chk=conf-123.chk
 ----------------------------------------------------------------------
 # B3LYP/6-31G* empiricaldispersion=gd3 guess=read geom=check nosymm in
 tegral(ultrafinegrid)
 ----------------------------------------------------------------------
 1/29=2,38=1,172=1/1;
 2/12=2,15=1,40=1/2;
 3/5=1,6=6,7=1,11=2,14=-4,25=1,30=1,74=-5,75=-5,116=-2,124=31/1,2,3;
 4/5=1/1;
 5/5=2,38=6/2;
 6/7=2,8=2,9=2,10=2,28=1/1;
 99/5=1,9=1/99;
 ------------------------------------------------------
 Candidate Structure: Conf:123 Charge calc in gas phase
 ------------------------------------------------------
 Structure from the checkpoint file:  "conf-123.chk"
 Charge =  1 Multiplicity = 1
 Redundant internal coordinates found in file.  (old form).
 N,0,34.9123551118,-32.157780304,44.4051234463
 C,0,34.5445751813,-30.8031160923,44.9389918824
 C,0,34.9500815169,-29.8299515764,43.8101282137
 O,0,35.9271138347,-30.1010805719,43.1126815595
 C,0,33.0595828776,-30.7958602396,45.3561557825
 C,0,32.7069980621,-31.9687406278,46.2453210233
 C,0,32.1825520263,-33.1467731718,45.6862390259
 C,0,32.9448075821,-31.9339882263,47.6245184074
 C,0,31.9035307632,-34.2550686515,46.478586453
 C,0,32.6662118656,-33.0363305574,48.430378112
 C,0,32.142965098,-34.203877957,47.8586484311
 O,0,31.8468650542,-35.3173908877,48.5782386335
 H,0,34.8603681211,-32.8772547185,45.1290038062
 H,0,35.1824822511,-30.6084577803,45.8084727138
 H,0,32.8632842681,-29.8527978648,45.8813144721
 H,0,32.4480280035,-30.8173455981,44.4487878087
 H,0,31.9878385698,-33.190488922,44.6165332775
 H,0,33.3416955077,-31.0310046117,48.0839630528
 H,0,31.4902614429,-35.1636324264,46.0533308537
 H,0,32.8469974788,-32.988196317,49.5018753743
 H,0,32.0238400229,-35.1638379255,49.5198124452
 H,0,34.2141825568,-32.3734419691,43.5814458942
 H,0,35.8439609195,-32.1160751282,43.9760808766
 N,0,34.1862526682,-28.732217345,43.6084977422
 C,0,34.4252715639,-27.8595176475,42.4499827367
 C,0,34.4216714271,-28.6943624263,41.1485705251
 O,0,35.2526636271,-28.4815002201,40.2683737144
 C,0,33.433773555,-26.6709143797,42.4413168292
 C,0,31.9626482753,-27.0994958386,42.3132862045
 C,0,33.8124103524,-25.6780686482,41.333014989
 H,0,33.3851168277,-28.5548387049,44.1974840506
 H,0,35.4457697072,-27.4720572562,42.5153505665
 H,0,33.5653238447,-26.1665420972,43.4098577453
 H,0,31.646073338,-27.7967156774,43.1003650415
 H,0,31.3117695507,-26.2228133654,42.3850889345
 H,0,31.7753725325,-27.5809001416,41.3477866078
 H,0,33.7131735954,-26.1351168042,40.3426858687
 H,0,34.8464651252,-25.3338774658,41.4395922677
 H,0,33.1561469249,-24.8030892905,41.3708991489
 N,0,33.4626806363,-29.66937198,41.0583956351
 C,0,33.8123551676,-30.9028149193,40.3536619753
 C,0,34.1088223863,-31.9932626476,41.4032434982
 O,0,35.1327271423,-32.7034936756,41.2564924939
 C,0,32.8222217408,-31.3077728364,39.2575561885
 C,0,33.2100741217,-32.581195508,38.469523514
 C,0,34.7010411279,-32.78310619,38.0990810074
 N,0,35.3969306217,-31.5492040653,37.692966473
 C,0,36.3665564994,-30.9233468845,38.3739823562
 N,0,36.8751016236,-31.426850211,39.5000281673
 N,0,36.8850861291,-29.7589330633,37.8972932549
 O,0,33.3168390323,-32.0407400729,42.402166397
 H,0,32.9087501687,-29.8374025011,41.8904736188
 H,0,34.7463230559,-30.6561759416,39.8791965746
 H,0,32.7419957135,-30.4526996159,38.57495263
 H,0,31.8254175138,-31.4572497474,39.6878028
 H,0,32.6024141558,-32.6066974294,37.5572527414
 H,0,32.9292540169,-33.4716551796,39.044124309
 H,0,34.7808248694,-33.500551845,37.2763759778
 H,0,35.2345327825,-33.2028154891,38.948872795
 H,0,34.9789965395,-31.0303780992,36.9313951653
 H,0,37.6110170882,-30.8931477114,39.9440230905
 H,0,36.3014815278,-32.0173423293,40.141733254
 H,0,36.9987801677,-29.0337249364,38.6000471098
 H,0,36.52530751,-29.4064701269,37.0195993049
 Recover connectivity data from disk.
                           ----------------------------
                           !    Current Parameters    !
                           ! (Angstroms and Degrees)  !
 --------------------------                            --------------------------
 ! Name  Definition              Value                                          !
 --------------------------------------------------------------------------------
 ! R1    R(1,2)                  1.5018                                         !
 ! R2    R(1,13)                 1.0219                                         !
 ! R3    R(1,22)                 1.1011                                         !
 ! R4    R(1,23)                 1.0265                                         !
 ! R5    R(2,3)                  1.5446                                         !
 ! R6    R(2,5)                  1.5425                                         !
 ! R7    R(2,14)                 1.0958                                         !
 ! R8    R(3,4)                  1.2307                                         !
 ! R9    R(3,24)                 1.3524                                         !
 ! R10   R(5,6)                  1.5135                                         !
 ! R11   R(5,15)                 1.0971                                         !
 ! R12   R(5,16)                 1.0944                                         !
 ! R13   R(6,7)                  1.4055                                         !
 ! R14   R(6,8)                  1.4                                            !
 ! R15   R(7,9)                  1.3907                                         !
 ! R16   R(7,17)                 1.0882                                         !
 ! R17   R(8,10)                 1.3936                                         !
 ! R18   R(8,18)                 1.0881                                         !
 ! R19   R(9,11)                 1.4016                                         !
 ! R20   R(9,19)                 1.085                                          !
 ! R21   R(10,11)                1.4014                                         !
 ! R22   R(10,20)                1.0877                                         !
 ! R23   R(11,12)                1.3585                                         !
 ! R24   R(12,21)                0.9703                                         !
 ! R25   R(24,25)                1.47                                           !
 ! R26   R(24,31)                1.01                                           !
 ! R27   R(25,26)                1.5462                                         !
 ! R28   R(25,28)                1.5479                                         !
 ! R29   R(25,32)                1.0935                                         !
 ! R30   R(26,27)                1.2291                                         !
 ! R31   R(26,40)                1.3706                                         !
 ! R32   R(28,29)                1.5376                                         !
 ! R33   R(28,30)                1.5354                                         !
 ! R34   R(28,33)                1.0999                                         !
 ! R35   R(29,34)                1.0981                                         !
 ! R36   R(29,35)                1.0942                                         !
 ! R37   R(29,36)                1.095                                          !
 ! R38   R(30,37)                1.0952                                         !
 ! R39   R(30,38)                1.095                                          !
 ! R40   R(30,39)                1.0944                                         !
 ! R41   R(40,41)                1.463                                          !
 ! R42   R(40,52)                1.0136                                         !
 ! R43   R(41,42)                1.5423                                         !
 ! R44   R(41,44)                1.5316                                         !
 ! R45   R(41,53)                1.0762                                         !
 ! R46   R(42,43)                1.2547                                         !
 ! R47   R(42,51)                1.2757                                         !
 ! R48   R(44,45)                1.5469                                         !
 ! R49   R(44,54)                1.0971                                         !
 ! R50   R(44,55)                1.0959                                         !
 ! R51   R(45,46)                1.5495                                         !
 ! R52   R(45,56)                1.0964                                         !
 ! R53   R(45,57)                1.0963                                         !
 ! R54   R(46,47)                1.4737                                         !
 ! R55   R(46,58)                1.0945                                         !
 ! R56   R(46,59)                1.0876                                         !
 ! R57   R(47,48)                1.34                                           !
 ! R58   R(47,60)                1.0118                                         !
 ! R59   R(48,49)                1.3342                                         !
 ! R60   R(48,50)                1.3609                                         !
 ! R61   R(49,61)                1.0117                                         !
 ! R62   R(49,62)                1.0438                                         !
 ! R63   R(50,63)                1.0162                                         !
 ! R64   R(50,64)                1.0119                                         !
 ! A1    A(2,1,13)             111.7645                                         !
 ! A2    A(2,1,22)             106.6974                                         !
 ! A3    A(2,1,23)             109.5231                                         !
 ! A4    A(13,1,22)            111.0837                                         !
 ! A5    A(13,1,23)            111.7671                                         !
 ! A6    A(22,1,23)            105.709                                          !
 ! A7    A(1,2,3)              104.1356                                         !
 ! A8    A(1,2,5)              109.6424                                         !
 ! A9    A(1,2,14)             107.4418                                         !
 ! A10   A(3,2,5)              116.5792                                         !
 ! A11   A(3,2,14)             108.3695                                         !
 ! A12   A(5,2,14)             110.1821                                         !
 ! A13   A(2,3,4)              118.9342                                         !
 ! A14   A(2,3,24)             118.1687                                         !
 ! A15   A(4,3,24)             122.8682                                         !
 ! A16   A(2,5,6)              112.3042                                         !
 ! A17   A(2,5,15)             107.8032                                         !
 ! A18   A(2,5,16)             108.2789                                         !
 ! A19   A(6,5,15)             110.0742                                         !
 ! A20   A(6,5,16)             109.9801                                         !
 ! A21   A(15,5,16)            108.2852                                         !
 ! A22   A(5,6,7)              120.1841                                         !
 ! A23   A(5,6,8)              121.3303                                         !
 ! A24   A(7,6,8)              118.4292                                         !
 ! A25   A(6,7,9)              121.0778                                         !
 ! A26   A(6,7,17)             119.4381                                         !
 ! A27   A(9,7,17)             119.4836                                         !
 ! A28   A(6,8,10)             121.0691                                         !
 ! A29   A(6,8,18)             119.9028                                         !
 ! A30   A(10,8,18)            119.0236                                         !
 ! A31   A(7,9,11)             119.8423                                         !
 ! A32   A(7,9,19)             121.3648                                         !
 ! A33   A(11,9,19)            118.789                                          !
 ! A34   A(8,10,11)            119.8507                                         !
 ! A35   A(8,10,20)            120.0927                                         !
 ! A36   A(11,10,20)           120.0548                                         !
 ! A37   A(9,11,10)            119.7304                                         !
 ! A38   A(9,11,12)            117.026                                          !
 ! A39   A(10,11,12)           123.2435                                         !
 ! A40   A(11,12,21)           110.1549                                         !
 ! A41   A(3,24,25)            120.4994                                         !
 ! A42   A(3,24,31)            120.2363                                         !
 ! A43   A(25,24,31)           118.9652                                         !
 ! A44   A(24,25,26)           110.0244                                         !
 ! A45   A(24,25,28)           110.8632                                         !
 ! A46   A(24,25,32)           108.3595                                         !
 ! A47   A(26,25,28)           114.1053                                         !
 ! A48   A(26,25,32)           104.1109                                         !
 ! A49   A(28,25,32)           109.0278                                         !
 ! A50   A(25,26,27)           120.5105                                         !
 ! A51   A(25,26,40)           116.1754                                         !
 ! A52   A(27,26,40)           123.3102                                         !
 ! A53   A(25,28,29)           113.5334                                         !
 ! A54   A(25,28,30)           110.037                                          !
 ! A55   A(25,28,33)           105.6992                                         !
 ! A56   A(29,28,30)           110.8593                                         !
 ! A57   A(29,28,33)           108.3951                                         !
 ! A58   A(30,28,33)           108.0358                                         !
 ! A59   A(28,29,34)           113.1487                                         !
 ! A60   A(28,29,35)           109.8964                                         !
 ! A61   A(28,29,36)           111.0751                                         !
 ! A62   A(34,29,35)           106.8685                                         !
 ! A63   A(34,29,36)           107.6709                                         !
 ! A64   A(35,29,36)           107.9602                                         !
 ! A65   A(28,30,37)           111.1316                                         !
 ! A66   A(28,30,38)           111.4611                                         !
 ! A67   A(28,30,39)           110.1285                                         !
 ! A68   A(37,30,38)           107.7426                                         !
 ! A69   A(37,30,39)           108.0962                                         !
 ! A70   A(38,30,39)           108.1553                                         !
 ! A71   A(26,40,41)           117.6606                                         !
 ! A72   A(26,40,52)           116.5065                                         !
 ! A73   A(41,40,52)           112.7239                                         !
 ! A74   A(40,41,42)           108.3143                                         !
 ! A75   A(40,41,44)           114.4025                                         !
 ! A76   A(40,41,53)           103.0956                                         !
 ! A77   A(42,41,44)           115.1105                                         !
 ! A78   A(42,41,53)           107.172                                          !
 ! A79   A(44,41,53)           107.8248                                         !
 ! A80   A(41,42,43)           118.5213                                         !
 ! A81   A(41,42,51)           116.096                                          !
 ! A82   A(43,42,51)           125.2499                                         !
 ! A83   A(41,44,45)           114.8431                                         !
 ! A84   A(41,44,54)           106.6478                                         !
 ! A85   A(41,44,55)           110.0658                                         !
 ! A86   A(45,44,54)           110.0587                                         !
 ! A87   A(45,44,55)           108.4064                                         !
 ! A88   A(54,44,55)           106.5029                                         !
 ! A89   A(44,45,46)           118.0539                                         !
 ! A90   A(44,45,56)           107.7007                                         !
 ! A91   A(44,45,57)           109.7183                                         !
 ! A92   A(46,45,56)           109.3498                                         !
 ! A93   A(46,45,57)           105.4223                                         !
 ! A94   A(56,45,57)           105.9758                                         !
 ! A95   A(45,46,47)           114.2772                                         !
 ! A96   A(45,46,58)           109.5883                                         !
 ! A97   A(45,46,59)           109.6013                                         !
 ! A98   A(47,46,58)           107.8954                                         !
 ! A99   A(47,46,59)           107.8667                                         !
 ! A100  A(58,46,59)           107.3731                                         !
 ! A101  A(46,47,48)           126.3487                                         !
 ! A102  A(46,47,60)           116.2122                                         !
 ! A103  A(48,47,60)           116.2251                                         !
 ! A104  A(47,48,49)           121.9021                                         !
 ! A105  A(47,48,50)           119.8227                                         !
 ! A106  A(49,48,50)           118.2488                                         !
 ! A107  A(48,49,61)           116.6517                                         !
 ! A108  A(48,49,62)           121.5261                                         !
 ! A109  A(61,49,62)           115.3646                                         !
 ! A110  A(48,50,63)           114.268                                          !
 ! A111  A(48,50,64)           117.7989                                         !
 ! A112  A(63,50,64)           113.0174                                         !
 ! D1    D(13,1,2,3)           169.0025                                         !
 ! D2    D(13,1,2,5)           -65.5609                                         !
 ! D3    D(13,1,2,14)           54.1823                                         !
 ! D4    D(22,1,2,3)           -69.386                                          !
 ! D5    D(22,1,2,5)            56.0506                                         !
 ! D6    D(22,1,2,14)          175.7938                                         !
 ! D7    D(23,1,2,3)            44.5849                                         !
 ! D8    D(23,1,2,5)           170.0215                                         !
 ! D9    D(23,1,2,14)          -70.2353                                         !
 ! D10   D(1,2,3,4)            -32.8751                                         !
 ! D11   D(1,2,3,24)           145.223                                          !
 ! D12   D(5,2,3,4)           -153.7795                                         !
 ! D13   D(5,2,3,24)            24.3186                                         !
 ! D14   D(14,2,3,4)            81.2871                                         !
 ! D15   D(14,2,3,24)         -100.6148                                         !
 ! D16   D(1,2,5,6)             49.9463                                         !
 ! D17   D(1,2,5,15)           171.3715                                         !
 ! D18   D(1,2,5,16)           -71.685                                          !
 ! D19   D(3,2,5,6)            167.8845                                         !
 ! D20   D(3,2,5,15)           -70.6903                                         !
 ! D21   D(3,2,5,16)            46.2532                                         !
 ! D22   D(14,2,5,6)           -68.1055                                         !
 ! D23   D(14,2,5,15)           53.3197                                         !
 ! D24   D(14,2,5,16)          170.2632                                         !
 ! D25   D(2,3,24,25)         -172.5182                                         !
 ! D26   D(2,3,24,31)            1.1367                                         !
 ! D27   D(4,3,24,25)            5.5                                            !
 ! D28   D(4,3,24,31)          179.1549                                         !
 ! D29   D(2,5,6,7)            -94.0794                                         !
 ! D30   D(2,5,6,8)             83.1449                                         !
 ! D31   D(15,5,6,7)           145.8042                                         !
 ! D32   D(15,5,6,8)           -36.9714                                         !
 ! D33   D(16,5,6,7)            26.5753                                         !
 ! D34   D(16,5,6,8)          -156.2003                                         !
 ! D35   D(5,6,7,9)            177.3362                                         !
 ! D36   D(5,6,7,17)            -2.9262                                         !
 ! D37   D(8,6,7,9)              0.0321                                         !
 ! D38   D(8,6,7,17)           179.7698                                         !
 ! D39   D(5,6,8,10)          -177.4805                                         !
 ! D40   D(5,6,8,18)             3.3003                                         !
 ! D41   D(7,6,8,10)            -0.2088                                         !
 ! D42   D(7,6,8,18)          -179.428                                          !
 ! D43   D(6,7,9,11)             0.1671                                         !
 ! D44   D(6,7,9,19)           179.4404                                         !
 ! D45   D(17,7,9,11)         -179.5705                                         !
 ! D46   D(17,7,9,19)           -0.2972                                         !
 ! D47   D(6,8,10,11)            0.1844                                         !
 ! D48   D(6,8,10,20)         -179.3327                                         !
 ! D49   D(18,8,10,11)         179.4104                                         !
 ! D50   D(18,8,10,20)          -0.1068                                         !
 ! D51   D(7,9,11,10)           -0.1922                                         !
 ! D52   D(7,9,11,12)          179.8446                                         !
 ! D53   D(19,9,11,10)        -179.4842                                         !
 ! D54   D(19,9,11,12)           0.5526                                         !
 ! D55   D(8,10,11,9)            0.0188                                         !
 ! D56   D(8,10,11,12)         179.9796                                         !
 ! D57   D(20,10,11,9)         179.5361                                         !
 ! D58   D(20,10,11,12)         -0.5031                                         !
 ! D59   D(9,11,12,21)        -178.2386                                         !
 ! D60   D(10,11,12,21)          1.7997                                         !
 ! D61   D(3,24,25,26)          53.1732                                         !
 ! D62   D(3,24,25,28)        -179.663                                          !
 ! D63   D(3,24,25,32)         -60.0525                                         !
 ! D64   D(31,24,25,26)       -120.5615                                         !
 ! D65   D(31,24,25,28)          6.6023                                         !
 ! D66   D(31,24,25,32)        126.2128                                         !
 ! D67   D(24,25,26,27)       -138.1876                                         !
 ! D68   D(24,25,26,40)         41.1101                                         !
 ! D69   D(28,25,26,27)         96.479                                          !
 ! D70   D(28,25,26,40)        -84.2233                                         !
 ! D71   D(32,25,26,27)        -22.2563                                         !
 ! D72   D(32,25,26,40)        157.0414                                         !
 ! D73   D(24,25,28,29)        -62.3467                                         !
 ! D74   D(24,25,28,30)        172.7476                                         !
 ! D75   D(24,25,28,33)         56.3348                                         !
 ! D76   D(26,25,28,29)         62.542                                          !
 ! D77   D(26,25,28,30)        -62.3637                                         !
 ! D78   D(26,25,28,33)       -178.7765                                         !
 ! D79   D(32,25,28,29)        178.444                                          !
 ! D80   D(32,25,28,30)         53.5383                                         !
 ! D81   D(32,25,28,33)        -62.8745                                         !
 ! D82   D(25,26,40,41)       -145.5334                                         !
 ! D83   D(25,26,40,52)         -7.05                                           !
 ! D84   D(27,26,40,41)         33.7426                                         !
 ! D85   D(27,26,40,52)        172.226                                          !
 ! D86   D(25,28,29,34)         56.6156                                         !
 ! D87   D(25,28,29,35)        175.9795                                         !
 ! D88   D(25,28,29,36)        -64.6199                                         !
 ! D89   D(30,28,29,34)       -178.9218                                         !
 ! D90   D(30,28,29,35)        -59.5579                                         !
 ! D91   D(30,28,29,36)         59.8428                                         !
 ! D92   D(33,28,29,34)        -60.5045                                         !
 ! D93   D(33,28,29,35)         58.8594                                         !
 ! D94   D(33,28,29,36)        178.26                                           !
 ! D95   D(25,28,30,37)         64.2378                                         !
 ! D96   D(25,28,30,38)        -55.9605                                         !
 ! D97   D(25,28,30,39)       -176.005                                          !
 ! D98   D(29,28,30,37)        -62.1883                                         !
 ! D99   D(29,28,30,38)        177.6133                                         !
 ! D100  D(29,28,30,39)         57.5688                                         !
 ! D101  D(33,28,30,37)        179.1769                                         !
 ! D102  D(33,28,30,38)         58.9785                                         !
 ! D103  D(33,28,30,39)        -61.066                                          !
 ! D104  D(26,40,41,42)        102.2097                                         !
 ! D105  D(26,40,41,44)       -127.9224                                         !
 ! D106  D(26,40,41,53)        -11.1372                                         !
 ! D107  D(52,40,41,42)        -37.7685                                         !
 ! D108  D(52,40,41,44)         92.0994                                         !
 ! D109  D(52,40,41,53)       -151.1154                                         !
 ! D110  D(40,41,42,43)       -133.9181                                         !
 ! D111  D(40,41,42,51)         42.1145                                         !
 ! D112  D(44,41,42,43)         96.6076                                         !
 ! D113  D(44,41,42,51)        -87.3598                                         !
 ! D114  D(53,41,42,43)        -23.3032                                         !
 ! D115  D(53,41,42,51)        152.7294                                         !
 ! D116  D(40,41,44,45)        177.7787                                         !
 ! D117  D(40,41,44,54)         55.5747                                         !
 ! D118  D(40,41,44,55)        -59.5682                                         !
 ! D119  D(42,41,44,45)        -55.8023                                         !
 ! D120  D(42,41,44,54)       -178.0063                                         !
 ! D121  D(42,41,44,55)         66.8508                                         !
 ! D122  D(53,41,44,45)         63.7481                                         !
 ! D123  D(53,41,44,54)        -58.4558                                         !
 ! D124  D(53,41,44,55)       -173.5987                                         !
 ! D125  D(41,44,45,46)        -39.9322                                         !
 ! D126  D(41,44,45,56)       -164.2781                                         !
 ! D127  D(41,44,45,57)         80.8056                                         !
 ! D128  D(54,44,45,46)         80.4082                                         !
 ! D129  D(54,44,45,56)        -43.9377                                         !
 ! D130  D(54,44,45,57)       -158.854                                          !
 ! D131  D(55,44,45,46)       -163.4737                                         !
 ! D132  D(55,44,45,56)         72.1804                                         !
 ! D133  D(55,44,45,57)        -42.736                                          !
 ! D134  D(44,45,46,47)        -39.152                                          !
 ! D135  D(44,45,46,58)       -160.3704                                         !
 ! D136  D(44,45,46,59)         82.0388                                         !
 ! D137  D(56,45,46,47)         84.3727                                         !
 ! D138  D(56,45,46,58)        -36.8457                                         !
 ! D139  D(56,45,46,59)       -154.4365                                         !
 ! D140  D(57,45,46,47)       -162.0816                                         !
 ! D141  D(57,45,46,58)         76.7                                            !
 ! D142  D(57,45,46,59)        -40.8908                                         !
 ! D143  D(45,46,47,48)        111.594                                          !
 ! D144  D(45,46,47,60)        -55.2705                                         !
 ! D145  D(58,46,47,48)       -126.257                                          !
 ! D146  D(58,46,47,60)         66.8785                                         !
 ! D147  D(59,46,47,48)        -10.5506                                         !
 ! D148  D(59,46,47,60)       -177.4151                                         !
 ! D149  D(46,47,48,49)          4.3509                                         !
 ! D150  D(46,47,48,50)       -177.5546                                         !
 ! D151  D(60,47,48,49)        171.2139                                         !
 ! D152  D(60,47,48,50)        -10.6916                                         !
 ! D153  D(47,48,49,61)        179.3732                                         !
 ! D154  D(47,48,49,62)        -30.1484                                         !
 ! D155  D(50,48,49,61)          1.2498                                         !
 ! D156  D(50,48,49,62)        151.7282                                         !
 ! D157  D(47,48,50,63)        135.2101                                         !
 ! D158  D(47,48,50,64)         -1.0565                                         !
 ! D159  D(49,48,50,63)        -46.6262                                         !
 ! D160  D(49,48,50,64)        177.1072                                         !
 --------------------------------------------------------------------------------
 Symmetry turned off by external request.
 Stoichiometry    C20H33N6O5(1+)
 Framework group  C1[X(C20H33N6O5)]
 Deg. of freedom   186
 Full point group                 C1      NOp   1
                          Input orientation:                          
 ---------------------------------------------------------------------
 Center     Atomic      Atomic             Coordinates (Angstroms)
 Number     Number       Type             X           Y           Z
 ---------------------------------------------------------------------
      1          7           0       34.912355  -32.157780   44.405123
      2          6           0       34.544575  -30.803116   44.938992
      3          6           0       34.950082  -29.829952   43.810128
      4          8           0       35.927114  -30.101081   43.112682
      5          6           0       33.059583  -30.795860   45.356156
      6          6           0       32.706998  -31.968741   46.245321
      7          6           0       32.182552  -33.146773   45.686239
      8          6           0       32.944808  -31.933988   47.624518
      9          6           0       31.903531  -34.255069   46.478586
     10          6           0       32.666212  -33.036331   48.430378
     11          6           0       32.142965  -34.203878   47.858648
     12          8           0       31.846865  -35.317391   48.578239
     13          1           0       34.860368  -32.877255   45.129004
     14          1           0       35.182482  -30.608458   45.808473
     15          1           0       32.863284  -29.852798   45.881314
     16          1           0       32.448028  -30.817346   44.448788
     17          1           0       31.987839  -33.190489   44.616533
     18          1           0       33.341696  -31.031005   48.083963
     19          1           0       31.490261  -35.163632   46.053331
     20          1           0       32.846997  -32.988196   49.501875
     21          1           0       32.023840  -35.163838   49.519812
     22          1           0       34.214183  -32.373442   43.581446
     23          1           0       35.843961  -32.116075   43.976081
     24          7           0       34.186253  -28.732217   43.608498
     25          6           0       34.425272  -27.859518   42.449983
     26          6           0       34.421671  -28.694362   41.148571
     27          8           0       35.252664  -28.481500   40.268374
     28          6           0       33.433774  -26.670914   42.441317
     29          6           0       31.962648  -27.099496   42.313286
     30          6           0       33.812410  -25.678069   41.333015
     31          1           0       33.385117  -28.554839   44.197484
     32          1           0       35.445770  -27.472057   42.515351
     33          1           0       33.565324  -26.166542   43.409858
     34          1           0       31.646073  -27.796716   43.100365
     35          1           0       31.311770  -26.222813   42.385089
     36          1           0       31.775373  -27.580900   41.347787
     37          1           0       33.713174  -26.135117   40.342686
     38          1           0       34.846465  -25.333877   41.439592
     39          1           0       33.156147  -24.803089   41.370899
     40          7           0       33.462681  -29.669372   41.058396
     41          6           0       33.812355  -30.902815   40.353662
     42          6           0       34.108822  -31.993263   41.403243
     43          8           0       35.132727  -32.703494   41.256492
     44          6           0       32.822222  -31.307773   39.257556
     45          6           0       33.210074  -32.581196   38.469524
     46          6           0       34.701041  -32.783106   38.099081
     47          7           0       35.396931  -31.549204   37.692966
     48          6           0       36.366556  -30.923347   38.373982
     49          7           0       36.875102  -31.426850   39.500028
     50          7           0       36.885086  -29.758933   37.897293
     51          8           0       33.316839  -32.040740   42.402166
     52          1           0       32.908750  -29.837403   41.890474
     53          1           0       34.746323  -30.656176   39.879197
     54          1           0       32.741996  -30.452700   38.574953
     55          1           0       31.825418  -31.457250   39.687803
     56          1           0       32.602414  -32.606697   37.557253
     57          1           0       32.929254  -33.471655   39.044124
     58          1           0       34.780825  -33.500552   37.276376
     59          1           0       35.234533  -33.202815   38.948873
     60          1           0       34.978997  -31.030378   36.931395
     61          1           0       37.611017  -30.893148   39.944023
     62          1           0       36.301482  -32.017342   40.141733
     63          1           0       36.998780  -29.033725   38.600047
     64          1           0       36.525308  -29.406470   37.019599
 ---------------------------------------------------------------------
 Rotational constants (GHZ):           0.2165696           0.0847361           0.0698348
 Standard basis: 6-31G(d) (6D, 7F)
   531 basis functions,  1000 primitive gaussians,   531 cartesian basis functions
   117 alpha electrons      117 beta electrons
       nuclear repulsion energy      3424.6152224615 Hartrees.
 NAtoms=   64 NActive=   64 NUniq=   64 SFac= 1.00D+00 NAtFMM=   60 NAOKFM=T Big=T
 Integral buffers will be    131072 words long.
 Raffenetti 2 integral format.
 Two-electron integral symmetry is turned off.
 Nuclear repulsion after empirical dispersion term =     3424.5248497123 Hartrees.
 One-electron integrals computed using PRISM.
 NBasis=   531 RedAO= T EigKep=  4.34D-04  NBF=   531
 NBsUse=   531 1.00D-06 EigRej= -1.00D+00 NBFU=   531
 Initial guess from the checkpoint file:  "conf-123.chk"
 B after Tr=     0.000000    0.000000    0.000000
         Rot=    1.000000    0.000000    0.000000    0.000000 Ang=   0.00 deg.
 Requested convergence on RMS density matrix=1.00D-08 within 128 cycles.
 Requested convergence on MAX density matrix=1.00D-06.
 Requested convergence on             energy=1.00D-06.
 No special actions if energy rises.
 SCF Done:  E(RB3LYP) =  -1486.59060222     A.U. after    3 cycles
            NFock=  3  Conv=0.10D-08     -V/T= 2.0094

 **********************************************************************

            Population analysis using the SCF Density.

 **********************************************************************

 Alpha  occ. eigenvalues --  -19.26207 -19.24065 -19.22010 -19.21247 -19.20788
 Alpha  occ. eigenvalues --  -14.53005 -14.50624 -14.48850 -14.48528 -14.47773
 Alpha  occ. eigenvalues --  -14.45151 -10.45630 -10.41433 -10.38883 -10.38364
 Alpha  occ. eigenvalues --  -10.37240 -10.33994 -10.33757 -10.33712 -10.31526
 Alpha  occ. eigenvalues --  -10.31284 -10.30041 -10.29413 -10.29042 -10.28809
 Alpha  occ. eigenvalues --  -10.28777 -10.28364 -10.28078 -10.27439 -10.27355
 Alpha  occ. eigenvalues --  -10.26298  -1.16529  -1.14516  -1.14447  -1.14036
 Alpha  occ. eigenvalues --   -1.13365  -1.08524  -1.05328  -1.04811  -1.03914
 Alpha  occ. eigenvalues --   -1.01754  -1.01461  -0.94987  -0.91454  -0.89851
 Alpha  occ. eigenvalues --   -0.89269  -0.84761  -0.83990  -0.83764  -0.80745
 Alpha  occ. eigenvalues --   -0.78250  -0.77784  -0.76455  -0.75729  -0.71885
 Alpha  occ. eigenvalues --   -0.71572  -0.71234  -0.70413  -0.69365  -0.68368
 Alpha  occ. eigenvalues --   -0.68088  -0.67394  -0.66926  -0.66484  -0.64501
 Alpha  occ. eigenvalues --   -0.63292  -0.62920  -0.62354  -0.61451  -0.59199
 Alpha  occ. eigenvalues --   -0.58737  -0.58327  -0.58175  -0.57743  -0.56924
 Alpha  occ. eigenvalues --   -0.56611  -0.55991  -0.55533  -0.54624  -0.54119
 Alpha  occ. eigenvalues --   -0.53187  -0.52860  -0.52851  -0.52446  -0.51946
 Alpha  occ. eigenvalues --   -0.51572  -0.51328  -0.51115  -0.49924  -0.49290
 Alpha  occ. eigenvalues --   -0.49257  -0.48972  -0.48536  -0.48155  -0.47530
 Alpha  occ. eigenvalues --   -0.47093  -0.46338  -0.45687  -0.45306  -0.44129
 Alpha  occ. eigenvalues --   -0.44005  -0.43766  -0.43087  -0.42990  -0.42649
 Alpha  occ. eigenvalues --   -0.42130  -0.40421  -0.38892  -0.38745  -0.38089
 Alpha  occ. eigenvalues --   -0.37549  -0.36569  -0.36005  -0.34760  -0.34506
 Alpha  occ. eigenvalues --   -0.33456  -0.30943
 Alpha virt. eigenvalues --   -0.11043  -0.10933  -0.09662  -0.08905  -0.08491
 Alpha virt. eigenvalues --   -0.06676  -0.05533  -0.04308  -0.03017  -0.01192
 Alpha virt. eigenvalues --   -0.00912  -0.00809  -0.00343  -0.00058   0.01017
 Alpha virt. eigenvalues --    0.01418   0.01600   0.02131   0.02299   0.03276
 Alpha virt. eigenvalues --    0.03933   0.04413   0.04886   0.05458   0.05676
 Alpha virt. eigenvalues --    0.05864   0.06063   0.06164   0.06627   0.06954
 Alpha virt. eigenvalues --    0.07058   0.07663   0.08387   0.08757   0.08840
 Alpha virt. eigenvalues --    0.09269   0.09805   0.10477   0.11006   0.11170
 Alpha virt. eigenvalues --    0.11602   0.11935   0.12242   0.12760   0.13071
 Alpha virt. eigenvalues --    0.13783   0.14101   0.14630   0.15707   0.16063
 Alpha virt. eigenvalues --    0.16284   0.16580   0.17569   0.17637   0.18783
 Alpha virt. eigenvalues --    0.20044   0.20706   0.22791   0.24590   0.24905
 Alpha virt. eigenvalues --    0.25185   0.25692   0.26265   0.26785   0.27974
 Alpha virt. eigenvalues --    0.30639   0.31147   0.31342   0.34519   0.38019
 Alpha virt. eigenvalues --    0.38417   0.39288   0.39525   0.40167   0.41527
 Alpha virt. eigenvalues --    0.41555   0.42115   0.42351   0.42978   0.43177
 Alpha virt. eigenvalues --    0.43687   0.44077   0.44710   0.44981   0.45392
 Alpha virt. eigenvalues --    0.45825   0.46317   0.47172   0.47917   0.48177
 Alpha virt. eigenvalues --    0.48845   0.49267   0.49372   0.49888   0.51027
 Alpha virt. eigenvalues --    0.51506   0.52075   0.52353   0.52623   0.52828
 Alpha virt. eigenvalues --    0.53201   0.53618   0.54100   0.54852   0.55543
 Alpha virt. eigenvalues --    0.56010   0.56243   0.56319   0.57352   0.57641
 Alpha virt. eigenvalues --    0.58323   0.59851   0.59946   0.60708   0.61044
 Alpha virt. eigenvalues --    0.61305   0.62584   0.62937   0.64522   0.64731
 Alpha virt. eigenvalues --    0.65677   0.66661   0.67000   0.67331   0.68318
 Alpha virt. eigenvalues --    0.68578   0.69663   0.70373   0.70470   0.71521
 Alpha virt. eigenvalues --    0.71917   0.72335   0.72645   0.73291   0.73528
 Alpha virt. eigenvalues --    0.74580   0.74920   0.75223   0.75470   0.75660
 Alpha virt. eigenvalues --    0.76195   0.76448   0.77133   0.77589   0.77825
 Alpha virt. eigenvalues --    0.78255   0.78734   0.79201   0.79571   0.79826
 Alpha virt. eigenvalues --    0.80674   0.80925   0.81596   0.81884   0.82343
 Alpha virt. eigenvalues --    0.83054   0.83213   0.84147   0.84415   0.84719
 Alpha virt. eigenvalues --    0.85223   0.85878   0.86500   0.86813   0.87466
 Alpha virt. eigenvalues --    0.88059   0.88116   0.88698   0.89492   0.89707
 Alpha virt. eigenvalues --    0.90292   0.90972   0.92289   0.92672   0.93948
 Alpha virt. eigenvalues --    0.94338   0.94842   0.95542   0.96489   0.97156
 Alpha virt. eigenvalues --    0.98502   0.99155   1.00055   1.00214   1.02395
 Alpha virt. eigenvalues --    1.03229   1.04520   1.05124   1.06509   1.06681
 Alpha virt. eigenvalues --    1.08596   1.08967   1.09773   1.10861   1.11746
 Alpha virt. eigenvalues --    1.12837   1.13800   1.14107   1.14815   1.15641
 Alpha virt. eigenvalues --    1.17518   1.18530   1.18903   1.19766   1.21397
 Alpha virt. eigenvalues --    1.22640   1.22959   1.24378   1.24893   1.25903
 Alpha virt. eigenvalues --    1.27739   1.28213   1.28339   1.29702   1.31195
 Alpha virt. eigenvalues --    1.32794   1.33716   1.34784   1.35607   1.35710
 Alpha virt. eigenvalues --    1.36484   1.37230   1.37987   1.39019   1.39301
 Alpha virt. eigenvalues --    1.41005   1.41870   1.42341   1.43304   1.44165
 Alpha virt. eigenvalues --    1.45216   1.46211   1.46657   1.50411   1.50888
 Alpha virt. eigenvalues --    1.52419   1.54108   1.55094   1.55930   1.58684
 Alpha virt. eigenvalues --    1.59733   1.61149   1.62342   1.63904   1.64361
 Alpha virt. eigenvalues --    1.64905   1.65252   1.65575   1.66299   1.66873
 Alpha virt. eigenvalues --    1.67391   1.68103   1.68398   1.69021   1.69566
 Alpha virt. eigenvalues --    1.71187   1.71454   1.71880   1.73094   1.74161
 Alpha virt. eigenvalues --    1.75174   1.75683   1.75806   1.76955   1.77362
 Alpha virt. eigenvalues --    1.77761   1.78529   1.78864   1.79912   1.80877
 Alpha virt. eigenvalues --    1.82278   1.82805   1.83310   1.84231   1.84938
 Alpha virt. eigenvalues --    1.85501   1.86366   1.86565   1.87337   1.88461
 Alpha virt. eigenvalues --    1.88913   1.89370   1.89499   1.90157   1.90751
 Alpha virt. eigenvalues --    1.91844   1.93268   1.93727   1.95399   1.96411
 Alpha virt. eigenvalues --    1.97155   1.98128   1.98273   1.98637   1.99555
 Alpha virt. eigenvalues --    1.99999   2.00964   2.01745   2.03206   2.03539
 Alpha virt. eigenvalues --    2.04152   2.04861   2.05712   2.06317   2.07221
 Alpha virt. eigenvalues --    2.08831   2.09461   2.12148   2.14729   2.15830
 Alpha virt. eigenvalues --    2.16656   2.17262   2.17429   2.18030   2.18489
 Alpha virt. eigenvalues --    2.18937   2.19847   2.20497   2.21816   2.22159
 Alpha virt. eigenvalues --    2.22825   2.25383   2.25778   2.26143   2.27190
 Alpha virt. eigenvalues --    2.28232   2.29635   2.30321   2.31787   2.31891
 Alpha virt. eigenvalues --    2.33079   2.33736   2.34079   2.35071   2.37140
 Alpha virt. eigenvalues --    2.38084   2.40806   2.40927   2.41866   2.42461
 Alpha virt. eigenvalues --    2.43939   2.44897   2.47299   2.48460   2.48967
 Alpha virt. eigenvalues --    2.49125   2.50479   2.51355   2.52276   2.53199
 Alpha virt. eigenvalues --    2.53609   2.54630   2.55889   2.56616   2.57319
 Alpha virt. eigenvalues --    2.59278   2.60228   2.60938   2.63617   2.64780
 Alpha virt. eigenvalues --    2.65121   2.66773   2.67987   2.69774   2.70173
 Alpha virt. eigenvalues --    2.73855   2.76195   2.77533   2.80007   2.84111
 Alpha virt. eigenvalues --    2.86420   2.87634   2.87724   2.91217   2.92566
 Alpha virt. eigenvalues --    2.93344   2.94575   2.96761   3.01587   3.03098
 Alpha virt. eigenvalues --    3.07205   3.07790   3.32334   3.69188   3.76287
 Alpha virt. eigenvalues --    3.82375   3.85959   3.87618   3.89994   3.94435
 Alpha virt. eigenvalues --    3.99532   4.01726   4.03871   4.04804   4.07198
 Alpha virt. eigenvalues --    4.11319   4.12923   4.15573   4.19687   4.22495
 Alpha virt. eigenvalues --    4.22566   4.25413   4.27986   4.30369   4.32033
 Alpha virt. eigenvalues --    4.35136   4.38960   4.40074   4.49157   4.54531
 Alpha virt. eigenvalues --    4.57734   4.63212   4.66286   4.72555
          Condensed to atoms (all electrons):
 Mulliken charges:
               1
     1  N   -0.764921
     2  C   -0.096841
     3  C    0.657402
     4  O   -0.535404
     5  C   -0.399026
     6  C    0.121777
     7  C   -0.220194
     8  C   -0.189965
     9  C   -0.156087
    10  C   -0.189388
    11  C    0.358881
    12  O   -0.624626
    13  H    0.394048
    14  H    0.209317
    15  H    0.167572
    16  H    0.197862
    17  H    0.168575
    18  H    0.137542
    19  H    0.165962
    20  H    0.144642
    21  H    0.419632
    22  H    0.451844
    23  H    0.406589
    24  N   -0.653266
    25  C   -0.006287
    26  C    0.615410
    27  O   -0.554831
    28  C   -0.127333
    29  C   -0.472200
    30  C   -0.451234
    31  H    0.353615
    32  H    0.193898
    33  H    0.151798
    34  H    0.128259
    35  H    0.177494
    36  H    0.171678
    37  H    0.164942
    38  H    0.160846
    39  H    0.165472
    40  N   -0.587809
    41  C   -0.064905
    42  C    0.642804
    43  O   -0.582852
    44  C   -0.266358
    45  C   -0.299898
    46  C   -0.179044
    47  N   -0.568033
    48  C    0.723065
    49  N   -0.743881
    50  N   -0.741174
    51  O   -0.636658
    52  H    0.339544
    53  H    0.158580
    54  H    0.146467
    55  H    0.169696
    56  H    0.162703
    57  H    0.183528
    58  H    0.190385
    59  H    0.215056
    60  H    0.352437
    61  H    0.369971
    62  H    0.424465
    63  H    0.391683
    64  H    0.356773
 Sum of Mulliken charges =   1.00000
 Mulliken charges with hydrogens summed into heavy atoms:
               1
     1  N    0.487561
     2  C    0.112476
     3  C    0.657402
     4  O   -0.535404
     5  C   -0.033592
     6  C    0.121777
     7  C   -0.051619
     8  C   -0.052424
     9  C    0.009875
    10  C   -0.044746
    11  C    0.358881
    12  O   -0.204995
    24  N   -0.299650
    25  C    0.187611
    26  C    0.615410
    27  O   -0.554831
    28  C    0.024465
    29  C    0.005231
    30  C    0.040027
    40  N   -0.248265
    41  C    0.093675
    42  C    0.642804
    43  O   -0.582852
    44  C    0.049804
    45  C    0.046333
    46  C    0.226398
    47  N   -0.215596
    48  C    0.723065
    49  N    0.050555
    50  N    0.007282
    51  O   -0.636658
 Electronic spatial extent (au):  <R**2>=        3290950.2042
 Charge=              1.0000 electrons
 Dipole moment (field-independent basis, Debye):
    X=            165.8711    Y=           -146.4022    Z=            202.4393  Tot=            299.8808
 Quadrupole moment (field-independent basis, Debye-Ang):
   XX=           5556.3262   YY=           4304.3249   ZZ=           8466.4077
   XY=          -5058.0873   XZ=           6977.4127   YZ=          -6182.3108
 Traceless Quadrupole moment (field-independent basis, Debye-Ang):
   XX=           -552.6934   YY=          -1804.6947   ZZ=           2357.3881
   XY=          -5058.0873   XZ=           6977.4127   YZ=          -6182.3108
 Octapole moment (field-independent basis, Debye-Ang**2):
  XXX=         180353.0519  YYY=        -121317.4912  ZZZ=         351185.2887  XYY=         148863.6872
  XXY=        -169436.1078  XXZ=         233150.2298  XZZ=         291305.5612  YZZ=        -259161.6261
  YYZ=         182107.6297  XYZ=        -213189.2516
 Hexadecapole moment (field-independent basis, Debye-Ang**3):
 XXXX=        5645831.0630 YYYY=        3228922.4310 ZZZZ=       14430699.0168 XXXY=       -5497604.2075
 XXXZ=        7544555.7546 YYYX=       -4203820.4052 YYYZ=       -5141959.1702 ZZZX=       12065387.0003
 ZZZY=      -10780024.7516 XXYY=        4982394.1427 XXZZ=        9707202.4920 YYZZ=        7647083.1508
 XXYZ=       -7124024.9176 YYXZ=        6286455.3457 ZZXY=       -8921730.0266
 N-N= 3.424524849712D+03 E-N=-1.028683728149D+04  KE= 1.472718315927D+03
 Unable to Open any file for archive entry.
 1\1\GINC-AMR-012\SP\RB3LYP\6-31G(d)\C20H33N6O5(1+)\KENGMITH\31-May-202
 2\0\\# B3LYP/6-31G* empiricaldispersion=gd3 guess=read geom=check nosy
 mm integral(ultrafinegrid)\\Candidate Structure: Conf:123 Charge calc 
 in gas phase\\1,1\N,0,34.9123551118,-32.157780304,44.4051234463\C,0,34
 .5445751813,-30.8031160923,44.9389918824\C,0,34.9500815169,-29.8299515
 764,43.8101282137\O,0,35.9271138347,-30.1010805719,43.1126815595\C,0,3
 3.0595828776,-30.7958602396,45.3561557825\C,0,32.7069980621,-31.968740
 6278,46.2453210233\C,0,32.1825520263,-33.1467731718,45.6862390259\C,0,
 32.9448075821,-31.9339882263,47.6245184074\C,0,31.9035307632,-34.25506
 86515,46.478586453\C,0,32.6662118656,-33.0363305574,48.430378112\C,0,3
 2.142965098,-34.203877957,47.8586484311\O,0,31.8468650542,-35.31739088
 77,48.5782386335\H,0,34.8603681211,-32.8772547185,45.1290038062\H,0,35
 .1824822511,-30.6084577803,45.8084727138\H,0,32.8632842681,-29.8527978
 648,45.8813144721\H,0,32.4480280035,-30.8173455981,44.4487878087\H,0,3
 1.9878385698,-33.190488922,44.6165332775\H,0,33.3416955077,-31.0310046
 117,48.0839630528\H,0,31.4902614429,-35.1636324264,46.0533308537\H,0,3
 2.8469974788,-32.988196317,49.5018753743\H,0,32.0238400229,-35.1638379
 255,49.5198124452\H,0,34.2141825568,-32.3734419691,43.5814458942\H,0,3
 5.8439609195,-32.1160751282,43.9760808766\N,0,34.1862526682,-28.732217
 345,43.6084977422\C,0,34.4252715639,-27.8595176475,42.4499827367\C,0,3
 4.4216714271,-28.6943624263,41.1485705251\O,0,35.2526636271,-28.481500
 2201,40.2683737144\C,0,33.433773555,-26.6709143797,42.4413168292\C,0,3
 1.9626482753,-27.0994958386,42.3132862045\C,0,33.8124103524,-25.678068
 6482,41.333014989\H,0,33.3851168277,-28.5548387049,44.1974840506\H,0,3
 5.4457697072,-27.4720572562,42.5153505665\H,0,33.5653238447,-26.166542
 0972,43.4098577453\H,0,31.646073338,-27.7967156774,43.1003650415\H,0,3
 1.3117695507,-26.2228133654,42.3850889345\H,0,31.7753725325,-27.580900
 1416,41.3477866078\H,0,33.7131735954,-26.1351168042,40.3426858687\H,0,
 34.8464651252,-25.3338774658,41.4395922677\H,0,33.1561469249,-24.80308
 92905,41.3708991489\N,0,33.4626806363,-29.66937198,41.0583956351\C,0,3
 3.8123551676,-30.9028149193,40.3536619753\C,0,34.1088223863,-31.993262
 6476,41.4032434982\O,0,35.1327271423,-32.7034936756,41.2564924939\C,0,
 32.8222217408,-31.3077728364,39.2575561885\C,0,33.2100741217,-32.58119
 5508,38.469523514\C,0,34.7010411279,-32.78310619,38.0990810074\N,0,35.
 3969306217,-31.5492040653,37.692966473\C,0,36.3665564994,-30.923346884
 5,38.3739823562\N,0,36.8751016236,-31.426850211,39.5000281673\N,0,36.8
 850861291,-29.7589330633,37.8972932549\O,0,33.3168390323,-32.040740072
 9,42.402166397\H,0,32.9087501687,-29.8374025011,41.8904736188\H,0,34.7
 463230559,-30.6561759416,39.8791965746\H,0,32.7419957135,-30.452699615
 9,38.57495263\H,0,31.8254175138,-31.4572497474,39.6878028\H,0,32.60241
 41558,-32.6066974294,37.5572527414\H,0,32.9292540169,-33.4716551796,39
 .044124309\H,0,34.7808248694,-33.500551845,37.2763759778\H,0,35.234532
 7825,-33.2028154891,38.948872795\H,0,34.9789965395,-31.0303780992,36.9
 313951653\H,0,37.6110170882,-30.8931477114,39.9440230905\H,0,36.301481
 5278,-32.0173423293,40.141733254\H,0,36.9987801677,-29.0337249364,38.6
 000471098\H,0,36.52530751,-29.4064701269,37.0195993049\\Version=ES64L-
 G16RevC.01\HF=-1486.5906022\RMSD=1.048e-09\Dipole=0.9996732,0.7398908,
 -0.7578195\Quadrupole=-410.9139956,-1341.7462783,1752.6602739,-3760.56
 39346,5187.5352998,-4596.3965872\PG=C01 [X(C20H33N6O5)]\\@
 The archive entry for this job was punched.


 ERWIN WITH HIS PSI CAN DO
 CALCULATIONS QUITE A FEW.
 BUT ONE THING HAS NOT BEEN SEEN
 JUST WHAT DOES PSI REALLY MEAN.
 -- WALTER HUCKEL, TRANS. BY FELIX BLOCH
 Job cpu time:       0 days  0 hours  2 minutes 34.6 seconds.
 Elapsed time:       0 days  0 hours  0 minutes 39.1 seconds.
 File lengths (MBytes):  RWF=    264 Int=      0 D2E=      0 Chk=     40 Scr=     16
 Normal termination of Gaussian 16 at Tue May 31 11:32:11 2022.
