 Entering Gaussian System, Link 0=/opt/software/Gaussian/g16-AVX2-C.01/g16/g16
 Input=charge-conf-727.com
 Output=charge-conf-727.log
 Initial command:
 /opt/software/Gaussian/g16-AVX2-C.01/g16/l1.exe "/mnt/gs18/scratch/users/kengmith/Gau-10445.inp" -scrdir="/mnt/gs18/scratch/users/kengmith/"
 Entering Link 1 = /opt/software/Gaussian/g16-AVX2-C.01/g16/l1.exe PID=     10455.
  
 Copyright (c) 1988-2019, Gaussian, Inc.  All Rights Reserved.
  
 This is part of the Gaussian(R) 16 program.  It is based on
 the Gaussian(R) 09 system (copyright 2009, Gaussian, Inc.),
 the Gaussian(R) 03 system (copyright 2003, Gaussian, Inc.),
 the Gaussian(R) 98 system (copyright 1998, Gaussian, Inc.),
 the Gaussian(R) 94 system (copyright 1995, Gaussian, Inc.),
 the Gaussian 92(TM) system (copyright 1992, Gaussian, Inc.),
 the Gaussian 90(TM) system (copyright 1990, Gaussian, Inc.),
 the Gaussian 88(TM) system (copyright 1988, Gaussian, Inc.),
 the Gaussian 86(TM) system (copyright 1986, Carnegie Mellon
 University), and the Gaussian 82(TM) system (copyright 1983,
 Carnegie Mellon University). Gaussian is a federally registered
 trademark of Gaussian, Inc.
  
 This software contains proprietary and confidential information,
 including trade secrets, belonging to Gaussian, Inc.
  
 This software is provided under written license and may be
 used, copied, transmitted, or stored only in accord with that
 written license.
  
 The following legend is applicable only to US Government
 contracts under FAR:
  
                    RESTRICTED RIGHTS LEGEND
  
 Use, reproduction and disclosure by the US Government is
 subject to restrictions as set forth in subparagraphs (a)
 and (c) of the Commercial Computer Software - Restricted
 Rights clause in FAR 52.227-19.
  
 Gaussian, Inc.
 340 Quinnipiac St., Bldg. 40, Wallingford CT 06492
  
  
 ---------------------------------------------------------------
 Warning -- This program may not be used in any manner that
 competes with the business of Gaussian, Inc. or will provide
 assistance to any competitor of Gaussian, Inc.  The licensee
 of this program is prohibited from giving any competitor of
 Gaussian, Inc. access to this program.  By using this program,
 the user acknowledges that Gaussian, Inc. is engaged in the
 business of creating and licensing software in the field of
 computational chemistry and represents and warrants to the
 licensee that it is not a competitor of Gaussian, Inc. and that
 it will not use this program in any manner prohibited above.
 ---------------------------------------------------------------
  

 Cite this work as:
 Gaussian 16, Revision C.01,
 M. J. Frisch, G. W. Trucks, H. B. Schlegel, G. E. Scuseria, 
 M. A. Robb, J. R. Cheeseman, G. Scalmani, V. Barone, 
 G. A. Petersson, H. Nakatsuji, X. Li, M. Caricato, A. V. Marenich, 
 J. Bloino, B. G. Janesko, R. Gomperts, B. Mennucci, H. P. Hratchian, 
 J. V. Ortiz, A. F. Izmaylov, J. L. Sonnenberg, D. Williams-Young, 
 F. Ding, F. Lipparini, F. Egidi, J. Goings, B. Peng, A. Petrone, 
 T. Henderson, D. Ranasinghe, V. G. Zakrzewski, J. Gao, N. Rega, 
 G. Zheng, W. Liang, M. Hada, M. Ehara, K. Toyota, R. Fukuda, 
 J. Hasegawa, M. Ishida, T. Nakajima, Y. Honda, O. Kitao, H. Nakai, 
 T. Vreven, K. Throssell, J. A. Montgomery, Jr., J. E. Peralta, 
 F. Ogliaro, M. J. Bearpark, J. J. Heyd, E. N. Brothers, K. N. Kudin, 
 V. N. Staroverov, T. A. Keith, R. Kobayashi, J. Normand, 
 K. Raghavachari, A. P. Rendell, J. C. Burant, S. S. Iyengar, 
 J. Tomasi, M. Cossi, J. M. Millam, M. Klene, C. Adamo, R. Cammi, 
 J. W. Ochterski, R. L. Martin, K. Morokuma, O. Farkas, 
 J. B. Foresman, and D. J. Fox, Gaussian, Inc., Wallingford CT, 2019.
 
 ******************************************
 Gaussian 16:  ES64L-G16RevC.01  3-Jul-2019
                31-May-2022 
 ******************************************
 %mem=8gb
 %nproc=4
 Will use up to    4 processors via shared memory.
 %chk=conf-727.chk
 ----------------------------------------------------------------------
 # B3LYP/6-31G* empiricaldispersion=gd3 guess=read geom=check nosymm in
 tegral(ultrafinegrid)
 ----------------------------------------------------------------------
 1/29=2,38=1,172=1/1;
 2/12=2,15=1,40=1/2;
 3/5=1,6=6,7=1,11=2,14=-4,25=1,30=1,74=-5,75=-5,116=-2,124=31/1,2,3;
 4/5=1/1;
 5/5=2,38=6/2;
 6/7=2,8=2,9=2,10=2,28=1/1;
 99/5=1,9=1/99;
 ------------------------------------------------------
 Candidate Structure: Conf:727 Charge calc in gas phase
 ------------------------------------------------------
 Structure from the checkpoint file:  "conf-727.chk"
 Charge =  1 Multiplicity = 1
 Redundant internal coordinates found in file.  (old form).
 N,0,32.9805340363,-28.5539411865,43.7249618971
 C,0,32.0192263129,-29.2717877838,42.8206100742
 C,0,32.8482302681,-29.6718030462,41.5855124035
 O,0,33.806139344,-28.9799254563,41.2486915415
 C,0,31.3021590018,-30.4163965735,43.5699595897
 C,0,30.827917709,-29.9964214736,44.9439624781
 C,0,31.6016621797,-30.3076154358,46.0717896152
 C,0,29.653404863,-29.2480055081,45.1196867163
 C,0,31.2084667207,-29.8885196464,47.3426502796
 C,0,29.2517185396,-28.8264288956,46.3819962826
 C,0,30.0303503586,-29.1485118611,47.5027135346
 O,0,29.584849323,-28.7085603909,48.7102790701
 H,0,33.8901247909,-29.1754683995,44.0066345626
 H,0,31.2780393437,-28.5289338492,42.5005730858
 H,0,30.447898737,-30.7230844273,42.9522644474
 H,0,31.9928753458,-31.2568646516,43.6661782526
 H,0,32.5156768902,-30.8833442285,45.9429876365
 H,0,29.0341462779,-29.0041766618,44.2584335559
 H,0,31.8132724605,-30.1436386765,48.2103593343
 H,0,28.338426966,-28.2586745334,46.5260901983
 H,0,30.1782464382,-29.0168149788,49.4132296119
 H,0,33.3748303203,-27.7519342748,43.2270800644
 H,0,32.4938152387,-28.2474902804,44.5719163392
 N,0,32.4961595353,-30.7996324383,40.915584302
 C,0,33.3554992521,-31.2976922416,39.8369094673
 C,0,34.792436964,-31.4896929844,40.3676414116
 O,0,35.7604283871,-31.1087541222,39.6841711914
 C,0,32.7525152388,-32.5568668981,39.1673008049
 C,0,32.6047725575,-33.7572429839,40.11674967
 C,0,33.5762529937,-32.9400713915,37.9294499461
 H,0,31.7428711753,-31.3798603229,41.2567590549
 H,0,33.4523539779,-30.5099904217,39.0847627431
 H,0,31.7498073337,-32.2564685685,38.8318640306
 H,0,32.0242782194,-33.5288079439,41.0200078786
 H,0,32.0858791588,-34.5732302284,39.6047506062
 H,0,33.5832609931,-34.1338540788,40.4342819984
 H,0,34.5942127728,-33.2356774325,38.2072115836
 H,0,33.6518820853,-32.1067740629,37.2231856675
 H,0,33.1097012458,-33.7841024193,37.412273141
 N,0,34.9167636693,-32.0695122759,41.5769172685
 C,0,35.8959851208,-31.6438917738,42.6028911866
 C,0,34.9789783419,-31.0465658292,43.7118150352
 O,0,35.174397318,-29.8244117781,44.0015858929
 C,0,36.7560272685,-32.805364898,43.109823157
 C,0,37.6131110684,-33.5189357278,42.0518471594
 C,0,38.7927526522,-32.7086859494,41.4919138002
 N,0,38.3222410956,-31.6272644708,40.6153206831
 C,0,38.8023023884,-30.3895727747,40.5575715778
 N,0,40.0459023807,-30.1003877967,40.9872517306
 N,0,38.0190022131,-29.4052155971,40.0866771088
 O,0,34.0589877872,-31.787201816,44.1158501851
 H,0,34.0563974064,-32.3622423823,42.0333252346
 H,0,36.4925750241,-30.8352372031,42.1850417547
 H,0,36.0796141869,-33.5334533167,43.5719420016
 H,0,37.3993753691,-32.4246750025,43.9146816563
 H,0,36.9780404901,-33.8550630433,41.2210424027
 H,0,38.0364533827,-34.4267049085,42.4969001274
 H,0,39.462489694,-33.3679340118,40.9266988701
 H,0,39.3660569979,-32.2707411297,42.3179921392
 H,0,37.3872545613,-31.7245230847,40.1940747089
 H,0,40.341427747,-29.1453597254,41.1246711034
 H,0,40.7194611203,-30.8301043426,41.1627288428
 H,0,38.4213597026,-28.5535736573,39.7235764552
 H,0,37.0527415569,-29.6293901661,39.8473760293
 Recover connectivity data from disk.
                           ----------------------------
                           !    Current Parameters    !
                           ! (Angstroms and Degrees)  !
 --------------------------                            --------------------------
 ! Name  Definition              Value                                          !
 --------------------------------------------------------------------------------
 ! R1    R(1,2)                  1.5024                                         !
 ! R2    R(1,13)                 1.1371                                         !
 ! R3    R(1,22)                 1.023                                          !
 ! R4    R(1,23)                 1.0238                                         !
 ! R5    R(2,3)                  1.5404                                         !
 ! R6    R(2,5)                  1.5446                                         !
 ! R7    R(2,14)                 1.0971                                         !
 ! R8    R(3,4)                  1.2287                                         !
 ! R9    R(3,24)                 1.3582                                         !
 ! R10   R(5,6)                  1.513                                          !
 ! R11   R(5,15)                 1.0979                                         !
 ! R12   R(5,16)                 1.0921                                         !
 ! R13   R(6,7)                  1.4027                                         !
 ! R14   R(6,8)                  1.4037                                         !
 ! R15   R(7,9)                  1.3948                                         !
 ! R16   R(7,17)                 1.0879                                         !
 ! R17   R(8,10)                 1.3901                                         !
 ! R18   R(8,18)                 1.0884                                         !
 ! R19   R(9,11)                 1.4004                                         !
 ! R20   R(9,19)                 1.088                                          !
 ! R21   R(10,11)                1.4021                                         !
 ! R22   R(10,20)                1.085                                          !
 ! R23   R(11,12)                1.3602                                         !
 ! R24   R(12,21)                0.9702                                         !
 ! R25   R(24,25)                1.4663                                         !
 ! R26   R(24,31)                1.0102                                         !
 ! R27   R(25,26)                1.5438                                         !
 ! R28   R(25,28)                1.5484                                         !
 ! R29   R(25,32)                1.0934                                         !
 ! R30   R(26,27)                1.2447                                         !
 ! R31   R(26,40)                1.3468                                         !
 ! R32   R(28,29)                1.5376                                         !
 ! R33   R(28,30)                1.5355                                         !
 ! R34   R(28,33)                1.0992                                         !
 ! R35   R(29,34)                1.0977                                         !
 ! R36   R(29,35)                1.0942                                         !
 ! R37   R(29,36)                1.0955                                         !
 ! R38   R(30,37)                1.0958                                         !
 ! R39   R(30,38)                1.0949                                         !
 ! R40   R(30,39)                1.0943                                         !
 ! R41   R(40,41)                1.4808                                         !
 ! R42   R(40,52)                1.017                                          !
 ! R43   R(41,42)                1.558                                          !
 ! R44   R(41,44)                1.5316                                         !
 ! R45   R(41,53)                1.0883                                         !
 ! R46   R(42,43)                1.2711                                         !
 ! R47   R(42,51)                1.2483                                         !
 ! R48   R(44,45)                1.5372                                         !
 ! R49   R(44,54)                1.096                                          !
 ! R50   R(44,55)                1.0985                                         !
 ! R51   R(45,46)                1.5367                                         !
 ! R52   R(45,56)                1.0984                                         !
 ! R53   R(45,57)                1.0961                                         !
 ! R54   R(46,47)                1.4694                                         !
 ! R55   R(46,58)                1.0966                                         !
 ! R56   R(46,59)                1.0968                                         !
 ! R57   R(47,48)                1.3288                                         !
 ! R58   R(47,60)                1.0301                                         !
 ! R59   R(48,49)                1.3471                                         !
 ! R60   R(48,50)                1.3432                                         !
 ! R61   R(49,61)                1.0091                                         !
 ! R62   R(49,62)                1.0084                                         !
 ! R63   R(50,63)                1.0095                                         !
 ! R64   R(50,64)                1.0204                                         !
 ! A1    A(2,1,13)             113.5638                                         !
 ! A2    A(2,1,22)             109.1616                                         !
 ! A3    A(2,1,23)             109.6817                                         !
 ! A4    A(13,1,22)            103.9309                                         !
 ! A5    A(13,1,23)            109.8146                                         !
 ! A6    A(22,1,23)            110.56                                           !
 ! A7    A(1,2,3)              105.2104                                         !
 ! A8    A(1,2,5)              111.0436                                         !
 ! A9    A(1,2,14)             106.5195                                         !
 ! A10   A(3,2,5)              116.513                                          !
 ! A11   A(3,2,14)             107.7901                                         !
 ! A12   A(5,2,14)             109.2473                                         !
 ! A13   A(2,3,4)              119.5474                                         !
 ! A14   A(2,3,24)             118.1397                                         !
 ! A15   A(4,3,24)             122.3068                                         !
 ! A16   A(2,5,6)              112.3576                                         !
 ! A17   A(2,5,15)             107.1739                                         !
 ! A18   A(2,5,16)             108.6273                                         !
 ! A19   A(6,5,15)             110.1564                                         !
 ! A20   A(6,5,16)             109.3809                                         !
 ! A21   A(15,5,16)            109.0686                                         !
 ! A22   A(5,6,7)              119.7159                                         !
 ! A23   A(5,6,8)              121.5966                                         !
 ! A24   A(7,6,8)              118.6313                                         !
 ! A25   A(6,7,9)              120.6944                                         !
 ! A26   A(6,7,17)             119.0566                                         !
 ! A27   A(9,7,17)             120.249                                          !
 ! A28   A(6,8,10)             121.1396                                         !
 ! A29   A(6,8,18)             119.7634                                         !
 ! A30   A(10,8,18)            119.0897                                         !
 ! A31   A(7,9,11)             120.0054                                         !
 ! A32   A(7,9,19)             119.9673                                         !
 ! A33   A(11,9,19)            120.0254                                         !
 ! A34   A(8,10,11)            119.7136                                         !
 ! A35   A(8,10,20)            121.5007                                         !
 ! A36   A(11,10,20)           118.7825                                         !
 ! A37   A(9,11,10)            119.8141                                         !
 ! A38   A(9,11,12)            123.2233                                         !
 ! A39   A(10,11,12)           116.9624                                         !
 ! A40   A(11,12,21)           109.8855                                         !
 ! A41   A(3,24,25)            119.5369                                         !
 ! A42   A(3,24,31)            120.2418                                         !
 ! A43   A(25,24,31)           119.3644                                         !
 ! A44   A(24,25,26)           109.5623                                         !
 ! A45   A(24,25,28)           111.4772                                         !
 ! A46   A(24,25,32)           108.255                                          !
 ! A47   A(26,25,28)           114.205                                          !
 ! A48   A(26,25,32)           104.1008                                         !
 ! A49   A(28,25,32)           108.8359                                         !
 ! A50   A(25,26,27)           119.8034                                         !
 ! A51   A(25,26,40)           116.6236                                         !
 ! A52   A(27,26,40)           123.5722                                         !
 ! A53   A(25,28,29)           113.9068                                         !
 ! A54   A(25,28,30)           110.0397                                         !
 ! A55   A(25,28,33)           105.3656                                         !
 ! A56   A(29,28,30)           110.7639                                         !
 ! A57   A(29,28,33)           108.3092                                         !
 ! A58   A(30,28,33)           108.1543                                         !
 ! A59   A(28,29,34)           113.3563                                         !
 ! A60   A(28,29,35)           109.8052                                         !
 ! A61   A(28,29,36)           111.1951                                         !
 ! A62   A(34,29,35)           106.8244                                         !
 ! A63   A(34,29,36)           107.7803                                         !
 ! A64   A(35,29,36)           107.628                                          !
 ! A65   A(28,30,37)           111.1826                                         !
 ! A66   A(28,30,38)           111.5381                                         !
 ! A67   A(28,30,39)           110.1675                                         !
 ! A68   A(37,30,38)           107.7361                                         !
 ! A69   A(37,30,39)           107.9258                                         !
 ! A70   A(38,30,39)           108.1549                                         !
 ! A71   A(26,40,41)           124.0144                                         !
 ! A72   A(26,40,52)           116.665                                          !
 ! A73   A(41,40,52)           109.3444                                         !
 ! A74   A(40,41,42)           102.3645                                         !
 ! A75   A(40,41,44)           112.5013                                         !
 ! A76   A(40,41,53)           108.0627                                         !
 ! A77   A(42,41,44)           112.6856                                         !
 ! A78   A(42,41,53)           108.1221                                         !
 ! A79   A(44,41,53)           112.5035                                         !
 ! A80   A(41,42,43)           116.1281                                         !
 ! A81   A(41,42,51)           115.8928                                         !
 ! A82   A(43,42,51)           127.5882                                         !
 ! A83   A(41,44,45)           115.9327                                         !
 ! A84   A(41,44,54)           107.2645                                         !
 ! A85   A(41,44,55)           107.9741                                         !
 ! A86   A(45,44,54)           109.0214                                         !
 ! A87   A(45,44,55)           109.7919                                         !
 ! A88   A(54,44,55)           106.4244                                         !
 ! A89   A(44,45,46)           115.7223                                         !
 ! A90   A(44,45,56)           109.8917                                         !
 ! A91   A(44,45,57)           108.6836                                         !
 ! A92   A(46,45,56)           109.2425                                         !
 ! A93   A(46,45,57)           106.7465                                         !
 ! A94   A(56,45,57)           106.0807                                         !
 ! A95   A(45,46,47)           111.0752                                         !
 ! A96   A(45,46,58)           109.8548                                         !
 ! A97   A(45,46,59)           109.7158                                         !
 ! A98   A(47,46,58)           109.2989                                         !
 ! A99   A(47,46,59)           108.834                                          !
 ! A100  A(58,46,59)           107.9996                                         !
 ! A101  A(46,47,48)           126.5648                                         !
 ! A102  A(46,47,60)           117.7165                                         !
 ! A103  A(48,47,60)           113.4589                                         !
 ! A104  A(47,48,49)           121.3052                                         !
 ! A105  A(47,48,50)           119.1533                                         !
 ! A106  A(49,48,50)           119.5267                                         !
 ! A107  A(48,49,61)           121.1276                                         !
 ! A108  A(48,49,62)           121.1145                                         !
 ! A109  A(61,49,62)           117.7442                                         !
 ! A110  A(48,50,63)           120.7918                                         !
 ! A111  A(48,50,64)           118.2574                                         !
 ! A112  A(63,50,64)           118.5832                                         !
 ! D1    D(13,1,2,3)           -57.233                                          !
 ! D2    D(13,1,2,5)            69.6563                                         !
 ! D3    D(13,1,2,14)         -171.4938                                         !
 ! D4    D(22,1,2,3)            58.2099                                         !
 ! D5    D(22,1,2,5)          -174.9009                                         !
 ! D6    D(22,1,2,14)          -56.051                                          !
 ! D7    D(23,1,2,3)           179.4849                                         !
 ! D8    D(23,1,2,5)           -53.6258                                         !
 ! D9    D(23,1,2,14)           65.2241                                         !
 ! D10   D(1,2,3,4)            -29.2771                                         !
 ! D11   D(1,2,3,24)           149.8459                                         !
 ! D12   D(5,2,3,4)           -152.746                                          !
 ! D13   D(5,2,3,24)            26.377                                          !
 ! D14   D(14,2,3,4)            84.0952                                         !
 ! D15   D(14,2,3,24)          -96.7818                                         !
 ! D16   D(1,2,5,6)             44.5332                                         !
 ! D17   D(1,2,5,15)           165.6708                                         !
 ! D18   D(1,2,5,16)           -76.6177                                         !
 ! D19   D(3,2,5,6)            164.9365                                         !
 ! D20   D(3,2,5,15)           -73.9259                                         !
 ! D21   D(3,2,5,16)            43.7856                                         !
 ! D22   D(14,2,5,6)           -72.6627                                         !
 ! D23   D(14,2,5,15)           48.4749                                         !
 ! D24   D(14,2,5,16)          166.1864                                         !
 ! D25   D(2,3,24,25)         -172.6893                                         !
 ! D26   D(2,3,24,31)           -3.3521                                         !
 ! D27   D(4,3,24,25)            6.4081                                         !
 ! D28   D(4,3,24,31)          175.7453                                         !
 ! D29   D(2,5,6,7)            -97.8598                                         !
 ! D30   D(2,5,6,8)             79.3761                                         !
 ! D31   D(15,5,6,7)           142.7287                                         !
 ! D32   D(15,5,6,8)           -40.0353                                         !
 ! D33   D(16,5,6,7)            22.858                                          !
 ! D34   D(16,5,6,8)          -159.9061                                         !
 ! D35   D(5,6,7,9)            177.6685                                         !
 ! D36   D(5,6,7,17)            -2.4005                                         !
 ! D37   D(8,6,7,9)              0.3507                                         !
 ! D38   D(8,6,7,17)          -179.7183                                         !
 ! D39   D(5,6,8,10)          -177.6793                                         !
 ! D40   D(5,6,8,18)             3.3133                                         !
 ! D41   D(7,6,8,10)            -0.4143                                         !
 ! D42   D(7,6,8,18)          -179.4217                                         !
 ! D43   D(6,7,9,11)            -0.0203                                         !
 ! D44   D(6,7,9,19)           179.4892                                         !
 ! D45   D(17,7,9,11)         -179.9505                                         !
 ! D46   D(17,7,9,19)           -0.441                                          !
 ! D47   D(6,8,10,11)            0.1445                                         !
 ! D48   D(6,8,10,20)         -179.2023                                         !
 ! D49   D(18,8,10,11)         179.1585                                         !
 ! D50   D(18,8,10,20)          -0.1884                                         !
 ! D51   D(7,9,11,10)           -0.2557                                         !
 ! D52   D(7,9,11,12)          179.9127                                         !
 ! D53   D(19,9,11,10)        -179.7649                                         !
 ! D54   D(19,9,11,12)           0.4034                                         !
 ! D55   D(8,10,11,9)            0.1942                                         !
 ! D56   D(8,10,11,12)        -179.9638                                         !
 ! D57   D(20,10,11,9)         179.5588                                         !
 ! D58   D(20,10,11,12)         -0.5992                                         !
 ! D59   D(9,11,12,21)          -2.3923                                         !
 ! D60   D(10,11,12,21)        177.7716                                         !
 ! D61   D(3,24,25,26)          54.7945                                         !
 ! D62   D(3,24,25,28)        -177.8039                                         !
 ! D63   D(3,24,25,32)         -58.1266                                         !
 ! D64   D(31,24,25,26)       -114.6369                                         !
 ! D65   D(31,24,25,28)         12.7647                                         !
 ! D66   D(31,24,25,32)        132.442                                          !
 ! D67   D(24,25,26,27)       -136.1188                                         !
 ! D68   D(24,25,26,40)         43.5802                                         !
 ! D69   D(28,25,26,27)         98.0254                                         !
 ! D70   D(28,25,26,40)        -82.2756                                         !
 ! D71   D(32,25,26,27)        -20.5226                                         !
 ! D72   D(32,25,26,40)        159.1764                                         !
 ! D73   D(24,25,28,29)        -62.4285                                         !
 ! D74   D(24,25,28,30)        172.5091                                         !
 ! D75   D(24,25,28,33)         56.1379                                         !
 ! D76   D(26,25,28,29)         62.4169                                         !
 ! D77   D(26,25,28,30)        -62.6455                                         !
 ! D78   D(26,25,28,33)       -179.0167                                         !
 ! D79   D(32,25,28,29)        178.2385                                         !
 ! D80   D(32,25,28,30)         53.1761                                         !
 ! D81   D(32,25,28,33)        -63.1951                                         !
 ! D82   D(25,26,40,41)       -139.9567                                         !
 ! D83   D(25,26,40,52)          1.8652                                         !
 ! D84   D(27,26,40,41)         39.7298                                         !
 ! D85   D(27,26,40,52)       -178.4483                                         !
 ! D86   D(25,28,29,34)         55.1335                                         !
 ! D87   D(25,28,29,35)        174.5141                                         !
 ! D88   D(25,28,29,36)        -66.4816                                         !
 ! D89   D(30,28,29,34)        179.8093                                         !
 ! D90   D(30,28,29,35)        -60.8101                                         !
 ! D91   D(30,28,29,36)         58.1942                                         !
 ! D92   D(33,28,29,34)        -61.7373                                         !
 ! D93   D(33,28,29,35)         57.6434                                         !
 ! D94   D(33,28,29,36)        176.6476                                         !
 ! D95   D(25,28,30,37)         64.5934                                         !
 ! D96   D(25,28,30,38)        -55.6837                                         !
 ! D97   D(25,28,30,39)       -175.8039                                         !
 ! D98   D(29,28,30,37)        -62.2496                                         !
 ! D99   D(29,28,30,38)        177.4733                                         !
 ! D100  D(29,28,30,39)         57.353                                          !
 ! D101  D(33,28,30,37)        179.203                                          !
 ! D102  D(33,28,30,38)         58.9259                                         !
 ! D103  D(33,28,30,39)        -61.1944                                         !
 ! D104  D(26,40,41,42)        111.7392                                         !
 ! D105  D(26,40,41,44)       -127.0508                                         !
 ! D106  D(26,40,41,53)         -2.2414                                         !
 ! D107  D(52,40,41,42)        -32.4281                                         !
 ! D108  D(52,40,41,44)         88.7819                                         !
 ! D109  D(52,40,41,53)       -146.4087                                         !
 ! D110  D(40,41,42,43)       -120.2397                                         !
 ! D111  D(40,41,42,51)         53.1363                                         !
 ! D112  D(44,41,42,43)        118.6773                                         !
 ! D113  D(44,41,42,51)        -67.9467                                         !
 ! D114  D(53,41,42,43)         -6.3027                                         !
 ! D115  D(53,41,42,51)        167.0733                                         !
 ! D116  D(40,41,44,45)         60.5151                                         !
 ! D117  D(40,41,44,54)        -61.5337                                         !
 ! D118  D(40,41,44,55)       -175.871                                          !
 ! D119  D(42,41,44,45)        175.6257                                         !
 ! D120  D(42,41,44,54)         53.577                                          !
 ! D121  D(42,41,44,55)        -60.7603                                         !
 ! D122  D(53,41,44,45)        -61.8208                                         !
 ! D123  D(53,41,44,54)        176.1305                                         !
 ! D124  D(53,41,44,55)         61.7932                                         !
 ! D125  D(41,44,45,46)         69.8429                                         !
 ! D126  D(41,44,45,56)        -54.4441                                         !
 ! D127  D(41,44,45,57)       -170.1219                                         !
 ! D128  D(54,44,45,46)       -169.0449                                         !
 ! D129  D(54,44,45,56)         66.6681                                         !
 ! D130  D(54,44,45,57)        -49.0097                                         !
 ! D131  D(55,44,45,46)        -52.8186                                         !
 ! D132  D(55,44,45,56)       -177.1056                                         !
 ! D133  D(55,44,45,57)         67.2166                                         !
 ! D134  D(44,45,46,47)        -71.5787                                         !
 ! D135  D(44,45,46,58)        167.3749                                         !
 ! D136  D(44,45,46,59)         48.7936                                         !
 ! D137  D(56,45,46,47)         53.0446                                         !
 ! D138  D(56,45,46,58)        -68.0018                                         !
 ! D139  D(56,45,46,59)        173.4169                                         !
 ! D140  D(57,45,46,47)        167.338                                          !
 ! D141  D(57,45,46,58)         46.2916                                         !
 ! D142  D(57,45,46,59)        -72.2896                                         !
 ! D143  D(45,46,47,48)        139.5179                                         !
 ! D144  D(45,46,47,60)        -22.2072                                         !
 ! D145  D(58,46,47,48)        -99.1094                                         !
 ! D146  D(58,46,47,60)         99.1655                                         !
 ! D147  D(59,46,47,48)         18.6249                                         !
 ! D148  D(59,46,47,60)       -143.1002                                         !
 ! D149  D(46,47,48,49)         21.7446                                         !
 ! D150  D(46,47,48,50)       -156.8513                                         !
 ! D151  D(60,47,48,49)       -175.8697                                         !
 ! D152  D(60,47,48,50)          5.5344                                         !
 ! D153  D(47,48,49,61)       -167.0568                                         !
 ! D154  D(47,48,49,62)         14.322                                          !
 ! D155  D(50,48,49,61)         11.534                                          !
 ! D156  D(50,48,49,62)       -167.0872                                         !
 ! D157  D(47,48,50,63)       -158.099                                          !
 ! D158  D(47,48,50,64)          4.1888                                         !
 ! D159  D(49,48,50,63)         23.2797                                         !
 ! D160  D(49,48,50,64)       -174.4324                                         !
 --------------------------------------------------------------------------------
 Symmetry turned off by external request.
 Stoichiometry    C20H33N6O5(1+)
 Framework group  C1[X(C20H33N6O5)]
 Deg. of freedom   186
 Full point group                 C1      NOp   1
                          Input orientation:                          
 ---------------------------------------------------------------------
 Center     Atomic      Atomic             Coordinates (Angstroms)
 Number     Number       Type             X           Y           Z
 ---------------------------------------------------------------------
      1          7           0       32.980534  -28.553941   43.724962
      2          6           0       32.019226  -29.271788   42.820610
      3          6           0       32.848230  -29.671803   41.585512
      4          8           0       33.806139  -28.979925   41.248692
      5          6           0       31.302159  -30.416397   43.569960
      6          6           0       30.827918  -29.996421   44.943962
      7          6           0       31.601662  -30.307615   46.071790
      8          6           0       29.653405  -29.248006   45.119687
      9          6           0       31.208467  -29.888520   47.342650
     10          6           0       29.251719  -28.826429   46.381996
     11          6           0       30.030350  -29.148512   47.502714
     12          8           0       29.584849  -28.708560   48.710279
     13          1           0       33.890125  -29.175468   44.006635
     14          1           0       31.278039  -28.528934   42.500573
     15          1           0       30.447899  -30.723084   42.952264
     16          1           0       31.992875  -31.256865   43.666178
     17          1           0       32.515677  -30.883344   45.942988
     18          1           0       29.034146  -29.004177   44.258434
     19          1           0       31.813272  -30.143639   48.210359
     20          1           0       28.338427  -28.258675   46.526090
     21          1           0       30.178246  -29.016815   49.413230
     22          1           0       33.374830  -27.751934   43.227080
     23          1           0       32.493815  -28.247490   44.571916
     24          7           0       32.496160  -30.799632   40.915584
     25          6           0       33.355499  -31.297692   39.836909
     26          6           0       34.792437  -31.489693   40.367641
     27          8           0       35.760428  -31.108754   39.684171
     28          6           0       32.752515  -32.556867   39.167301
     29          6           0       32.604773  -33.757243   40.116750
     30          6           0       33.576253  -32.940071   37.929450
     31          1           0       31.742871  -31.379860   41.256759
     32          1           0       33.452354  -30.509990   39.084763
     33          1           0       31.749807  -32.256469   38.831864
     34          1           0       32.024278  -33.528808   41.020008
     35          1           0       32.085879  -34.573230   39.604751
     36          1           0       33.583261  -34.133854   40.434282
     37          1           0       34.594213  -33.235677   38.207212
     38          1           0       33.651882  -32.106774   37.223186
     39          1           0       33.109701  -33.784102   37.412273
     40          7           0       34.916764  -32.069512   41.576917
     41          6           0       35.895985  -31.643892   42.602891
     42          6           0       34.978978  -31.046566   43.711815
     43          8           0       35.174397  -29.824412   44.001586
     44          6           0       36.756027  -32.805365   43.109823
     45          6           0       37.613111  -33.518936   42.051847
     46          6           0       38.792753  -32.708686   41.491914
     47          7           0       38.322241  -31.627264   40.615321
     48          6           0       38.802302  -30.389573   40.557572
     49          7           0       40.045902  -30.100388   40.987252
     50          7           0       38.019002  -29.405216   40.086677
     51          8           0       34.058988  -31.787202   44.115850
     52          1           0       34.056397  -32.362242   42.033325
     53          1           0       36.492575  -30.835237   42.185042
     54          1           0       36.079614  -33.533453   43.571942
     55          1           0       37.399375  -32.424675   43.914682
     56          1           0       36.978040  -33.855063   41.221042
     57          1           0       38.036453  -34.426705   42.496900
     58          1           0       39.462490  -33.367934   40.926699
     59          1           0       39.366057  -32.270741   42.317992
     60          1           0       37.387255  -31.724523   40.194075
     61          1           0       40.341428  -29.145360   41.124671
     62          1           0       40.719461  -30.830104   41.162729
     63          1           0       38.421360  -28.553574   39.723576
     64          1           0       37.052742  -29.629390   39.847376
 ---------------------------------------------------------------------
 Rotational constants (GHZ):           0.2355890           0.0783631           0.0692429
 Standard basis: 6-31G(d) (6D, 7F)
   531 basis functions,  1000 primitive gaussians,   531 cartesian basis functions
   117 alpha electrons      117 beta electrons
       nuclear repulsion energy      3403.6987476714 Hartrees.
 NAtoms=   64 NActive=   64 NUniq=   64 SFac= 1.00D+00 NAtFMM=   60 NAOKFM=T Big=T
 Integral buffers will be    131072 words long.
 Raffenetti 2 integral format.
 Two-electron integral symmetry is turned off.
 Nuclear repulsion after empirical dispersion term =     3403.6102769544 Hartrees.
 One-electron integrals computed using PRISM.
 NBasis=   531 RedAO= T EigKep=  4.30D-04  NBF=   531
 NBsUse=   531 1.00D-06 EigRej= -1.00D+00 NBFU=   531
 Initial guess from the checkpoint file:  "conf-727.chk"
 B after Tr=     0.000000    0.000000    0.000000
         Rot=    1.000000    0.000000    0.000000    0.000000 Ang=   0.00 deg.
 Requested convergence on RMS density matrix=1.00D-08 within 128 cycles.
 Requested convergence on MAX density matrix=1.00D-06.
 Requested convergence on             energy=1.00D-06.
 No special actions if energy rises.
 SCF Done:  E(RB3LYP) =  -1486.59129477     A.U. after    2 cycles
            NFock=  2  Conv=0.79D-08     -V/T= 2.0094

 **********************************************************************

            Population analysis using the SCF Density.

 **********************************************************************

 Alpha  occ. eigenvalues --  -19.25171 -19.23908 -19.23273 -19.19241 -19.18555
 Alpha  occ. eigenvalues --  -14.51492 -14.50936 -14.49337 -14.49089 -14.47870
 Alpha  occ. eigenvalues --  -14.46171 -10.46343 -10.40576 -10.40310 -10.36640
 Alpha  occ. eigenvalues --  -10.36075 -10.34705 -10.33997 -10.32819 -10.31881
 Alpha  occ. eigenvalues --  -10.30261 -10.29644 -10.29343 -10.28291 -10.27641
 Alpha  occ. eigenvalues --  -10.27577 -10.27404 -10.26896 -10.26728 -10.26650
 Alpha  occ. eigenvalues --  -10.26358  -1.15925  -1.15134  -1.14450  -1.13367
 Alpha  occ. eigenvalues --   -1.12524  -1.06948  -1.04628  -1.04172  -1.03583
 Alpha  occ. eigenvalues --   -1.03048  -1.02144  -0.93641  -0.91342  -0.90169
 Alpha  occ. eigenvalues --   -0.88251  -0.85159  -0.83024  -0.82648  -0.80603
 Alpha  occ. eigenvalues --   -0.78669  -0.77962  -0.76271  -0.75358  -0.72496
 Alpha  occ. eigenvalues --   -0.71565  -0.70401  -0.70024  -0.68774  -0.68243
 Alpha  occ. eigenvalues --   -0.67927  -0.67128  -0.66837  -0.65082  -0.64190
 Alpha  occ. eigenvalues --   -0.63615  -0.63167  -0.62176  -0.61881  -0.59821
 Alpha  occ. eigenvalues --   -0.59328  -0.58387  -0.57730  -0.57262  -0.56362
 Alpha  occ. eigenvalues --   -0.56061  -0.55033  -0.54899  -0.54373  -0.53943
 Alpha  occ. eigenvalues --   -0.53444  -0.52939  -0.52326  -0.51736  -0.50944
 Alpha  occ. eigenvalues --   -0.50692  -0.50340  -0.49912  -0.49628  -0.49113
 Alpha  occ. eigenvalues --   -0.48744  -0.48435  -0.47969  -0.47804  -0.47223
 Alpha  occ. eigenvalues --   -0.46634  -0.45603  -0.44961  -0.44777  -0.44065
 Alpha  occ. eigenvalues --   -0.43976  -0.43852  -0.43606  -0.43259  -0.41464
 Alpha  occ. eigenvalues --   -0.41418  -0.40889  -0.39295  -0.38749  -0.37759
 Alpha  occ. eigenvalues --   -0.37091  -0.36210  -0.34726  -0.33252  -0.33058
 Alpha  occ. eigenvalues --   -0.32445  -0.29783
 Alpha virt. eigenvalues --   -0.11211  -0.10593  -0.09583  -0.08413  -0.07286
 Alpha virt. eigenvalues --   -0.06307  -0.04524  -0.03626  -0.02767  -0.02339
 Alpha virt. eigenvalues --   -0.00891  -0.00630   0.00037   0.00552   0.00939
 Alpha virt. eigenvalues --    0.01576   0.02341   0.02596   0.02944   0.02991
 Alpha virt. eigenvalues --    0.03958   0.04406   0.05084   0.05165   0.05715
 Alpha virt. eigenvalues --    0.05916   0.06236   0.06949   0.07446   0.07594
 Alpha virt. eigenvalues --    0.07899   0.08233   0.08528   0.08638   0.09118
 Alpha virt. eigenvalues --    0.09627   0.09942   0.10209   0.10665   0.10947
 Alpha virt. eigenvalues --    0.11329   0.12335   0.12566   0.12969   0.13336
 Alpha virt. eigenvalues --    0.13735   0.14489   0.14849   0.15464   0.16049
 Alpha virt. eigenvalues --    0.17005   0.17072   0.17765   0.18458   0.18788
 Alpha virt. eigenvalues --    0.20053   0.20645   0.23356   0.24728   0.25301
 Alpha virt. eigenvalues --    0.26155   0.26669   0.27117   0.27244   0.28054
 Alpha virt. eigenvalues --    0.29278   0.30401   0.33387   0.35263   0.38023
 Alpha virt. eigenvalues --    0.38546   0.39744   0.40208   0.40759   0.40975
 Alpha virt. eigenvalues --    0.41404   0.42774   0.43109   0.43190   0.43863
 Alpha virt. eigenvalues --    0.44162   0.44501   0.44889   0.45181   0.45554
 Alpha virt. eigenvalues --    0.45876   0.46158   0.47806   0.48533   0.49010
 Alpha virt. eigenvalues --    0.49248   0.49809   0.49984   0.50666   0.51027
 Alpha virt. eigenvalues --    0.51379   0.51902   0.52848   0.53027   0.53607
 Alpha virt. eigenvalues --    0.53752   0.54483   0.54839   0.54958   0.55864
 Alpha virt. eigenvalues --    0.55908   0.56703   0.57193   0.57787   0.57950
 Alpha virt. eigenvalues --    0.58153   0.58874   0.59596   0.60082   0.60755
 Alpha virt. eigenvalues --    0.62075   0.62415   0.63369   0.64429   0.64873
 Alpha virt. eigenvalues --    0.65015   0.65711   0.67058   0.67875   0.68284
 Alpha virt. eigenvalues --    0.69067   0.69670   0.69952   0.70890   0.71766
 Alpha virt. eigenvalues --    0.72383   0.72509   0.73494   0.73880   0.74452
 Alpha virt. eigenvalues --    0.74758   0.75273   0.75325   0.75718   0.75744
 Alpha virt. eigenvalues --    0.76005   0.76939   0.77087   0.77478   0.77652
 Alpha virt. eigenvalues --    0.78780   0.79266   0.80037   0.80584   0.80850
 Alpha virt. eigenvalues --    0.81465   0.81948   0.82207   0.82757   0.83224
 Alpha virt. eigenvalues --    0.83536   0.84001   0.84768   0.84789   0.85232
 Alpha virt. eigenvalues --    0.85843   0.86546   0.86729   0.87046   0.88062
 Alpha virt. eigenvalues --    0.88438   0.88999   0.89634   0.90540   0.90589
 Alpha virt. eigenvalues --    0.90870   0.91421   0.91827   0.92768   0.93729
 Alpha virt. eigenvalues --    0.94995   0.95347   0.96114   0.97067   0.97689
 Alpha virt. eigenvalues --    0.98934   0.99523   1.00805   1.01362   1.02647
 Alpha virt. eigenvalues --    1.03666   1.04961   1.06199   1.07026   1.07793
 Alpha virt. eigenvalues --    1.08571   1.08870   1.10432   1.11194   1.12568
 Alpha virt. eigenvalues --    1.13066   1.15553   1.16223   1.16793   1.17112
 Alpha virt. eigenvalues --    1.17322   1.17786   1.19669   1.20249   1.20642
 Alpha virt. eigenvalues --    1.21846   1.22588   1.23224   1.24077   1.26877
 Alpha virt. eigenvalues --    1.27221   1.27854   1.28945   1.29915   1.32680
 Alpha virt. eigenvalues --    1.33295   1.34751   1.35116   1.36292   1.36470
 Alpha virt. eigenvalues --    1.36936   1.38395   1.38700   1.39563   1.40292
 Alpha virt. eigenvalues --    1.41335   1.42818   1.43159   1.43978   1.44673
 Alpha virt. eigenvalues --    1.45038   1.46604   1.49720   1.51073   1.51284
 Alpha virt. eigenvalues --    1.53104   1.53891   1.54126   1.55979   1.57221
 Alpha virt. eigenvalues --    1.58527   1.59303   1.60477   1.61206   1.62188
 Alpha virt. eigenvalues --    1.63234   1.64599   1.65828   1.66096   1.66579
 Alpha virt. eigenvalues --    1.66774   1.67650   1.68438   1.69306   1.70433
 Alpha virt. eigenvalues --    1.71561   1.71926   1.73194   1.73550   1.74597
 Alpha virt. eigenvalues --    1.75120   1.75725   1.76323   1.77179   1.77837
 Alpha virt. eigenvalues --    1.78384   1.79575   1.79816   1.80497   1.80789
 Alpha virt. eigenvalues --    1.82404   1.82819   1.83518   1.84235   1.85407
 Alpha virt. eigenvalues --    1.86522   1.87185   1.87368   1.88086   1.88732
 Alpha virt. eigenvalues --    1.89069   1.89774   1.89916   1.91061   1.91918
 Alpha virt. eigenvalues --    1.92294   1.92734   1.93705   1.94645   1.95476
 Alpha virt. eigenvalues --    1.95963   1.96835   1.97219   1.98334   1.98778
 Alpha virt. eigenvalues --    1.99477   2.00387   2.01935   2.02852   2.03905
 Alpha virt. eigenvalues --    2.04435   2.05789   2.06142   2.06561   2.07826
 Alpha virt. eigenvalues --    2.08178   2.09508   2.09989   2.10698   2.12614
 Alpha virt. eigenvalues --    2.14672   2.15907   2.16605   2.17199   2.18271
 Alpha virt. eigenvalues --    2.18654   2.20110   2.21710   2.22308   2.22914
 Alpha virt. eigenvalues --    2.23485   2.25053   2.26041   2.26214   2.27539
 Alpha virt. eigenvalues --    2.28449   2.29199   2.30290   2.32447   2.32658
 Alpha virt. eigenvalues --    2.33025   2.34025   2.34698   2.35931   2.37514
 Alpha virt. eigenvalues --    2.39239   2.39694   2.41792   2.41818   2.42557
 Alpha virt. eigenvalues --    2.43218   2.44020   2.46601   2.47490   2.48936
 Alpha virt. eigenvalues --    2.50250   2.50447   2.51738   2.52164   2.54357
 Alpha virt. eigenvalues --    2.54791   2.55701   2.56596   2.57303   2.58404
 Alpha virt. eigenvalues --    2.59158   2.60566   2.61984   2.63153   2.63450
 Alpha virt. eigenvalues --    2.66005   2.66676   2.67865   2.70997   2.72654
 Alpha virt. eigenvalues --    2.74459   2.77245   2.78508   2.81003   2.81474
 Alpha virt. eigenvalues --    2.84833   2.88745   2.90746   2.91039   2.92897
 Alpha virt. eigenvalues --    2.93691   2.94955   2.98198   3.03474   3.04758
 Alpha virt. eigenvalues --    3.07868   3.08766   3.33604   3.67222   3.75784
 Alpha virt. eigenvalues --    3.76704   3.86906   3.88646   3.93764   3.96170
 Alpha virt. eigenvalues --    3.99661   4.03744   4.04700   4.05172   4.05821
 Alpha virt. eigenvalues --    4.10375   4.14911   4.17225   4.17665   4.19393
 Alpha virt. eigenvalues --    4.24202   4.25296   4.26617   4.29030   4.32407
 Alpha virt. eigenvalues --    4.36965   4.40228   4.40872   4.44608   4.52996
 Alpha virt. eigenvalues --    4.55142   4.61845   4.63690   4.67705
          Condensed to atoms (all electrons):
 Mulliken charges:
               1
     1  N   -0.766947
     2  C   -0.100117
     3  C    0.656791
     4  O   -0.529806
     5  C   -0.400446
     6  C    0.098391
     7  C   -0.213866
     8  C   -0.190995
     9  C   -0.193753
    10  C   -0.157005
    11  C    0.357418
    12  O   -0.627784
    13  H    0.457195
    14  H    0.203309
    15  H    0.158238
    16  H    0.222332
    17  H    0.187152
    18  H    0.132921
    19  H    0.140874
    20  H    0.161070
    21  H    0.417413
    22  H    0.391997
    23  H    0.389210
    24  N   -0.650440
    25  C   -0.011485
    26  C    0.626573
    27  O   -0.586728
    28  C   -0.123987
    29  C   -0.478367
    30  C   -0.450685
    31  H    0.355159
    32  H    0.196884
    33  H    0.158576
    34  H    0.141486
    35  H    0.180332
    36  H    0.163604
    37  H    0.156493
    38  H    0.163072
    39  H    0.168349
    40  N   -0.582236
    41  C   -0.040978
    42  C    0.581225
    43  O   -0.613673
    44  C   -0.269019
    45  C   -0.308528
    46  C   -0.149249
    47  N   -0.609631
    48  C    0.788516
    49  N   -0.761302
    50  N   -0.776225
    51  O   -0.553623
    52  H    0.355050
    53  H    0.155987
    54  H    0.177889
    55  H    0.157397
    56  H    0.165475
    57  H    0.175700
    58  H    0.183929
    59  H    0.166866
    60  H    0.405083
    61  H    0.378231
    62  H    0.382855
    63  H    0.365375
    64  H    0.422455
 Sum of Mulliken charges =   1.00000
 Mulliken charges with hydrogens summed into heavy atoms:
               1
     1  N    0.471455
     2  C    0.103193
     3  C    0.656791
     4  O   -0.529806
     5  C   -0.019875
     6  C    0.098391
     7  C   -0.026714
     8  C   -0.058073
     9  C   -0.052879
    10  C    0.004065
    11  C    0.357418
    12  O   -0.210371
    24  N   -0.295281
    25  C    0.185399
    26  C    0.626573
    27  O   -0.586728
    28  C    0.034588
    29  C    0.007056
    30  C    0.037229
    40  N   -0.227186
    41  C    0.115008
    42  C    0.581225
    43  O   -0.613673
    44  C    0.066268
    45  C    0.032647
    46  C    0.201546
    47  N   -0.204548
    48  C    0.788516
    49  N   -0.000215
    50  N    0.011605
    51  O   -0.553623
 Electronic spatial extent (au):  <R**2>=        3293672.1768
 Charge=              1.0000 electrons
 Dipole moment (field-independent basis, Debye):
    X=            172.7670    Y=           -145.8080    Z=            199.7745  Tot=            301.6924
 Quadrupole moment (field-independent basis, Debye-Ang):
   XX=           6121.6753   YY=           4269.9981   ZZ=           8160.4255
   XY=          -5249.9786   XZ=           7169.9999   YZ=          -6053.7228
 Traceless Quadrupole moment (field-independent basis, Debye-Ang):
   XX=            -62.3577   YY=          -1914.0349   ZZ=           1976.3926
   XY=          -5249.9786   XZ=           7169.9999   YZ=          -6053.7228
 Octapole moment (field-independent basis, Debye-Ang**2):
  XXX=         214585.6156  YYY=        -119892.3450  ZZZ=         326753.8172  XYY=         154269.3382
  XXY=        -186109.2962  XXZ=         253308.8646  XZZ=         292443.9944  YZZ=        -246718.9221
  YYZ=         176750.5688  XYZ=        -217561.2543
 Hexadecapole moment (field-independent basis, Debye-Ang**3):
 XXXX=        7460580.3861 YYYY=        3182452.3929 ZZZZ=       12775992.0603 XXXY=       -6522628.3324
 XXXZ=        8848867.3562 YYYX=       -4359060.8737 YYYZ=       -4939959.1471 ZZZX=       11702369.6997
 ZZZY=       -9850406.8249 XXYY=        5478796.2870 XXZZ=       10302058.7349 YYZZ=        7170511.4666
 XXYZ=       -7692239.8867 YYXZ=        6376693.7854 ZZXY=       -8856219.7158
 N-N= 3.403610276954D+03 E-N=-1.024584952949D+04  KE= 1.472704511246D+03
 Unable to Open any file for archive entry.
 1\1\GINC-AMR-025\SP\RB3LYP\6-31G(d)\C20H33N6O5(1+)\KENGMITH\31-May-202
 2\0\\# B3LYP/6-31G* empiricaldispersion=gd3 guess=read geom=check nosy
 mm integral(ultrafinegrid)\\Candidate Structure: Conf:727 Charge calc 
 in gas phase\\1,1\N,0,32.9805340363,-28.5539411865,43.7249618971\C,0,3
 2.0192263129,-29.2717877838,42.8206100742\C,0,32.8482302681,-29.671803
 0462,41.5855124035\O,0,33.806139344,-28.9799254563,41.2486915415\C,0,3
 1.3021590018,-30.4163965735,43.5699595897\C,0,30.827917709,-29.9964214
 736,44.9439624781\C,0,31.6016621797,-30.3076154358,46.0717896152\C,0,2
 9.653404863,-29.2480055081,45.1196867163\C,0,31.2084667207,-29.8885196
 464,47.3426502796\C,0,29.2517185396,-28.8264288956,46.3819962826\C,0,3
 0.0303503586,-29.1485118611,47.5027135346\O,0,29.584849323,-28.7085603
 909,48.7102790701\H,0,33.8901247909,-29.1754683995,44.0066345626\H,0,3
 1.2780393437,-28.5289338492,42.5005730858\H,0,30.447898737,-30.7230844
 273,42.9522644474\H,0,31.9928753458,-31.2568646516,43.6661782526\H,0,3
 2.5156768902,-30.8833442285,45.9429876365\H,0,29.0341462779,-29.004176
 6618,44.2584335559\H,0,31.8132724605,-30.1436386765,48.2103593343\H,0,
 28.338426966,-28.2586745334,46.5260901983\H,0,30.1782464382,-29.016814
 9788,49.4132296119\H,0,33.3748303203,-27.7519342748,43.2270800644\H,0,
 32.4938152387,-28.2474902804,44.5719163392\N,0,32.4961595353,-30.79963
 24383,40.915584302\C,0,33.3554992521,-31.2976922416,39.8369094673\C,0,
 34.792436964,-31.4896929844,40.3676414116\O,0,35.7604283871,-31.108754
 1222,39.6841711914\C,0,32.7525152388,-32.5568668981,39.1673008049\C,0,
 32.6047725575,-33.7572429839,40.11674967\C,0,33.5762529937,-32.9400713
 915,37.9294499461\H,0,31.7428711753,-31.3798603229,41.2567590549\H,0,3
 3.4523539779,-30.5099904217,39.0847627431\H,0,31.7498073337,-32.256468
 5685,38.8318640306\H,0,32.0242782194,-33.5288079439,41.0200078786\H,0,
 32.0858791588,-34.5732302284,39.6047506062\H,0,33.5832609931,-34.13385
 40788,40.4342819984\H,0,34.5942127728,-33.2356774325,38.2072115836\H,0
 ,33.6518820853,-32.1067740629,37.2231856675\H,0,33.1097012458,-33.7841
 024193,37.412273141\N,0,34.9167636693,-32.0695122759,41.5769172685\C,0
 ,35.8959851208,-31.6438917738,42.6028911866\C,0,34.9789783419,-31.0465
 658292,43.7118150352\O,0,35.174397318,-29.8244117781,44.0015858929\C,0
 ,36.7560272685,-32.805364898,43.109823157\C,0,37.6131110684,-33.518935
 7278,42.0518471594\C,0,38.7927526522,-32.7086859494,41.4919138002\N,0,
 38.3222410956,-31.6272644708,40.6153206831\C,0,38.8023023884,-30.38957
 27747,40.5575715778\N,0,40.0459023807,-30.1003877967,40.9872517306\N,0
 ,38.0190022131,-29.4052155971,40.0866771088\O,0,34.0589877872,-31.7872
 01816,44.1158501851\H,0,34.0563974064,-32.3622423823,42.0333252346\H,0
 ,36.4925750241,-30.8352372031,42.1850417547\H,0,36.0796141869,-33.5334
 533167,43.5719420016\H,0,37.3993753691,-32.4246750025,43.9146816563\H,
 0,36.9780404901,-33.8550630433,41.2210424027\H,0,38.0364533827,-34.426
 7049085,42.4969001274\H,0,39.462489694,-33.3679340118,40.9266988701\H,
 0,39.3660569979,-32.2707411297,42.3179921392\H,0,37.3872545613,-31.724
 5230847,40.1940747089\H,0,40.341427747,-29.1453597254,41.1246711034\H,
 0,40.7194611203,-30.8301043426,41.1627288428\H,0,38.4213597026,-28.553
 5736573,39.7235764552\H,0,37.0527415569,-29.6293901661,39.8473760293\\
 Version=ES64L-G16RevC.01\HF=-1486.5912948\RMSD=7.934e-09\Dipole=3.5629
 128,0.83989,-1.8503012\Quadrupole=-46.3614078,-1423.0380156,1469.39942
 34,-3903.2303921,5330.7191802,-4500.7945552\PG=C01 [X(C20H33N6O5)]\\@
 The archive entry for this job was punched.


 THERE'S SMALL CHOICE IN A BOWL OF ROTTEN APPLES.
                     SHAKESPEARE
 Job cpu time:       0 days  0 hours  1 minutes 50.6 seconds.
 Elapsed time:       0 days  0 hours  0 minutes 28.1 seconds.
 File lengths (MBytes):  RWF=    264 Int=      0 D2E=      0 Chk=     40 Scr=     16
 Normal termination of Gaussian 16 at Tue May 31 11:32:00 2022.
