 Entering Gaussian System, Link 0=/opt/software/Gaussian/g16-AVX2-C.01/g16/g16
 Input=charge-conf-460.com
 Output=charge-conf-460.log
 Initial command:
 /opt/software/Gaussian/g16-AVX2-C.01/g16/l1.exe "/mnt/gs18/scratch/users/kengmith/Gau-107134.inp" -scrdir="/mnt/gs18/scratch/users/kengmith/"
 Entering Link 1 = /opt/software/Gaussian/g16-AVX2-C.01/g16/l1.exe PID=    107144.
  
 Copyright (c) 1988-2019, Gaussian, Inc.  All Rights Reserved.
  
 This is part of the Gaussian(R) 16 program.  It is based on
 the Gaussian(R) 09 system (copyright 2009, Gaussian, Inc.),
 the Gaussian(R) 03 system (copyright 2003, Gaussian, Inc.),
 the Gaussian(R) 98 system (copyright 1998, Gaussian, Inc.),
 the Gaussian(R) 94 system (copyright 1995, Gaussian, Inc.),
 the Gaussian 92(TM) system (copyright 1992, Gaussian, Inc.),
 the Gaussian 90(TM) system (copyright 1990, Gaussian, Inc.),
 the Gaussian 88(TM) system (copyright 1988, Gaussian, Inc.),
 the Gaussian 86(TM) system (copyright 1986, Carnegie Mellon
 University), and the Gaussian 82(TM) system (copyright 1983,
 Carnegie Mellon University). Gaussian is a federally registered
 trademark of Gaussian, Inc.
  
 This software contains proprietary and confidential information,
 including trade secrets, belonging to Gaussian, Inc.
  
 This software is provided under written license and may be
 used, copied, transmitted, or stored only in accord with that
 written license.
  
 The following legend is applicable only to US Government
 contracts under FAR:
  
                    RESTRICTED RIGHTS LEGEND
  
 Use, reproduction and disclosure by the US Government is
 subject to restrictions as set forth in subparagraphs (a)
 and (c) of the Commercial Computer Software - Restricted
 Rights clause in FAR 52.227-19.
  
 Gaussian, Inc.
 340 Quinnipiac St., Bldg. 40, Wallingford CT 06492
  
  
 ---------------------------------------------------------------
 Warning -- This program may not be used in any manner that
 competes with the business of Gaussian, Inc. or will provide
 assistance to any competitor of Gaussian, Inc.  The licensee
 of this program is prohibited from giving any competitor of
 Gaussian, Inc. access to this program.  By using this program,
 the user acknowledges that Gaussian, Inc. is engaged in the
 business of creating and licensing software in the field of
 computational chemistry and represents and warrants to the
 licensee that it is not a competitor of Gaussian, Inc. and that
 it will not use this program in any manner prohibited above.
 ---------------------------------------------------------------
  

 Cite this work as:
 Gaussian 16, Revision C.01,
 M. J. Frisch, G. W. Trucks, H. B. Schlegel, G. E. Scuseria, 
 M. A. Robb, J. R. Cheeseman, G. Scalmani, V. Barone, 
 G. A. Petersson, H. Nakatsuji, X. Li, M. Caricato, A. V. Marenich, 
 J. Bloino, B. G. Janesko, R. Gomperts, B. Mennucci, H. P. Hratchian, 
 J. V. Ortiz, A. F. Izmaylov, J. L. Sonnenberg, D. Williams-Young, 
 F. Ding, F. Lipparini, F. Egidi, J. Goings, B. Peng, A. Petrone, 
 T. Henderson, D. Ranasinghe, V. G. Zakrzewski, J. Gao, N. Rega, 
 G. Zheng, W. Liang, M. Hada, M. Ehara, K. Toyota, R. Fukuda, 
 J. Hasegawa, M. Ishida, T. Nakajima, Y. Honda, O. Kitao, H. Nakai, 
 T. Vreven, K. Throssell, J. A. Montgomery, Jr., J. E. Peralta, 
 F. Ogliaro, M. J. Bearpark, J. J. Heyd, E. N. Brothers, K. N. Kudin, 
 V. N. Staroverov, T. A. Keith, R. Kobayashi, J. Normand, 
 K. Raghavachari, A. P. Rendell, J. C. Burant, S. S. Iyengar, 
 J. Tomasi, M. Cossi, J. M. Millam, M. Klene, C. Adamo, R. Cammi, 
 J. W. Ochterski, R. L. Martin, K. Morokuma, O. Farkas, 
 J. B. Foresman, and D. J. Fox, Gaussian, Inc., Wallingford CT, 2019.
 
 ******************************************
 Gaussian 16:  ES64L-G16RevC.01  3-Jul-2019
                31-May-2022 
 ******************************************
 %mem=8gb
 %nproc=4
 Will use up to    4 processors via shared memory.
 %chk=conf-460.chk
 ----------------------------------------------------------------------
 # B3LYP/6-31G* empiricaldispersion=gd3 guess=read geom=check nosymm in
 tegral(ultrafinegrid)
 ----------------------------------------------------------------------
 1/29=2,38=1,172=1/1;
 2/12=2,15=1,40=1/2;
 3/5=1,6=6,7=1,11=2,14=-4,25=1,30=1,74=-5,75=-5,116=-2,124=31/1,2,3;
 4/5=1/1;
 5/5=2,38=6/2;
 6/7=2,8=2,9=2,10=2,28=1/1;
 99/5=1,9=1/99;
 ------------------------------------------------------
 Candidate Structure: Conf:460 Charge calc in gas phase
 ------------------------------------------------------
 Structure from the checkpoint file:  "conf-460.chk"
 Charge =  1 Multiplicity = 1
 Redundant internal coordinates found in file.  (old form).
 N,0,36.2118417785,-32.1920416714,43.3312124618
 C,0,36.5964852713,-30.8456183267,42.8005916391
 C,0,35.5977970902,-30.5883382017,41.6520660119
 O,0,35.2524035536,-31.5228827356,40.9329262669
 C,0,36.5984068375,-29.820012469,43.9532857323
 C,0,37.4060888456,-30.2922849428,45.1425976564
 C,0,36.7750819962,-30.9407843512,46.2129427318
 C,0,38.8015626774,-30.1468175412,45.1784527738
 C,0,37.5124916905,-31.4287770686,47.2915952006
 C,0,39.5479205143,-30.6259410788,46.2482074396
 C,0,38.9036956058,-31.2705619872,47.3139132106
 O,0,39.6886638575,-31.7158141851,48.3302434054
 H,0,36.100905096,-32.8552124284,42.558043857
 H,0,37.5995738987,-30.9238817801,42.3655226141
 H,0,37.0133361692,-28.8801345011,43.5675940582
 H,0,35.5617532334,-29.6405760672,44.2555325385
 H,0,35.694375046,-31.0670593651,46.2023321063
 H,0,39.3122302877,-29.6398036082,44.3622054396
 H,0,37.0062882188,-31.9239765309,48.1173000677
 H,0,40.6256028143,-30.5063209167,46.2852665737
 H,0,39.140390189,-32.1202490017,49.0210304138
 H,0,36.8893261354,-32.534124617,44.0149156208
 H,0,35.1702775802,-32.0523861334,43.7889163584
 N,0,35.1009019726,-29.334783019,41.5030456463
 C,0,34.0397906401,-29.0684984065,40.5289995785
 C,0,32.838741621,-30.0057903991,40.7617155238
 O,0,32.1854389634,-30.4078149701,39.7781961219
 C,0,33.6540980369,-27.5667798635,40.5337249217
 C,0,33.0647435155,-27.097153654,41.8737813812
 C,0,32.6997639214,-27.250405758,39.3737975982
 H,0,35.3936954295,-28.5931797513,42.1224375171
 H,0,34.4025457507,-29.3394709137,39.5330106124
 H,0,34.5935052906,-27.0231619744,40.3572174405
 H,0,33.7279978901,-27.2874401861,42.7271371866
 H,0,32.8823008017,-26.0186708608,41.8439407057
 H,0,32.1108571032,-27.5944369987,42.0805452451
 H,0,31.745367463,-27.7740024743,39.4913186601
 H,0,33.1263936052,-27.548941846,38.4106025858
 H,0,32.4962775948,-26.1756462052,39.338406046
 N,0,32.5422548078,-30.318458382,42.0341197635
 C,0,31.9958593334,-31.6233687106,42.4418207425
 C,0,33.0937947695,-32.3334902213,43.2826982883
 O,0,33.1701956647,-33.5555872377,43.239211102
 C,0,30.6810955962,-31.5045211202,43.2260860357
 C,0,29.5008170797,-30.8757610983,42.467553081
 C,0,28.9034859004,-31.7318962087,41.3398351703
 N,0,29.8101885586,-31.7930676235,40.1852729052
 C,0,30.0789665594,-32.8634393941,39.444430491
 N,0,29.2313798447,-33.9083536733,39.3817754996
 N,0,31.2292709138,-32.904771951,38.7526298086
 O,0,33.8766848973,-31.5209749691,43.9312352335
 H,0,33.2017041463,-29.9968123992,42.7402205535
 H,0,31.866257159,-32.2314403496,41.5481855169
 H,0,30.8767252069,-30.9062793423,44.1243436862
 H,0,30.4128181922,-32.5106800178,43.5722550191
 H,0,29.7924073993,-29.8962929505,42.0642883075
 H,0,28.6901044804,-30.6813726109,43.1791595485
 H,0,27.9414749607,-31.3121260324,41.0226074377
 H,0,28.7249636554,-32.7499643169,41.7066714432
 H,0,30.5100680557,-31.0437395816,40.0911010335
 H,0,29.5420342098,-34.8074460853,39.0440296216
 H,0,28.3097614299,-33.8556073417,39.7877881469
 H,0,31.3309127769,-33.5137628731,37.9539878006
 H,0,31.8928805254,-32.139937409,38.875087585
 Recover connectivity data from disk.
                           ----------------------------
                           !    Current Parameters    !
                           ! (Angstroms and Degrees)  !
 --------------------------                            --------------------------
 ! Name  Definition              Value                                          !
 --------------------------------------------------------------------------------
 ! R1    R(1,2)                  1.4975                                         !
 ! R2    R(1,13)                 1.0246                                         !
 ! R3    R(1,22)                 1.0215                                         !
 ! R4    R(1,23)                 1.1462                                         !
 ! R5    R(2,3)                  1.5436                                         !
 ! R6    R(2,5)                  1.5429                                         !
 ! R7    R(2,14)                 1.0962                                         !
 ! R8    R(3,4)                  1.2288                                         !
 ! R9    R(3,24)                 1.3567                                         !
 ! R10   R(5,6)                  1.5132                                         !
 ! R11   R(5,15)                 1.0974                                         !
 ! R12   R(5,16)                 1.0946                                         !
 ! R13   R(6,7)                  1.4016                                         !
 ! R14   R(6,8)                  1.4035                                         !
 ! R15   R(7,9)                  1.3948                                         !
 ! R16   R(7,17)                 1.0881                                         !
 ! R17   R(8,10)                 1.3896                                         !
 ! R18   R(8,18)                 1.0882                                         !
 ! R19   R(9,11)                 1.4003                                         !
 ! R20   R(9,19)                 1.0878                                         !
 ! R21   R(10,11)                1.4022                                         !
 ! R22   R(10,20)                1.0849                                         !
 ! R23   R(11,12)                1.3592                                         !
 ! R24   R(12,21)                0.9702                                         !
 ! R25   R(24,25)                1.4648                                         !
 ! R26   R(24,31)                1.0096                                         !
 ! R27   R(25,26)                1.5412                                         !
 ! R28   R(25,28)                1.5505                                         !
 ! R29   R(25,32)                1.0941                                         !
 ! R30   R(26,27)                1.2473                                         !
 ! R31   R(26,40)                1.3434                                         !
 ! R32   R(28,29)                1.5374                                         !
 ! R33   R(28,30)                1.535                                          !
 ! R34   R(28,33)                1.0996                                         !
 ! R35   R(29,34)                1.0974                                         !
 ! R36   R(29,35)                1.0942                                         !
 ! R37   R(29,36)                1.0954                                         !
 ! R38   R(30,37)                1.0949                                         !
 ! R39   R(30,38)                1.0949                                         !
 ! R40   R(30,39)                1.0944                                         !
 ! R41   R(40,41)                1.4723                                         !
 ! R42   R(40,52)                1.0183                                         !
 ! R43   R(41,42)                1.5546                                         !
 ! R44   R(41,44)                1.5355                                         !
 ! R45   R(41,53)                1.0886                                         !
 ! R46   R(42,43)                1.2253                                         !
 ! R47   R(42,51)                1.3014                                         !
 ! R48   R(44,45)                1.5375                                         !
 ! R49   R(44,54)                1.0968                                         !
 ! R50   R(44,55)                1.0973                                         !
 ! R51   R(45,46)                1.5367                                         !
 ! R52   R(45,56)                1.0986                                         !
 ! R53   R(45,57)                1.0961                                         !
 ! R54   R(46,47)                1.4693                                         !
 ! R55   R(46,58)                1.0965                                         !
 ! R56   R(46,59)                1.0968                                         !
 ! R57   R(47,48)                1.3292                                         !
 ! R58   R(47,60)                1.0297                                         !
 ! R59   R(48,49)                1.3469                                         !
 ! R60   R(48,50)                1.3429                                         !
 ! R61   R(49,61)                1.0094                                         !
 ! R62   R(49,62)                1.0085                                         !
 ! R63   R(50,63)                1.0095                                         !
 ! R64   R(50,64)                1.02                                           !
 ! A1    A(2,1,13)             110.0215                                         !
 ! A2    A(2,1,22)             111.5874                                         !
 ! A3    A(2,1,23)             105.388                                          !
 ! A4    A(13,1,22)            111.107                                          !
 ! A5    A(13,1,23)            106.3667                                         !
 ! A6    A(22,1,23)            112.0985                                         !
 ! A7    A(1,2,3)              104.3198                                         !
 ! A8    A(1,2,5)              109.4673                                         !
 ! A9    A(1,2,14)             108.1495                                         !
 ! A10   A(3,2,5)              116.4804                                         !
 ! A11   A(3,2,14)             107.9768                                         !
 ! A12   A(5,2,14)             110.0499                                         !
 ! A13   A(2,3,4)              119.3777                                         !
 ! A14   A(2,3,24)             118.2103                                         !
 ! A15   A(4,3,24)             122.3794                                         !
 ! A16   A(2,5,6)              112.3572                                         !
 ! A17   A(2,5,15)             107.8908                                         !
 ! A18   A(2,5,16)             108.3048                                         !
 ! A19   A(6,5,15)             109.9813                                         !
 ! A20   A(6,5,16)             109.8542                                         !
 ! A21   A(15,5,16)            108.3443                                         !
 ! A22   A(5,6,7)              120.286                                          !
 ! A23   A(5,6,8)              121.2269                                         !
 ! A24   A(7,6,8)              118.4306                                         !
 ! A25   A(6,7,9)              120.9609                                         !
 ! A26   A(6,7,17)             119.5646                                         !
 ! A27   A(9,7,17)             119.4744                                         !
 ! A28   A(6,8,10)             121.1958                                         !
 ! A29   A(6,8,18)             119.7186                                         !
 ! A30   A(10,8,18)            119.0814                                         !
 ! A31   A(7,9,11)             119.8702                                         !
 ! A32   A(7,9,19)             120.0184                                         !
 ! A33   A(11,9,19)            120.1095                                         !
 ! A34   A(8,10,11)            119.7896                                         !
 ! A35   A(8,10,20)            121.4526                                         !
 ! A36   A(11,10,20)           118.7559                                         !
 ! A37   A(9,11,10)            119.7522                                         !
 ! A38   A(9,11,12)            123.2756                                         !
 ! A39   A(10,11,12)           116.9721                                         !
 ! A40   A(11,12,21)           110.0341                                         !
 ! A41   A(3,24,25)            120.4205                                         !
 ! A42   A(3,24,31)            120.3383                                         !
 ! A43   A(25,24,31)           118.9796                                         !
 ! A44   A(24,25,26)           110.7059                                         !
 ! A45   A(24,25,28)           110.7475                                         !
 ! A46   A(24,25,32)           108.6715                                         !
 ! A47   A(26,25,28)           113.2491                                         !
 ! A48   A(26,25,32)           104.1951                                         !
 ! A49   A(28,25,32)           108.974                                          !
 ! A50   A(25,26,27)           119.0218                                         !
 ! A51   A(25,26,40)           117.1658                                         !
 ! A52   A(27,26,40)           123.7965                                         !
 ! A53   A(25,28,29)           113.196                                          !
 ! A54   A(25,28,30)           110.6083                                         !
 ! A55   A(25,28,33)           105.4158                                         !
 ! A56   A(29,28,30)           110.938                                          !
 ! A57   A(29,28,33)           108.4447                                         !
 ! A58   A(30,28,33)           107.9353                                         !
 ! A59   A(28,29,34)           113.1496                                         !
 ! A60   A(28,29,35)           109.9512                                         !
 ! A61   A(28,29,36)           111.0796                                         !
 ! A62   A(34,29,35)           107.0303                                         !
 ! A63   A(34,29,36)           107.5056                                         !
 ! A64   A(35,29,36)           107.9024                                         !
 ! A65   A(28,30,37)           111.2387                                         !
 ! A66   A(28,30,38)           111.487                                          !
 ! A67   A(28,30,39)           110.0251                                         !
 ! A68   A(37,30,38)           107.6781                                         !
 ! A69   A(37,30,39)           108.1206                                         !
 ! A70   A(38,30,39)           108.1648                                         !
 ! A71   A(26,40,41)           123.4005                                         !
 ! A72   A(26,40,52)           116.1254                                         !
 ! A73   A(41,40,52)           109.1648                                         !
 ! A74   A(40,41,42)           107.0101                                         !
 ! A75   A(40,41,44)           112.9924                                         !
 ! A76   A(40,41,53)           108.1759                                         !
 ! A77   A(42,41,44)           111.3342                                         !
 ! A78   A(42,41,53)           105.8394                                         !
 ! A79   A(44,41,53)           111.1346                                         !
 ! A80   A(41,42,43)           118.7146                                         !
 ! A81   A(41,42,51)           114.1553                                         !
 ! A82   A(43,42,51)           127.0776                                         !
 ! A83   A(41,44,45)           115.9116                                         !
 ! A84   A(41,44,54)           107.9256                                         !
 ! A85   A(41,44,55)           107.4268                                         !
 ! A86   A(45,44,54)           108.5368                                         !
 ! A87   A(45,44,55)           110.0558                                         !
 ! A88   A(54,44,55)           106.5805                                         !
 ! A89   A(44,45,46)           115.6339                                         !
 ! A90   A(44,45,56)           109.9954                                         !
 ! A91   A(44,45,57)           108.6647                                         !
 ! A92   A(46,45,56)           109.2984                                         !
 ! A93   A(46,45,57)           106.7221                                         !
 ! A94   A(56,45,57)           106.0514                                         !
 ! A95   A(45,46,47)           111.0985                                         !
 ! A96   A(45,46,58)           109.8804                                         !
 ! A97   A(45,46,59)           109.5701                                         !
 ! A98   A(47,46,58)           109.2694                                         !
 ! A99   A(47,46,59)           108.9427                                         !
 ! A100  A(58,46,59)           108.018                                          !
 ! A101  A(46,47,48)           126.6034                                         !
 ! A102  A(46,47,60)           117.4531                                         !
 ! A103  A(48,47,60)           113.429                                          !
 ! A104  A(47,48,49)           121.5605                                         !
 ! A105  A(47,48,50)           119.0193                                         !
 ! A106  A(49,48,50)           119.4178                                         !
 ! A107  A(48,49,61)           120.8564                                         !
 ! A108  A(48,49,62)           121.0498                                         !
 ! A109  A(61,49,62)           117.5513                                         !
 ! A110  A(48,50,63)           120.8214                                         !
 ! A111  A(48,50,64)           118.1877                                         !
 ! A112  A(63,50,64)           118.8062                                         !
 ! D1    D(13,1,2,3)            48.0726                                         !
 ! D2    D(13,1,2,5)           173.4053                                         !
 ! D3    D(13,1,2,14)          -66.6915                                         !
 ! D4    D(22,1,2,3)           171.8775                                         !
 ! D5    D(22,1,2,5)           -62.7898                                         !
 ! D6    D(22,1,2,14)           57.1134                                         !
 ! D7    D(23,1,2,3)           -66.2171                                         !
 ! D8    D(23,1,2,5)            59.1156                                         !
 ! D9    D(23,1,2,14)          179.0188                                         !
 ! D10   D(1,2,3,4)            -37.483                                          !
 ! D11   D(1,2,3,24)           140.4888                                         !
 ! D12   D(5,2,3,4)           -158.2422                                         !
 ! D13   D(5,2,3,24)            19.7296                                         !
 ! D14   D(14,2,3,4)            77.4028                                         !
 ! D15   D(14,2,3,24)         -104.6254                                         !
 ! D16   D(1,2,5,6)             50.9964                                         !
 ! D17   D(1,2,5,15)           172.3981                                         !
 ! D18   D(1,2,5,16)           -70.5283                                         !
 ! D19   D(3,2,5,6)            168.9764                                         !
 ! D20   D(3,2,5,15)           -69.6219                                         !
 ! D21   D(3,2,5,16)            47.4518                                         !
 ! D22   D(14,2,5,6)           -67.7349                                         !
 ! D23   D(14,2,5,15)           53.6668                                         !
 ! D24   D(14,2,5,16)          170.7404                                         !
 ! D25   D(2,3,24,25)         -173.1056                                         !
 ! D26   D(2,3,24,31)            0.9601                                         !
 ! D27   D(4,3,24,25)            4.8016                                         !
 ! D28   D(4,3,24,31)          178.8673                                         !
 ! D29   D(2,5,6,7)            -95.0705                                         !
 ! D30   D(2,5,6,8)             82.1525                                         !
 ! D31   D(15,5,6,7)           144.731                                          !
 ! D32   D(15,5,6,8)           -38.046                                          !
 ! D33   D(16,5,6,7)            25.565                                          !
 ! D34   D(16,5,6,8)          -157.212                                          !
 ! D35   D(5,6,7,9)            177.4449                                         !
 ! D36   D(5,6,7,17)            -2.4658                                         !
 ! D37   D(8,6,7,9)              0.1452                                         !
 ! D38   D(8,6,7,17)          -179.7655                                         !
 ! D39   D(5,6,8,10)          -177.5478                                         !
 ! D40   D(5,6,8,18)             3.2046                                         !
 ! D41   D(7,6,8,10)            -0.2746                                         !
 ! D42   D(7,6,8,18)          -179.5222                                         !
 ! D43   D(6,7,9,11)             0.1016                                         !
 ! D44   D(6,7,9,19)           179.6043                                         !
 ! D45   D(17,7,9,11)         -179.9876                                         !
 ! D46   D(17,7,9,19)           -0.4849                                         !
 ! D47   D(6,8,10,11)            0.155                                          !
 ! D48   D(6,8,10,20)         -179.3337                                         !
 ! D49   D(18,8,10,11)         179.4073                                         !
 ! D50   D(18,8,10,20)          -0.0814                                         !
 ! D51   D(7,9,11,10)           -0.2243                                         !
 ! D52   D(7,9,11,12)          179.8446                                         !
 ! D53   D(19,9,11,10)        -179.7266                                         !
 ! D54   D(19,9,11,12)           0.3424                                         !
 ! D55   D(8,10,11,9)            0.0977                                         !
 ! D56   D(8,10,11,12)        -179.967                                          !
 ! D57   D(20,10,11,9)         179.6002                                         !
 ! D58   D(20,10,11,12)         -0.4645                                         !
 ! D59   D(9,11,12,21)          -1.6809                                         !
 ! D60   D(10,11,12,21)        178.3863                                         !
 ! D61   D(3,24,25,26)          54.1749                                         !
 ! D62   D(3,24,25,28)        -179.3526                                         !
 ! D63   D(3,24,25,32)         -59.682                                          !
 ! D64   D(31,24,25,26)       -119.9707                                         !
 ! D65   D(31,24,25,28)          6.5018                                         !
 ! D66   D(31,24,25,32)        126.1724                                         !
 ! D67   D(24,25,26,27)       -145.4443                                         !
 ! D68   D(24,25,26,40)         35.9513                                         !
 ! D69   D(28,25,26,27)         89.4861                                         !
 ! D70   D(28,25,26,40)        -89.1183                                         !
 ! D71   D(32,25,26,27)        -28.788                                          !
 ! D72   D(32,25,26,40)        152.6076                                         !
 ! D73   D(24,25,28,29)        -63.3225                                         !
 ! D74   D(24,25,28,30)        171.4723                                         !
 ! D75   D(24,25,28,33)         55.0513                                         !
 ! D76   D(26,25,28,29)         61.7247                                         !
 ! D77   D(26,25,28,30)        -63.4806                                         !
 ! D78   D(26,25,28,33)       -179.9016                                         !
 ! D79   D(32,25,28,29)        177.1886                                         !
 ! D80   D(32,25,28,30)         51.9833                                         !
 ! D81   D(32,25,28,33)        -64.4377                                         !
 ! D82   D(25,26,40,41)       -146.4126                                         !
 ! D83   D(25,26,40,52)         -6.8272                                         !
 ! D84   D(27,26,40,41)         35.056                                          !
 ! D85   D(27,26,40,52)        174.6414                                         !
 ! D86   D(25,28,29,34)         56.1503                                         !
 ! D87   D(25,28,29,35)        175.7587                                         !
 ! D88   D(25,28,29,36)        -64.8743                                         !
 ! D89   D(30,28,29,34)       -178.8223                                         !
 ! D90   D(30,28,29,35)        -59.2139                                         !
 ! D91   D(30,28,29,36)         60.1531                                         !
 ! D92   D(33,28,29,34)        -60.4511                                         !
 ! D93   D(33,28,29,35)         59.1573                                         !
 ! D94   D(33,28,29,36)        178.5243                                         !
 ! D95   D(25,28,30,37)         64.6509                                         !
 ! D96   D(25,28,30,38)        -55.556                                          !
 ! D97   D(25,28,30,39)       -175.5604                                         !
 ! D98   D(29,28,30,37)        -61.8218                                         !
 ! D99   D(29,28,30,38)        177.9713                                         !
 ! D100  D(29,28,30,39)         57.9669                                         !
 ! D101  D(33,28,30,37)        179.499                                          !
 ! D102  D(33,28,30,38)         59.2921                                         !
 ! D103  D(33,28,30,39)        -60.7122                                         !
 ! D104  D(26,40,41,42)        112.2063                                         !
 ! D105  D(26,40,41,44)       -124.8993                                         !
 ! D106  D(26,40,41,53)         -1.4255                                         !
 ! D107  D(52,40,41,42)        -29.7523                                         !
 ! D108  D(52,40,41,44)         93.142                                          !
 ! D109  D(52,40,41,53)       -143.3841                                         !
 ! D110  D(40,41,42,43)       -147.9103                                         !
 ! D111  D(40,41,42,51)         29.643                                          !
 ! D112  D(44,41,42,43)         88.1711                                         !
 ! D113  D(44,41,42,51)        -94.2755                                         !
 ! D114  D(53,41,42,43)        -32.7043                                         !
 ! D115  D(53,41,42,51)        144.849                                          !
 ! D116  D(40,41,44,45)         62.3011                                         !
 ! D117  D(40,41,44,54)        -59.6122                                         !
 ! D118  D(40,41,44,55)       -174.1875                                         !
 ! D119  D(42,41,44,45)       -177.242                                          !
 ! D120  D(42,41,44,54)         60.8448                                         !
 ! D121  D(42,41,44,55)        -53.7306                                         !
 ! D122  D(53,41,44,45)        -59.5232                                         !
 ! D123  D(53,41,44,54)        178.5635                                         !
 ! D124  D(53,41,44,55)         63.9882                                         !
 ! D125  D(41,44,45,46)         70.2405                                         !
 ! D126  D(41,44,45,56)        -54.1401                                         !
 ! D127  D(41,44,45,57)       -169.8292                                         !
 ! D128  D(54,44,45,46)       -168.1715                                         !
 ! D129  D(54,44,45,56)         67.4479                                         !
 ! D130  D(54,44,45,57)        -48.2412                                         !
 ! D131  D(55,44,45,46)        -51.8877                                         !
 ! D132  D(55,44,45,56)       -176.2683                                         !
 ! D133  D(55,44,45,57)         68.0427                                         !
 ! D134  D(44,45,46,47)        -72.08                                           !
 ! D135  D(44,45,46,58)        166.8783                                         !
 ! D136  D(44,45,46,59)         48.3472                                         !
 ! D137  D(56,45,46,47)         52.6618                                         !
 ! D138  D(56,45,46,58)        -68.3799                                         !
 ! D139  D(56,45,46,59)        173.0891                                         !
 ! D140  D(57,45,46,47)        166.9357                                         !
 ! D141  D(57,45,46,58)         45.894                                          !
 ! D142  D(57,45,46,59)        -72.6371                                         !
 ! D143  D(45,46,47,48)        138.9012                                         !
 ! D144  D(45,46,47,60)        -21.8382                                         !
 ! D145  D(58,46,47,48)        -99.6986                                         !
 ! D146  D(58,46,47,60)         99.5619                                         !
 ! D147  D(59,46,47,48)         18.1035                                         !
 ! D148  D(59,46,47,60)       -142.636                                          !
 ! D149  D(46,47,48,49)         22.5893                                         !
 ! D150  D(46,47,48,50)       -156.8332                                         !
 ! D151  D(60,47,48,49)       -176.0144                                         !
 ! D152  D(60,47,48,50)          4.5632                                         !
 ! D153  D(47,48,49,61)       -162.474                                          !
 ! D154  D(47,48,49,62)          8.8717                                         !
 ! D155  D(50,48,49,61)         16.9462                                         !
 ! D156  D(50,48,49,62)       -171.7082                                         !
 ! D157  D(47,48,50,63)       -158.4718                                         !
 ! D158  D(47,48,50,64)          4.5333                                         !
 ! D159  D(49,48,50,63)         22.0932                                         !
 ! D160  D(49,48,50,64)       -174.9017                                         !
 --------------------------------------------------------------------------------
 Symmetry turned off by external request.
 Stoichiometry    C20H33N6O5(1+)
 Framework group  C1[X(C20H33N6O5)]
 Deg. of freedom   186
 Full point group                 C1      NOp   1
                          Input orientation:                          
 ---------------------------------------------------------------------
 Center     Atomic      Atomic             Coordinates (Angstroms)
 Number     Number       Type             X           Y           Z
 ---------------------------------------------------------------------
      1          7           0       36.211842  -32.192042   43.331212
      2          6           0       36.596485  -30.845618   42.800592
      3          6           0       35.597797  -30.588338   41.652066
      4          8           0       35.252404  -31.522883   40.932926
      5          6           0       36.598407  -29.820012   43.953286
      6          6           0       37.406089  -30.292285   45.142598
      7          6           0       36.775082  -30.940784   46.212943
      8          6           0       38.801563  -30.146818   45.178453
      9          6           0       37.512492  -31.428777   47.291595
     10          6           0       39.547921  -30.625941   46.248207
     11          6           0       38.903696  -31.270562   47.313913
     12          8           0       39.688664  -31.715814   48.330243
     13          1           0       36.100905  -32.855212   42.558044
     14          1           0       37.599574  -30.923882   42.365523
     15          1           0       37.013336  -28.880135   43.567594
     16          1           0       35.561753  -29.640576   44.255533
     17          1           0       35.694375  -31.067059   46.202332
     18          1           0       39.312230  -29.639804   44.362205
     19          1           0       37.006288  -31.923977   48.117300
     20          1           0       40.625603  -30.506321   46.285267
     21          1           0       39.140390  -32.120249   49.021030
     22          1           0       36.889326  -32.534125   44.014916
     23          1           0       35.170278  -32.052386   43.788916
     24          7           0       35.100902  -29.334783   41.503046
     25          6           0       34.039791  -29.068498   40.529000
     26          6           0       32.838742  -30.005790   40.761716
     27          8           0       32.185439  -30.407815   39.778196
     28          6           0       33.654098  -27.566780   40.533725
     29          6           0       33.064744  -27.097154   41.873781
     30          6           0       32.699764  -27.250406   39.373798
     31          1           0       35.393695  -28.593180   42.122438
     32          1           0       34.402546  -29.339471   39.533011
     33          1           0       34.593505  -27.023162   40.357217
     34          1           0       33.727998  -27.287440   42.727137
     35          1           0       32.882301  -26.018671   41.843941
     36          1           0       32.110857  -27.594437   42.080545
     37          1           0       31.745367  -27.774002   39.491319
     38          1           0       33.126394  -27.548942   38.410603
     39          1           0       32.496278  -26.175646   39.338406
     40          7           0       32.542255  -30.318458   42.034120
     41          6           0       31.995859  -31.623369   42.441821
     42          6           0       33.093795  -32.333490   43.282698
     43          8           0       33.170196  -33.555587   43.239211
     44          6           0       30.681096  -31.504521   43.226086
     45          6           0       29.500817  -30.875761   42.467553
     46          6           0       28.903486  -31.731896   41.339835
     47          7           0       29.810189  -31.793068   40.185273
     48          6           0       30.078967  -32.863439   39.444430
     49          7           0       29.231380  -33.908354   39.381775
     50          7           0       31.229271  -32.904772   38.752630
     51          8           0       33.876685  -31.520975   43.931235
     52          1           0       33.201704  -29.996812   42.740221
     53          1           0       31.866257  -32.231440   41.548186
     54          1           0       30.876725  -30.906279   44.124344
     55          1           0       30.412818  -32.510680   43.572255
     56          1           0       29.792407  -29.896293   42.064288
     57          1           0       28.690104  -30.681373   43.179160
     58          1           0       27.941475  -31.312126   41.022607
     59          1           0       28.724964  -32.749964   41.706671
     60          1           0       30.510068  -31.043740   40.091101
     61          1           0       29.542034  -34.807446   39.044030
     62          1           0       28.309761  -33.855607   39.787788
     63          1           0       31.330913  -33.513763   37.953988
     64          1           0       31.892881  -32.139937   38.875088
 ---------------------------------------------------------------------
 Rotational constants (GHZ):           0.2519742           0.0729422           0.0649010
 Standard basis: 6-31G(d) (6D, 7F)
   531 basis functions,  1000 primitive gaussians,   531 cartesian basis functions
   117 alpha electrons      117 beta electrons
       nuclear repulsion energy      3373.0123420795 Hartrees.
 NAtoms=   64 NActive=   64 NUniq=   64 SFac= 1.00D+00 NAtFMM=   60 NAOKFM=T Big=T
 Integral buffers will be    131072 words long.
 Raffenetti 2 integral format.
 Two-electron integral symmetry is turned off.
 Nuclear repulsion after empirical dispersion term =     3372.9252267575 Hartrees.
 One-electron integrals computed using PRISM.
 NBasis=   531 RedAO= T EigKep=  4.34D-04  NBF=   531
 NBsUse=   531 1.00D-06 EigRej= -1.00D+00 NBFU=   531
 Initial guess from the checkpoint file:  "conf-460.chk"
 B after Tr=     0.000000    0.000000    0.000000
         Rot=    1.000000    0.000000    0.000000    0.000000 Ang=   0.00 deg.
 Requested convergence on RMS density matrix=1.00D-08 within 128 cycles.
 Requested convergence on MAX density matrix=1.00D-06.
 Requested convergence on             energy=1.00D-06.
 No special actions if energy rises.
 SCF Done:  E(RB3LYP) =  -1486.59424608     A.U. after    1 cycles
            NFock=  1  Conv=0.19D-08     -V/T= 2.0094

 **********************************************************************

            Population analysis using the SCF Density.

 **********************************************************************

 Alpha  occ. eigenvalues --  -19.25584 -19.23713 -19.23327 -19.19772 -19.17787
 Alpha  occ. eigenvalues --  -14.50854 -14.50799 -14.49258 -14.49089 -14.48034
 Alpha  occ. eigenvalues --  -14.45882 -10.46269 -10.40717 -10.40158 -10.36293
 Alpha  occ. eigenvalues --  -10.36080 -10.34732 -10.34065 -10.33315 -10.31708
 Alpha  occ. eigenvalues --  -10.30444 -10.30297 -10.29741 -10.28494 -10.28308
 Alpha  occ. eigenvalues --  -10.27870 -10.27858 -10.27554 -10.27344 -10.26815
 Alpha  occ. eigenvalues --  -10.26562  -1.15925  -1.15066  -1.14333  -1.13807
 Alpha  occ. eigenvalues --   -1.12235  -1.06682  -1.04779  -1.04133  -1.03489
 Alpha  occ. eigenvalues --   -1.02964  -1.01898  -0.94233  -0.91375  -0.90231
 Alpha  occ. eigenvalues --   -0.88538  -0.85206  -0.83385  -0.83125  -0.80694
 Alpha  occ. eigenvalues --   -0.78632  -0.77988  -0.76215  -0.75760  -0.72500
 Alpha  occ. eigenvalues --   -0.71615  -0.70700  -0.70308  -0.68598  -0.68294
 Alpha  occ. eigenvalues --   -0.67860  -0.67688  -0.66774  -0.65867  -0.63921
 Alpha  occ. eigenvalues --   -0.63494  -0.63078  -0.62624  -0.62063  -0.59751
 Alpha  occ. eigenvalues --   -0.59491  -0.58224  -0.57743  -0.57357  -0.56592
 Alpha  occ. eigenvalues --   -0.56156  -0.55311  -0.54823  -0.54316  -0.53964
 Alpha  occ. eigenvalues --   -0.53594  -0.53023  -0.52657  -0.51396  -0.51323
 Alpha  occ. eigenvalues --   -0.50653  -0.50572  -0.50027  -0.49911  -0.49193
 Alpha  occ. eigenvalues --   -0.48636  -0.48428  -0.48300  -0.48276  -0.47157
 Alpha  occ. eigenvalues --   -0.46608  -0.45843  -0.45336  -0.44853  -0.44541
 Alpha  occ. eigenvalues --   -0.44080  -0.43950  -0.43480  -0.43086  -0.42000
 Alpha  occ. eigenvalues --   -0.41414  -0.41346  -0.39171  -0.38621  -0.37786
 Alpha  occ. eigenvalues --   -0.37286  -0.36222  -0.34890  -0.34453  -0.33796
 Alpha  occ. eigenvalues --   -0.31151  -0.30262
 Alpha virt. eigenvalues --   -0.10659  -0.10506  -0.09563  -0.08946  -0.07813
 Alpha virt. eigenvalues --   -0.06154  -0.03914  -0.03692  -0.02595  -0.01811
 Alpha virt. eigenvalues --   -0.01247  -0.00526  -0.00279   0.00547   0.00742
 Alpha virt. eigenvalues --    0.01258   0.01685   0.02274   0.02893   0.03208
 Alpha virt. eigenvalues --    0.03924   0.04380   0.05042   0.05228   0.05497
 Alpha virt. eigenvalues --    0.05828   0.06071   0.06601   0.06871   0.07273
 Alpha virt. eigenvalues --    0.07706   0.07947   0.08172   0.08701   0.09311
 Alpha virt. eigenvalues --    0.09466   0.09679   0.09895   0.10255   0.10494
 Alpha virt. eigenvalues --    0.11460   0.11776   0.12508   0.12671   0.13429
 Alpha virt. eigenvalues --    0.14124   0.14527   0.14587   0.15022   0.15680
 Alpha virt. eigenvalues --    0.16822   0.17054   0.17413   0.18315   0.19009
 Alpha virt. eigenvalues --    0.19429   0.20673   0.23311   0.24491   0.25077
 Alpha virt. eigenvalues --    0.25667   0.26112   0.26846   0.27203   0.27353
 Alpha virt. eigenvalues --    0.28706   0.30733   0.33451   0.34682   0.38253
 Alpha virt. eigenvalues --    0.38668   0.39384   0.40228   0.40405   0.41315
 Alpha virt. eigenvalues --    0.41443   0.42583   0.42747   0.43061   0.43455
 Alpha virt. eigenvalues --    0.43559   0.43774   0.44560   0.45104   0.45391
 Alpha virt. eigenvalues --    0.45613   0.46104   0.47282   0.48006   0.48610
 Alpha virt. eigenvalues --    0.49100   0.49558   0.49866   0.50366   0.50660
 Alpha virt. eigenvalues --    0.51189   0.51791   0.52548   0.53220   0.53447
 Alpha virt. eigenvalues --    0.53706   0.53806   0.54356   0.55061   0.55703
 Alpha virt. eigenvalues --    0.55837   0.56450   0.56668   0.57126   0.57940
 Alpha virt. eigenvalues --    0.58288   0.58875   0.59310   0.60421   0.61036
 Alpha virt. eigenvalues --    0.61678   0.62637   0.62892   0.63968   0.64436
 Alpha virt. eigenvalues --    0.65128   0.65365   0.67075   0.67324   0.67834
 Alpha virt. eigenvalues --    0.68259   0.69146   0.70059   0.71248   0.71816
 Alpha virt. eigenvalues --    0.72037   0.72677   0.73216   0.73457   0.73965
 Alpha virt. eigenvalues --    0.74236   0.74411   0.75071   0.75443   0.75736
 Alpha virt. eigenvalues --    0.75977   0.76050   0.76996   0.77178   0.77489
 Alpha virt. eigenvalues --    0.77770   0.78883   0.79134   0.80187   0.80862
 Alpha virt. eigenvalues --    0.80937   0.81762   0.81838   0.82155   0.82687
 Alpha virt. eigenvalues --    0.83349   0.84127   0.84414   0.84681   0.84811
 Alpha virt. eigenvalues --    0.85254   0.85987   0.86607   0.87294   0.87618
 Alpha virt. eigenvalues --    0.87868   0.88307   0.88759   0.89165   0.90066
 Alpha virt. eigenvalues --    0.90809   0.91475   0.91896   0.92736   0.93674
 Alpha virt. eigenvalues --    0.94172   0.95664   0.96709   0.97157   0.98578
 Alpha virt. eigenvalues --    0.99003   1.00391   1.01228   1.01785   1.02169
 Alpha virt. eigenvalues --    1.02435   1.04065   1.05558   1.06313   1.07304
 Alpha virt. eigenvalues --    1.07952   1.08775   1.10602   1.11329   1.11807
 Alpha virt. eigenvalues --    1.12603   1.13326   1.14469   1.14984   1.16434
 Alpha virt. eigenvalues --    1.16965   1.17475   1.18232   1.20334   1.21193
 Alpha virt. eigenvalues --    1.21919   1.22198   1.23050   1.24731   1.25037
 Alpha virt. eigenvalues --    1.26547   1.28636   1.28888   1.30502   1.31347
 Alpha virt. eigenvalues --    1.31968   1.34496   1.35231   1.35620   1.36093
 Alpha virt. eigenvalues --    1.36999   1.37892   1.38548   1.38899   1.40460
 Alpha virt. eigenvalues --    1.40843   1.42579   1.42639   1.43312   1.44717
 Alpha virt. eigenvalues --    1.45082   1.46852   1.47837   1.49017   1.51006
 Alpha virt. eigenvalues --    1.52614   1.53528   1.55847   1.57167   1.58455
 Alpha virt. eigenvalues --    1.58877   1.59740   1.60605   1.61075   1.63014
 Alpha virt. eigenvalues --    1.64464   1.64564   1.65063   1.65725   1.66690
 Alpha virt. eigenvalues --    1.67359   1.67893   1.68769   1.70210   1.70779
 Alpha virt. eigenvalues --    1.71411   1.72325   1.72709   1.72962   1.73442
 Alpha virt. eigenvalues --    1.74309   1.76134   1.76814   1.77243   1.77914
 Alpha virt. eigenvalues --    1.78251   1.78740   1.79153   1.79945   1.80616
 Alpha virt. eigenvalues --    1.81279   1.82383   1.83095   1.84259   1.84686
 Alpha virt. eigenvalues --    1.86056   1.86367   1.86999   1.87462   1.88102
 Alpha virt. eigenvalues --    1.88908   1.89624   1.89981   1.90097   1.90834
 Alpha virt. eigenvalues --    1.91404   1.92310   1.93010   1.94378   1.94734
 Alpha virt. eigenvalues --    1.95680   1.97004   1.97420   1.97836   1.98288
 Alpha virt. eigenvalues --    1.99138   2.00709   2.02515   2.03208   2.03309
 Alpha virt. eigenvalues --    2.04324   2.05120   2.05759   2.05919   2.07410
 Alpha virt. eigenvalues --    2.07636   2.08236   2.09011   2.11677   2.12130
 Alpha virt. eigenvalues --    2.13228   2.14810   2.16189   2.16851   2.17972
 Alpha virt. eigenvalues --    2.18454   2.19223   2.20687   2.22219   2.22713
 Alpha virt. eigenvalues --    2.22896   2.24676   2.25298   2.26636   2.27828
 Alpha virt. eigenvalues --    2.28434   2.28732   2.29797   2.30700   2.32460
 Alpha virt. eigenvalues --    2.32674   2.34105   2.34791   2.36185   2.37471
 Alpha virt. eigenvalues --    2.38001   2.39628   2.41086   2.41857   2.42992
 Alpha virt. eigenvalues --    2.43948   2.44857   2.46623   2.46832   2.48458
 Alpha virt. eigenvalues --    2.49566   2.50161   2.51809   2.52213   2.53616
 Alpha virt. eigenvalues --    2.53749   2.55611   2.56453   2.57083   2.57988
 Alpha virt. eigenvalues --    2.59808   2.60696   2.61296   2.62229   2.63810
 Alpha virt. eigenvalues --    2.66255   2.67433   2.69115   2.69687   2.70546
 Alpha virt. eigenvalues --    2.74185   2.76948   2.77941   2.80807   2.81723
 Alpha virt. eigenvalues --    2.85453   2.87186   2.88268   2.91176   2.92559
 Alpha virt. eigenvalues --    2.93128   2.94865   2.97800   3.03260   3.04047
 Alpha virt. eigenvalues --    3.08584   3.10848   3.33063   3.67384   3.75941
 Alpha virt. eigenvalues --    3.78010   3.86610   3.88731   3.91145   3.94474
 Alpha virt. eigenvalues --    3.99032   4.03235   4.03740   4.04561   4.05620
 Alpha virt. eigenvalues --    4.11691   4.14195   4.17493   4.18267   4.20227
 Alpha virt. eigenvalues --    4.21133   4.23680   4.25419   4.27310   4.29349
 Alpha virt. eigenvalues --    4.35493   4.37367   4.40076   4.42406   4.51139
 Alpha virt. eigenvalues --    4.57283   4.62851   4.63925   4.67071
          Condensed to atoms (all electrons):
 Mulliken charges:
               1
     1  N   -0.772690
     2  C   -0.088768
     3  C    0.653480
     4  O   -0.529039
     5  C   -0.398927
     6  C    0.122603
     7  C   -0.215691
     8  C   -0.188750
     9  C   -0.190696
    10  C   -0.154889
    11  C    0.358161
    12  O   -0.625856
    13  H    0.401607
    14  H    0.205532
    15  H    0.165369
    16  H    0.193550
    17  H    0.166497
    18  H    0.136276
    19  H    0.143616
    20  H    0.164179
    21  H    0.418572
    22  H    0.387718
    23  H    0.462697
    24  N   -0.656800
    25  C    0.001666
    26  C    0.626918
    27  O   -0.594168
    28  C   -0.129256
    29  C   -0.469347
    30  C   -0.447926
    31  H    0.354940
    32  H    0.195689
    33  H    0.155471
    34  H    0.135736
    35  H    0.177860
    36  H    0.162526
    37  H    0.157518
    38  H    0.161451
    39  H    0.165885
    40  N   -0.570014
    41  C   -0.073002
    42  C    0.608426
    43  O   -0.522025
    44  C   -0.268062
    45  C   -0.307300
    46  C   -0.149291
    47  N   -0.608718
    48  C    0.790287
    49  N   -0.760668
    50  N   -0.775977
    51  O   -0.675013
    52  H    0.359665
    53  H    0.158296
    54  H    0.166392
    55  H    0.169163
    56  H    0.164381
    57  H    0.175545
    58  H    0.184937
    59  H    0.167232
    60  H    0.404049
    61  H    0.379705
    62  H    0.382462
    63  H    0.367000
    64  H    0.419818
 Sum of Mulliken charges =   1.00000
 Mulliken charges with hydrogens summed into heavy atoms:
               1
     1  N    0.479332
     2  C    0.116764
     3  C    0.653480
     4  O   -0.529039
     5  C   -0.040008
     6  C    0.122603
     7  C   -0.049194
     8  C   -0.052474
     9  C   -0.047080
    10  C    0.009290
    11  C    0.358161
    12  O   -0.207285
    24  N   -0.301860
    25  C    0.197355
    26  C    0.626918
    27  O   -0.594168
    28  C    0.026214
    29  C    0.006774
    30  C    0.036929
    40  N   -0.210349
    41  C    0.085295
    42  C    0.608426
    43  O   -0.522025
    44  C    0.067493
    45  C    0.032626
    46  C    0.202879
    47  N   -0.204669
    48  C    0.790287
    49  N    0.001498
    50  N    0.010841
    51  O   -0.675013
 Electronic spatial extent (au):  <R**2>=        3294380.6966
 Charge=              1.0000 electrons
 Dipole moment (field-independent basis, Debye):
    X=            156.8146    Y=           -150.5675    Z=            198.7368  Tot=            294.5466
 Quadrupole moment (field-independent basis, Debye-Ang):
   XX=           5018.5374   YY=           4570.0955   ZZ=           8087.9179
   XY=          -4892.6317   XZ=           6526.0314   YZ=          -6217.8248
 Traceless Quadrupole moment (field-independent basis, Debye-Ang):
   XX=           -873.6463   YY=          -1322.0881   ZZ=           2195.7343
   XY=          -4892.6317   XZ=           6526.0314   YZ=          -6217.8248
 Octapole moment (field-independent basis, Debye-Ang**2):
  XXX=         156542.3470  YYY=        -134129.0636  ZZZ=         323012.7739  XYY=         147487.4825
  XXY=        -155972.2398  XXZ=         209971.3196  XZZ=         267051.2980  YZZ=        -252733.1198
  YYZ=         188047.0492  XYZ=        -203305.7117
 Hexadecapole moment (field-independent basis, Debye-Ang**3):
 XXXX=        4707302.2054 YYYY=        3784273.1003 ZZZZ=       12607942.4362 XXXY=       -4849802.4559
 XXXZ=        6580482.1485 YYYX=       -4286320.8138 YYYZ=       -5486943.1915 ZZZX=       10721335.8500
 ZZZY=      -10088448.4990 XXYY=        4667448.0415 XXZZ=        8629152.7659 YYZZ=        7614987.0995
 XXYZ=       -6518885.3802 YYXZ=        6109134.1976 ZZXY=       -8312860.7637
 N-N= 3.372925226757D+03 E-N=-1.018422441799D+04  KE= 1.472701905454D+03
 Unable to Open any file for archive entry.
 1\1\GINC-AMR-014\SP\RB3LYP\6-31G(d)\C20H33N6O5(1+)\KENGMITH\31-May-202
 2\0\\# B3LYP/6-31G* empiricaldispersion=gd3 guess=read geom=check nosy
 mm integral(ultrafinegrid)\\Candidate Structure: Conf:460 Charge calc 
 in gas phase\\1,1\N,0,36.2118417785,-32.1920416714,43.3312124618\C,0,3
 6.5964852713,-30.8456183267,42.8005916391\C,0,35.5977970902,-30.588338
 2017,41.6520660119\O,0,35.2524035536,-31.5228827356,40.9329262669\C,0,
 36.5984068375,-29.820012469,43.9532857323\C,0,37.4060888456,-30.292284
 9428,45.1425976564\C,0,36.7750819962,-30.9407843512,46.2129427318\C,0,
 38.8015626774,-30.1468175412,45.1784527738\C,0,37.5124916905,-31.42877
 70686,47.2915952006\C,0,39.5479205143,-30.6259410788,46.2482074396\C,0
 ,38.9036956058,-31.2705619872,47.3139132106\O,0,39.6886638575,-31.7158
 141851,48.3302434054\H,0,36.100905096,-32.8552124284,42.558043857\H,0,
 37.5995738987,-30.9238817801,42.3655226141\H,0,37.0133361692,-28.88013
 45011,43.5675940582\H,0,35.5617532334,-29.6405760672,44.2555325385\H,0
 ,35.694375046,-31.0670593651,46.2023321063\H,0,39.3122302877,-29.63980
 36082,44.3622054396\H,0,37.0062882188,-31.9239765309,48.1173000677\H,0
 ,40.6256028143,-30.5063209167,46.2852665737\H,0,39.140390189,-32.12024
 90017,49.0210304138\H,0,36.8893261354,-32.534124617,44.0149156208\H,0,
 35.1702775802,-32.0523861334,43.7889163584\N,0,35.1009019726,-29.33478
 3019,41.5030456463\C,0,34.0397906401,-29.0684984065,40.5289995785\C,0,
 32.838741621,-30.0057903991,40.7617155238\O,0,32.1854389634,-30.407814
 9701,39.7781961219\C,0,33.6540980369,-27.5667798635,40.5337249217\C,0,
 33.0647435155,-27.097153654,41.8737813812\C,0,32.6997639214,-27.250405
 758,39.3737975982\H,0,35.3936954295,-28.5931797513,42.1224375171\H,0,3
 4.4025457507,-29.3394709137,39.5330106124\H,0,34.5935052906,-27.023161
 9744,40.3572174405\H,0,33.7279978901,-27.2874401861,42.7271371866\H,0,
 32.8823008017,-26.0186708608,41.8439407057\H,0,32.1108571032,-27.59443
 69987,42.0805452451\H,0,31.745367463,-27.7740024743,39.4913186601\H,0,
 33.1263936052,-27.548941846,38.4106025858\H,0,32.4962775948,-26.175646
 2052,39.338406046\N,0,32.5422548078,-30.318458382,42.0341197635\C,0,31
 .9958593334,-31.6233687106,42.4418207425\C,0,33.0937947695,-32.3334902
 213,43.2826982883\O,0,33.1701956647,-33.5555872377,43.239211102\C,0,30
 .6810955962,-31.5045211202,43.2260860357\C,0,29.5008170797,-30.8757610
 983,42.467553081\C,0,28.9034859004,-31.7318962087,41.3398351703\N,0,29
 .8101885586,-31.7930676235,40.1852729052\C,0,30.0789665594,-32.8634393
 941,39.444430491\N,0,29.2313798447,-33.9083536733,39.3817754996\N,0,31
 .2292709138,-32.904771951,38.7526298086\O,0,33.8766848973,-31.52097496
 91,43.9312352335\H,0,33.2017041463,-29.9968123992,42.7402205535\H,0,31
 .866257159,-32.2314403496,41.5481855169\H,0,30.8767252069,-30.90627934
 23,44.1243436862\H,0,30.4128181922,-32.5106800178,43.5722550191\H,0,29
 .7924073993,-29.8962929505,42.0642883075\H,0,28.6901044804,-30.6813726
 109,43.1791595485\H,0,27.9414749607,-31.3121260324,41.0226074377\H,0,2
 8.7249636554,-32.7499643169,41.7066714432\H,0,30.5100680557,-31.043739
 5816,40.0911010335\H,0,29.5420342098,-34.8074460853,39.0440296216\H,0,
 28.3097614299,-33.8556073417,39.7877881469\H,0,31.3309127769,-33.51376
 28731,37.9539878006\H,0,31.8928805254,-32.139937409,38.875087585\\Vers
 ion=ES64L-G16RevC.01\HF=-1486.5942461\RMSD=1.913e-09\Dipole=-2.5204832
 ,-0.8945705,-2.2937381\Quadrupole=-649.5345743,-982.940085,1632.474659
 3,-3637.55179,4851.9443728,-4622.8003557\PG=C01 [X(C20H33N6O5)]\\@
 The archive entry for this job was punched.


 SIGN SEEN IN A RESTAURANT-
 WE RESERVE THE RIGHT TO SERVE REFUSE TO ANYONE.
 Job cpu time:       0 days  0 hours  1 minutes  7.0 seconds.
 Elapsed time:       0 days  0 hours  0 minutes 17.3 seconds.
 File lengths (MBytes):  RWF=    264 Int=      0 D2E=      0 Chk=     40 Scr=     16
 Normal termination of Gaussian 16 at Tue May 31 11:31:49 2022.
