 Entering Gaussian System, Link 0=/opt/software/Gaussian/g16-AVX2-C.01/g16/g16
 Input=charge-conf-34.com
 Output=charge-conf-34.log
 Initial command:
 /opt/software/Gaussian/g16-AVX2-C.01/g16/l1.exe "/mnt/gs18/scratch/users/kengmith/Gau-14100.inp" -scrdir="/mnt/gs18/scratch/users/kengmith/"
 Entering Link 1 = /opt/software/Gaussian/g16-AVX2-C.01/g16/l1.exe PID=     14110.
  
 Copyright (c) 1988-2019, Gaussian, Inc.  All Rights Reserved.
  
 This is part of the Gaussian(R) 16 program.  It is based on
 the Gaussian(R) 09 system (copyright 2009, Gaussian, Inc.),
 the Gaussian(R) 03 system (copyright 2003, Gaussian, Inc.),
 the Gaussian(R) 98 system (copyright 1998, Gaussian, Inc.),
 the Gaussian(R) 94 system (copyright 1995, Gaussian, Inc.),
 the Gaussian 92(TM) system (copyright 1992, Gaussian, Inc.),
 the Gaussian 90(TM) system (copyright 1990, Gaussian, Inc.),
 the Gaussian 88(TM) system (copyright 1988, Gaussian, Inc.),
 the Gaussian 86(TM) system (copyright 1986, Carnegie Mellon
 University), and the Gaussian 82(TM) system (copyright 1983,
 Carnegie Mellon University). Gaussian is a federally registered
 trademark of Gaussian, Inc.
  
 This software contains proprietary and confidential information,
 including trade secrets, belonging to Gaussian, Inc.
  
 This software is provided under written license and may be
 used, copied, transmitted, or stored only in accord with that
 written license.
  
 The following legend is applicable only to US Government
 contracts under FAR:
  
                    RESTRICTED RIGHTS LEGEND
  
 Use, reproduction and disclosure by the US Government is
 subject to restrictions as set forth in subparagraphs (a)
 and (c) of the Commercial Computer Software - Restricted
 Rights clause in FAR 52.227-19.
  
 Gaussian, Inc.
 340 Quinnipiac St., Bldg. 40, Wallingford CT 06492
  
  
 ---------------------------------------------------------------
 Warning -- This program may not be used in any manner that
 competes with the business of Gaussian, Inc. or will provide
 assistance to any competitor of Gaussian, Inc.  The licensee
 of this program is prohibited from giving any competitor of
 Gaussian, Inc. access to this program.  By using this program,
 the user acknowledges that Gaussian, Inc. is engaged in the
 business of creating and licensing software in the field of
 computational chemistry and represents and warrants to the
 licensee that it is not a competitor of Gaussian, Inc. and that
 it will not use this program in any manner prohibited above.
 ---------------------------------------------------------------
  

 Cite this work as:
 Gaussian 16, Revision C.01,
 M. J. Frisch, G. W. Trucks, H. B. Schlegel, G. E. Scuseria, 
 M. A. Robb, J. R. Cheeseman, G. Scalmani, V. Barone, 
 G. A. Petersson, H. Nakatsuji, X. Li, M. Caricato, A. V. Marenich, 
 J. Bloino, B. G. Janesko, R. Gomperts, B. Mennucci, H. P. Hratchian, 
 J. V. Ortiz, A. F. Izmaylov, J. L. Sonnenberg, D. Williams-Young, 
 F. Ding, F. Lipparini, F. Egidi, J. Goings, B. Peng, A. Petrone, 
 T. Henderson, D. Ranasinghe, V. G. Zakrzewski, J. Gao, N. Rega, 
 G. Zheng, W. Liang, M. Hada, M. Ehara, K. Toyota, R. Fukuda, 
 J. Hasegawa, M. Ishida, T. Nakajima, Y. Honda, O. Kitao, H. Nakai, 
 T. Vreven, K. Throssell, J. A. Montgomery, Jr., J. E. Peralta, 
 F. Ogliaro, M. J. Bearpark, J. J. Heyd, E. N. Brothers, K. N. Kudin, 
 V. N. Staroverov, T. A. Keith, R. Kobayashi, J. Normand, 
 K. Raghavachari, A. P. Rendell, J. C. Burant, S. S. Iyengar, 
 J. Tomasi, M. Cossi, J. M. Millam, M. Klene, C. Adamo, R. Cammi, 
 J. W. Ochterski, R. L. Martin, K. Morokuma, O. Farkas, 
 J. B. Foresman, and D. J. Fox, Gaussian, Inc., Wallingford CT, 2019.
 
 ******************************************
 Gaussian 16:  ES64L-G16RevC.01  3-Jul-2019
                31-May-2022 
 ******************************************
 %mem=8gb
 %nproc=4
 Will use up to    4 processors via shared memory.
 %chk=conf-34.chk
 ----------------------------------------------------------------------
 # B3LYP/6-31G* empiricaldispersion=gd3 guess=read geom=check nosymm in
 tegral(ultrafinegrid)
 ----------------------------------------------------------------------
 1/29=2,38=1,172=1/1;
 2/12=2,15=1,40=1/2;
 3/5=1,6=6,7=1,11=2,14=-4,25=1,30=1,74=-5,75=-5,116=-2,124=31/1,2,3;
 4/5=1/1;
 5/5=2,38=6/2;
 6/7=2,8=2,9=2,10=2,28=1/1;
 99/5=1,9=1/99;
 -----------------------------------------------------
 Candidate Structure: Conf:34 Charge calc in gas phase
 -----------------------------------------------------
 Structure from the checkpoint file:  "conf-34.chk"
 Charge =  1 Multiplicity = 1
 Redundant internal coordinates found in file.  (old form).
 N,0,31.6942693764,-31.4047760732,42.2719303134
 C,0,32.2109969117,-32.7239957903,42.7762320227
 C,0,33.5008152903,-32.9440372548,41.9538324854
 O,0,33.5499655934,-32.4983367872,40.8086777437
 C,0,32.3618333019,-32.6760099521,44.3094495224
 C,0,31.1162914057,-32.1526205367,44.9914446507
 C,0,31.0156465319,-30.7975210806,45.3349900689
 C,0,30.0166134819,-32.9886436987,45.2407487448
 C,0,29.8537413855,-30.289172563,45.916090027
 C,0,28.8541481665,-32.4954280917,45.8207955228
 C,0,28.7683466591,-31.1385705726,46.1641151696
 O,0,27.6059101915,-30.7181974631,46.7293592946
 H,0,30.7520324135,-31.210621303,42.616912629
 H,0,31.4787662755,-33.488137414,42.4922694266
 H,0,32.5810688632,-33.693773974,44.6552246856
 H,0,33.2176153602,-32.0398105813,44.5527929921
 H,0,31.8563300069,-30.1332148791,45.1455817566
 H,0,30.0750962833,-34.0458600169,44.9899667059
 H,0,29.794752659,-29.2367500163,46.1851423171
 H,0,28.0063691228,-33.1404801489,46.0263497389
 H,0,27.6683494598,-29.7775292402,46.9584904966
 H,0,32.4035361244,-30.6413580815,42.6081335986
 H,0,31.7357359844,-31.4110549008,41.2458636431
 N,0,34.5336580725,-33.5799096862,42.5474326724
 C,0,35.8476155737,-33.6474996293,41.8901418816
 C,0,36.3752225121,-32.2288920087,41.5594019598
 O,0,37.0190696686,-32.0285266215,40.5415891385
 C,0,36.8332718393,-34.4943394346,42.7310946612
 C,0,37.1356160457,-33.8815177124,44.1088264613
 C,0,38.1290493386,-34.7387387842,41.9446251174
 H,0,34.4449063385,-33.9152404176,43.4961122917
 H,0,35.715007964,-34.1169968947,40.9118977529
 H,0,36.3393625572,-35.4654774927,42.8839394553
 H,0,37.6431577134,-32.9168318868,44.0060238044
 H,0,36.2346141407,-33.7176776475,44.7155210022
 H,0,37.7869387917,-34.5496853729,44.6807571114
 H,0,38.7989035251,-35.3885738875,42.5168892121
 H,0,38.650975952,-33.7985620347,41.7411964445
 H,0,37.926399762,-35.218896943,40.9817173174
 N,0,36.0874873684,-31.2553512648,42.4845386527
 C,0,35.9182786761,-29.8685403804,42.0575080266
 C,0,34.4058381119,-29.5436398054,42.1290125866
 O,0,33.8923186548,-28.7753846931,41.2795732614
 C,0,36.7927375465,-28.8948817946,42.8852321966
 C,0,37.1579578582,-27.5989098013,42.1392261277
 C,0,36.0178196856,-26.560521907,42.0469455327
 N,0,36.0942630138,-25.7483489338,40.8179652941
 C,0,35.8327773776,-26.2144086865,39.588590875
 N,0,35.2531021501,-27.3948954962,39.4063019676
 N,0,36.1666548225,-25.4451836259,38.5248116564
 O,0,33.7620345043,-30.1083805396,43.0732489072
 H,0,35.4272222706,-31.5080172133,43.2098113707
 H,0,36.236658871,-29.8285646626,41.0124390316
 H,0,37.7204962761,-29.4285737689,43.1143736261
 H,0,36.309826117,-28.6777289662,43.8473520411
 H,0,37.4771068644,-27.8690407166,41.1254189106
 H,0,38.0262252605,-27.131588604,42.6170634642
 H,0,36.0585618348,-25.8559590245,42.8806387939
 H,0,35.0354412476,-27.0315423713,42.0815527018
 H,0,36.3971013297,-24.7877207209,40.8933309421
 H,0,35.1992852512,-27.7757501244,38.4717217588
 H,0,34.7685125675,-27.9459659363,40.166901997
 H,0,35.8883378759,-25.7098758742,37.5914937195
 H,0,36.8769679101,-24.7319948133,38.6014110376
 Recover connectivity data from disk.
                           ----------------------------
                           !    Current Parameters    !
                           ! (Angstroms and Degrees)  !
 --------------------------                            --------------------------
 ! Name  Definition              Value                                          !
 --------------------------------------------------------------------------------
 ! R1    R(1,2)                  1.5039                                         !
 ! R2    R(1,13)                 1.022                                          !
 ! R3    R(1,22)                 1.0949                                         !
 ! R4    R(1,23)                 1.0269                                         !
 ! R5    R(2,3)                  1.5454                                         !
 ! R6    R(2,5)                  1.5414                                         !
 ! R7    R(2,14)                 1.0958                                         !
 ! R8    R(3,4)                  1.2298                                         !
 ! R9    R(3,24)                 1.3504                                         !
 ! R10   R(5,6)                  1.5134                                         !
 ! R11   R(5,15)                 1.097                                          !
 ! R12   R(5,16)                 1.0938                                         !
 ! R13   R(6,7)                  1.4016                                         !
 ! R14   R(6,8)                  1.4037                                         !
 ! R15   R(7,9)                  1.395                                          !
 ! R16   R(7,17)                 1.0881                                         !
 ! R17   R(8,10)                 1.3896                                         !
 ! R18   R(8,18)                 1.0881                                         !
 ! R19   R(9,11)                 1.4004                                         !
 ! R20   R(9,19)                 1.0879                                         !
 ! R21   R(10,11)                1.4022                                         !
 ! R22   R(10,20)                1.0849                                         !
 ! R23   R(11,12)                1.3592                                         !
 ! R24   R(12,21)                0.9702                                         !
 ! R25   R(24,25)                1.4707                                         !
 ! R26   R(24,31)                1.0101                                         !
 ! R27   R(25,26)                1.5493                                         !
 ! R28   R(25,28)                1.5479                                         !
 ! R29   R(25,32)                1.0931                                         !
 ! R30   R(26,27)                1.2209                                         !
 ! R31   R(26,40)                1.3735                                         !
 ! R32   R(28,29)                1.5379                                         !
 ! R33   R(28,30)                1.5354                                         !
 ! R34   R(28,33)                1.1002                                         !
 ! R35   R(29,34)                1.0949                                         !
 ! R36   R(29,35)                1.0985                                         !
 ! R37   R(29,36)                1.0944                                         !
 ! R38   R(30,37)                1.0947                                         !
 ! R39   R(30,38)                1.0944                                         !
 ! R40   R(30,39)                1.0949                                         !
 ! R41   R(40,41)                1.4609                                         !
 ! R42   R(40,52)                1.0128                                         !
 ! R43   R(41,42)                1.5486                                         !
 ! R44   R(41,44)                1.5485                                         !
 ! R45   R(41,53)                1.0932                                         !
 ! R46   R(42,43)                1.2552                                         !
 ! R47   R(42,51)                1.2748                                         !
 ! R48   R(44,45)                1.5393                                         !
 ! R49   R(44,54)                1.0946                                         !
 ! R50   R(44,55)                1.0982                                         !
 ! R51   R(45,46)                1.5449                                         !
 ! R52   R(45,56)                1.0966                                         !
 ! R53   R(45,57)                1.0957                                         !
 ! R54   R(46,47)                1.4751                                         !
 ! R55   R(46,58)                1.0923                                         !
 ! R56   R(46,59)                1.09                                           !
 ! R57   R(47,48)                1.3405                                         !
 ! R58   R(47,60)                1.01                                           !
 ! R59   R(48,49)                1.3277                                         !
 ! R60   R(48,50)                1.3546                                         !
 ! R61   R(49,61)                1.0106                                         !
 ! R62   R(49,62)                1.0569                                         !
 ! R63   R(50,63)                1.0093                                         !
 ! R64   R(50,64)                1.0095                                         !
 ! A1    A(2,1,13)             111.7296                                         !
 ! A2    A(2,1,22)             106.6231                                         !
 ! A3    A(2,1,23)             108.41                                           !
 ! A4    A(13,1,22)            111.1679                                         !
 ! A5    A(13,1,23)            112.065                                          !
 ! A6    A(22,1,23)            106.553                                          !
 ! A7    A(1,2,3)              103.4864                                         !
 ! A8    A(1,2,5)              109.8692                                         !
 ! A9    A(1,2,14)             107.171                                          !
 ! A10   A(3,2,5)              116.878                                          !
 ! A11   A(3,2,14)             108.6939                                         !
 ! A12   A(5,2,14)             110.1743                                         !
 ! A13   A(2,3,4)              118.5071                                         !
 ! A14   A(2,3,24)             118.1302                                         !
 ! A15   A(4,3,24)             123.327                                          !
 ! A16   A(2,5,6)              112.2395                                         !
 ! A17   A(2,5,15)             107.7101                                         !
 ! A18   A(2,5,16)             108.42                                           !
 ! A19   A(6,5,15)             110.077                                          !
 ! A20   A(6,5,16)             110.0301                                         !
 ! A21   A(15,5,16)            108.2489                                         !
 ! A22   A(5,6,7)              120.2594                                         !
 ! A23   A(5,6,8)              121.2525                                         !
 ! A24   A(7,6,8)              118.4272                                         !
 ! A25   A(6,7,9)              120.9454                                         !
 ! A26   A(6,7,17)             119.4807                                         !
 ! A27   A(9,7,17)             119.5739                                         !
 ! A28   A(6,8,10)             121.2047                                         !
 ! A29   A(6,8,18)             119.7112                                         !
 ! A30   A(10,8,18)            119.0786                                         !
 ! A31   A(7,9,11)             119.8873                                         !
 ! A32   A(7,9,19)             120.0469                                         !
 ! A33   A(11,9,19)            120.063                                          !
 ! A34   A(8,10,11)            119.7901                                         !
 ! A35   A(8,10,20)            121.449                                          !
 ! A36   A(11,10,20)           118.758                                          !
 ! A37   A(9,11,10)            119.744                                          !
 ! A38   A(9,11,12)            123.2931                                         !
 ! A39   A(10,11,12)           116.9628                                         !
 ! A40   A(11,12,21)           110.0623                                         !
 ! A41   A(3,24,25)            120.5649                                         !
 ! A42   A(3,24,31)            120.1308                                         !
 ! A43   A(25,24,31)           118.8798                                         !
 ! A44   A(24,25,26)           110.9515                                         !
 ! A45   A(24,25,28)           110.5632                                         !
 ! A46   A(24,25,32)           108.1374                                         !
 ! A47   A(26,25,28)           113.5839                                         !
 ! A48   A(26,25,32)           104.0956                                         !
 ! A49   A(28,25,32)           109.1756                                         !
 ! A50   A(25,26,27)           120.5195                                         !
 ! A51   A(25,26,40)           115.7152                                         !
 ! A52   A(27,26,40)           123.7571                                         !
 ! A53   A(25,28,29)           113.1974                                         !
 ! A54   A(25,28,30)           110.2558                                         !
 ! A55   A(25,28,33)           105.8152                                         !
 ! A56   A(29,28,30)           110.8796                                         !
 ! A57   A(29,28,33)           108.3935                                         !
 ! A58   A(30,28,33)           108.0312                                         !
 ! A59   A(28,29,34)           110.9843                                         !
 ! A60   A(28,29,35)           113.1385                                         !
 ! A61   A(28,29,36)           109.9915                                         !
 ! A62   A(34,29,35)           107.4969                                         !
 ! A63   A(34,29,36)           108.126                                          !
 ! A64   A(35,29,36)           106.8917                                         !
 ! A65   A(28,30,37)           110.0674                                         !
 ! A66   A(28,30,38)           111.1589                                         !
 ! A67   A(28,30,39)           111.3517                                         !
 ! A68   A(37,30,38)           108.3789                                         !
 ! A69   A(37,30,39)           108.2192                                         !
 ! A70   A(38,30,39)           107.5498                                         !
 ! A71   A(26,40,41)           120.0159                                         !
 ! A72   A(26,40,52)           116.2368                                         !
 ! A73   A(41,40,52)           111.7542                                         !
 ! A74   A(40,41,42)           107.3848                                         !
 ! A75   A(40,41,44)           112.0388                                         !
 ! A76   A(40,41,53)           106.2848                                         !
 ! A77   A(42,41,44)           113.2617                                         !
 ! A78   A(42,41,53)           108.7174                                         !
 ! A79   A(44,41,53)           108.8769                                         !
 ! A80   A(41,42,43)           119.7843                                         !
 ! A81   A(41,42,51)           115.7538                                         !
 ! A82   A(43,42,51)           124.4591                                         !
 ! A83   A(41,44,45)           113.8481                                         !
 ! A84   A(41,44,54)           106.4977                                         !
 ! A85   A(41,44,55)           110.1398                                         !
 ! A86   A(45,44,54)           108.111                                          !
 ! A87   A(45,44,55)           111.2502                                         !
 ! A88   A(54,44,55)           106.6023                                         !
 ! A89   A(44,45,46)           114.8181                                         !
 ! A90   A(44,45,56)           108.0407                                         !
 ! A91   A(44,45,57)           109.6175                                         !
 ! A92   A(46,45,56)           108.973                                          !
 ! A93   A(46,45,57)           108.9165                                         !
 ! A94   A(56,45,57)           106.1169                                         !
 ! A95   A(45,46,47)           112.4329                                         !
 ! A96   A(45,46,58)           111.1269                                         !
 ! A97   A(45,46,59)           111.8875                                         !
 ! A98   A(47,46,58)           106.1901                                         !
 ! A99   A(47,46,59)           108.1246                                         !
 ! A100  A(58,46,59)           106.7452                                         !
 ! A101  A(46,47,48)           124.2327                                         !
 ! A102  A(46,47,60)           118.4914                                         !
 ! A103  A(48,47,60)           117.2311                                         !
 ! A104  A(47,48,49)           121.3459                                         !
 ! A105  A(47,48,50)           118.3407                                         !
 ! A106  A(49,48,50)           120.3118                                         !
 ! A107  A(48,49,61)           119.0304                                         !
 ! A108  A(48,49,62)           124.4001                                         !
 ! A109  A(61,49,62)           116.3973                                         !
 ! A110  A(48,50,63)           120.6197                                         !
 ! A111  A(48,50,64)           121.0008                                         !
 ! A112  A(63,50,64)           116.7114                                         !
 ! D1    D(13,1,2,3)           170.064                                          !
 ! D2    D(13,1,2,5)           -64.4144                                         !
 ! D3    D(13,1,2,14)           55.2872                                         !
 ! D4    D(22,1,2,3)           -68.2902                                         !
 ! D5    D(22,1,2,5)            57.2315                                         !
 ! D6    D(22,1,2,14)          176.933                                          !
 ! D7    D(23,1,2,3)            46.0868                                         !
 ! D8    D(23,1,2,5)           171.6084                                         !
 ! D9    D(23,1,2,14)          -68.69                                           !
 ! D10   D(1,2,3,4)            -31.6115                                         !
 ! D11   D(1,2,3,24)           146.2852                                         !
 ! D12   D(5,2,3,4)           -152.5019                                         !
 ! D13   D(5,2,3,24)            25.3948                                         !
 ! D14   D(14,2,3,4)            82.0702                                         !
 ! D15   D(14,2,3,24)         -100.0331                                         !
 ! D16   D(1,2,5,6)             49.6453                                         !
 ! D17   D(1,2,5,15)           170.9706                                         !
 ! D18   D(1,2,5,16)           -72.1041                                         !
 ! D19   D(3,2,5,6)            167.1084                                         !
 ! D20   D(3,2,5,15)           -71.5662                                         !
 ! D21   D(3,2,5,16)            45.359                                          !
 ! D22   D(14,2,5,6)           -68.2081                                         !
 ! D23   D(14,2,5,15)           53.1172                                         !
 ! D24   D(14,2,5,16)          170.0425                                         !
 ! D25   D(2,3,24,25)         -171.1172                                         !
 ! D26   D(2,3,24,31)            1.3227                                         !
 ! D27   D(4,3,24,25)            6.6707                                         !
 ! D28   D(4,3,24,31)          179.1106                                         !
 ! D29   D(2,5,6,7)            -95.4667                                         !
 ! D30   D(2,5,6,8)             81.6509                                         !
 ! D31   D(15,5,6,7)           144.5755                                         !
 ! D32   D(15,5,6,8)           -38.3068                                         !
 ! D33   D(16,5,6,7)            25.3586                                         !
 ! D34   D(16,5,6,8)          -157.5237                                         !
 ! D35   D(5,6,7,9)            177.4555                                         !
 ! D36   D(5,6,7,17)            -2.5563                                         !
 ! D37   D(8,6,7,9)              0.2574                                         !
 ! D38   D(8,6,7,17)          -179.7544                                         !
 ! D39   D(5,6,8,10)          -177.5209                                         !
 ! D40   D(5,6,8,18)             3.3433                                         !
 ! D41   D(7,6,8,10)            -0.3518                                         !
 ! D42   D(7,6,8,18)          -179.4876                                         !
 ! D43   D(6,7,9,11)             0.058                                          !
 ! D44   D(6,7,9,19)           179.4497                                         !
 ! D45   D(17,7,9,11)         -179.9301                                         !
 ! D46   D(17,7,9,19)           -0.5385                                         !
 ! D47   D(6,8,10,11)            0.1286                                         !
 ! D48   D(6,8,10,20)         -179.2426                                         !
 ! D49   D(18,8,10,11)         179.2698                                         !
 ! D50   D(18,8,10,20)          -0.1015                                         !
 ! D51   D(7,9,11,10)           -0.2865                                         !
 ! D52   D(7,9,11,12)          179.839                                          !
 ! D53   D(19,9,11,10)        -179.6781                                         !
 ! D54   D(19,9,11,12)           0.4474                                         !
 ! D55   D(8,10,11,9)            0.1943                                         !
 ! D56   D(8,10,11,12)        -179.9233                                         !
 ! D57   D(20,10,11,9)         179.5825                                         !
 ! D58   D(20,10,11,12)         -0.5351                                         !
 ! D59   D(9,11,12,21)          -2.4257                                         !
 ! D60   D(10,11,12,21)        177.6965                                         !
 ! D61   D(3,24,25,26)          56.2815                                         !
 ! D62   D(3,24,25,28)        -176.762                                          !
 ! D63   D(3,24,25,32)         -57.2869                                         !
 ! D64   D(31,24,25,26)       -116.2519                                         !
 ! D65   D(31,24,25,28)         10.7047                                         !
 ! D66   D(31,24,25,32)        130.1798                                         !
 ! D67   D(24,25,26,27)       -144.4524                                         !
 ! D68   D(24,25,26,40)         36.5512                                         !
 ! D69   D(28,25,26,27)         90.27                                           !
 ! D70   D(28,25,26,40)        -88.7264                                         !
 ! D71   D(32,25,26,27)        -28.3596                                         !
 ! D72   D(32,25,26,40)        152.644                                          !
 ! D73   D(24,25,28,29)        -63.693                                          !
 ! D74   D(24,25,28,30)        171.4546                                         !
 ! D75   D(24,25,28,33)         54.8742                                         !
 ! D76   D(26,25,28,29)         61.7917                                         !
 ! D77   D(26,25,28,30)        -63.0607                                         !
 ! D78   D(26,25,28,33)       -179.641                                          !
 ! D79   D(32,25,28,29)        177.4601                                         !
 ! D80   D(32,25,28,30)         52.6077                                         !
 ! D81   D(32,25,28,33)        -63.9726                                         !
 ! D82   D(25,26,40,41)       -149.9297                                         !
 ! D83   D(25,26,40,52)        -10.2952                                         !
 ! D84   D(27,26,40,41)         31.1102                                         !
 ! D85   D(27,26,40,52)        170.7447                                         !
 ! D86   D(25,28,29,34)        -63.7976                                         !
 ! D87   D(25,28,29,35)         57.1386                                         !
 ! D88   D(25,28,29,36)        176.5914                                         !
 ! D89   D(30,28,29,34)         60.7166                                         !
 ! D90   D(30,28,29,35)       -178.3473                                         !
 ! D91   D(30,28,29,36)        -58.8944                                         !
 ! D92   D(33,28,29,34)        179.1392                                         !
 ! D93   D(33,28,29,35)        -59.9247                                         !
 ! D94   D(33,28,29,36)         59.5282                                         !
 ! D95   D(25,28,30,37)       -176.5502                                         !
 ! D96   D(25,28,30,38)         63.3615                                         !
 ! D97   D(25,28,30,39)        -56.5372                                         !
 ! D98   D(29,28,30,37)         57.2824                                         !
 ! D99   D(29,28,30,38)        -62.8059                                         !
 ! D100  D(29,28,30,39)        177.2954                                         !
 ! D101  D(33,28,30,37)        -61.3594                                         !
 ! D102  D(33,28,30,38)        178.5522                                         !
 ! D103  D(33,28,30,39)         58.6536                                         !
 ! D104  D(26,40,41,42)        106.5187                                         !
 ! D105  D(26,40,41,44)       -128.5076                                         !
 ! D106  D(26,40,41,53)         -9.6987                                         !
 ! D107  D(52,40,41,42)        -34.7638                                         !
 ! D108  D(52,40,41,44)         90.2099                                         !
 ! D109  D(52,40,41,53)       -150.9812                                         !
 ! D110  D(40,41,42,43)       -144.9214                                         !
 ! D111  D(40,41,42,51)         34.4955                                         !
 ! D112  D(44,41,42,43)         90.8445                                         !
 ! D113  D(44,41,42,51)        -89.7386                                         !
 ! D114  D(53,41,42,43)        -30.3188                                         !
 ! D115  D(53,41,42,51)        149.0981                                         !
 ! D116  D(40,41,44,45)        153.9545                                         !
 ! D117  D(40,41,44,54)         34.9163                                         !
 ! D118  D(40,41,44,55)        -80.2989                                         !
 ! D119  D(42,41,44,45)        -84.3852                                         !
 ! D120  D(42,41,44,54)        156.5765                                         !
 ! D121  D(42,41,44,55)         41.3614                                         !
 ! D122  D(53,41,44,45)         36.6881                                         !
 ! D123  D(53,41,44,54)        -82.3502                                         !
 ! D124  D(53,41,44,55)        162.4347                                         !
 ! D125  D(41,44,45,46)         76.3598                                         !
 ! D126  D(41,44,45,56)        -45.4666                                         !
 ! D127  D(41,44,45,57)       -160.6827                                         !
 ! D128  D(54,44,45,46)       -165.5247                                         !
 ! D129  D(54,44,45,56)         72.6489                                         !
 ! D130  D(54,44,45,57)        -42.5672                                         !
 ! D131  D(55,44,45,46)        -48.7976                                         !
 ! D132  D(55,44,45,56)       -170.624                                          !
 ! D133  D(55,44,45,57)         74.1599                                         !
 ! D134  D(44,45,46,47)       -149.0443                                         !
 ! D135  D(44,45,46,58)         92.0798                                         !
 ! D136  D(44,45,46,59)        -27.1366                                         !
 ! D137  D(56,45,46,47)        -27.7257                                         !
 ! D138  D(56,45,46,58)       -146.6016                                         !
 ! D139  D(56,45,46,59)         94.1821                                         !
 ! D140  D(57,45,46,47)         87.6229                                         !
 ! D141  D(57,45,46,58)        -31.253                                          !
 ! D142  D(57,45,46,59)       -150.4694                                         !
 ! D143  D(45,46,47,48)         70.9349                                         !
 ! D144  D(45,46,47,60)       -106.5562                                         !
 ! D145  D(58,46,47,48)       -167.3356                                         !
 ! D146  D(58,46,47,60)         15.1733                                         !
 ! D147  D(59,46,47,48)        -53.086                                          !
 ! D148  D(59,46,47,60)        129.4229                                         !
 ! D149  D(46,47,48,49)         12.0911                                         !
 ! D150  D(46,47,48,50)       -168.363                                          !
 ! D151  D(60,47,48,49)       -170.3888                                         !
 ! D152  D(60,47,48,50)          9.1571                                         !
 ! D153  D(47,48,49,61)       -170.7579                                         !
 ! D154  D(47,48,49,62)         14.1903                                         !
 ! D155  D(50,48,49,61)          9.7051                                         !
 ! D156  D(50,48,49,62)       -165.3468                                         !
 ! D157  D(47,48,50,63)       -172.6984                                         !
 ! D158  D(47,48,50,64)         22.5036                                         !
 ! D159  D(49,48,50,63)          6.8523                                         !
 ! D160  D(49,48,50,64)       -157.9456                                         !
 --------------------------------------------------------------------------------
 Symmetry turned off by external request.
 Stoichiometry    C20H33N6O5(1+)
 Framework group  C1[X(C20H33N6O5)]
 Deg. of freedom   186
 Full point group                 C1      NOp   1
                          Input orientation:                          
 ---------------------------------------------------------------------
 Center     Atomic      Atomic             Coordinates (Angstroms)
 Number     Number       Type             X           Y           Z
 ---------------------------------------------------------------------
      1          7           0       31.694269  -31.404776   42.271930
      2          6           0       32.210997  -32.723996   42.776232
      3          6           0       33.500815  -32.944037   41.953832
      4          8           0       33.549966  -32.498337   40.808678
      5          6           0       32.361833  -32.676010   44.309450
      6          6           0       31.116291  -32.152621   44.991445
      7          6           0       31.015647  -30.797521   45.334990
      8          6           0       30.016613  -32.988644   45.240749
      9          6           0       29.853741  -30.289173   45.916090
     10          6           0       28.854148  -32.495428   45.820796
     11          6           0       28.768347  -31.138571   46.164115
     12          8           0       27.605910  -30.718197   46.729359
     13          1           0       30.752032  -31.210621   42.616913
     14          1           0       31.478766  -33.488137   42.492269
     15          1           0       32.581069  -33.693774   44.655225
     16          1           0       33.217615  -32.039811   44.552793
     17          1           0       31.856330  -30.133215   45.145582
     18          1           0       30.075096  -34.045860   44.989967
     19          1           0       29.794753  -29.236750   46.185142
     20          1           0       28.006369  -33.140480   46.026350
     21          1           0       27.668349  -29.777529   46.958490
     22          1           0       32.403536  -30.641358   42.608134
     23          1           0       31.735736  -31.411055   41.245864
     24          7           0       34.533658  -33.579910   42.547433
     25          6           0       35.847616  -33.647500   41.890142
     26          6           0       36.375223  -32.228892   41.559402
     27          8           0       37.019070  -32.028527   40.541589
     28          6           0       36.833272  -34.494339   42.731095
     29          6           0       37.135616  -33.881518   44.108826
     30          6           0       38.129049  -34.738739   41.944625
     31          1           0       34.444906  -33.915240   43.496112
     32          1           0       35.715008  -34.116997   40.911898
     33          1           0       36.339363  -35.465477   42.883939
     34          1           0       37.643158  -32.916832   44.006024
     35          1           0       36.234614  -33.717678   44.715521
     36          1           0       37.786939  -34.549685   44.680757
     37          1           0       38.798904  -35.388574   42.516889
     38          1           0       38.650976  -33.798562   41.741196
     39          1           0       37.926400  -35.218897   40.981717
     40          7           0       36.087487  -31.255351   42.484539
     41          6           0       35.918279  -29.868540   42.057508
     42          6           0       34.405838  -29.543640   42.129013
     43          8           0       33.892319  -28.775385   41.279573
     44          6           0       36.792738  -28.894882   42.885232
     45          6           0       37.157958  -27.598910   42.139226
     46          6           0       36.017820  -26.560522   42.046946
     47          7           0       36.094263  -25.748349   40.817965
     48          6           0       35.832777  -26.214409   39.588591
     49          7           0       35.253102  -27.394895   39.406302
     50          7           0       36.166655  -25.445184   38.524812
     51          8           0       33.762035  -30.108381   43.073249
     52          1           0       35.427222  -31.508017   43.209811
     53          1           0       36.236659  -29.828565   41.012439
     54          1           0       37.720496  -29.428574   43.114374
     55          1           0       36.309826  -28.677729   43.847352
     56          1           0       37.477107  -27.869041   41.125419
     57          1           0       38.026225  -27.131589   42.617063
     58          1           0       36.058562  -25.855959   42.880639
     59          1           0       35.035441  -27.031542   42.081553
     60          1           0       36.397101  -24.787721   40.893331
     61          1           0       35.199285  -27.775750   38.471722
     62          1           0       34.768513  -27.945966   40.166902
     63          1           0       35.888338  -25.709876   37.591494
     64          1           0       36.876968  -24.731995   38.601411
 ---------------------------------------------------------------------
 Rotational constants (GHZ):           0.1564032           0.0871130           0.0631516
 Standard basis: 6-31G(d) (6D, 7F)
   531 basis functions,  1000 primitive gaussians,   531 cartesian basis functions
   117 alpha electrons      117 beta electrons
       nuclear repulsion energy      3318.8364351268 Hartrees.
 NAtoms=   64 NActive=   64 NUniq=   64 SFac= 1.00D+00 NAtFMM=   60 NAOKFM=T Big=T
 Integral buffers will be    131072 words long.
 Raffenetti 2 integral format.
 Two-electron integral symmetry is turned off.
 Nuclear repulsion after empirical dispersion term =     3318.7524443280 Hartrees.
 One-electron integrals computed using PRISM.
 NBasis=   531 RedAO= T EigKep=  4.34D-04  NBF=   531
 NBsUse=   531 1.00D-06 EigRej= -1.00D+00 NBFU=   531
 Initial guess from the checkpoint file:  "conf-34.chk"
 B after Tr=     0.000000    0.000000    0.000000
         Rot=    1.000000    0.000000    0.000000    0.000000 Ang=   0.00 deg.
 Requested convergence on RMS density matrix=1.00D-08 within 128 cycles.
 Requested convergence on MAX density matrix=1.00D-06.
 Requested convergence on             energy=1.00D-06.
 No special actions if energy rises.
 SCF Done:  E(RB3LYP) =  -1486.58624919     A.U. after    2 cycles
            NFock=  2  Conv=0.73D-08     -V/T= 2.0094

 **********************************************************************

            Population analysis using the SCF Density.

 **********************************************************************

 Alpha  occ. eigenvalues --  -19.25992 -19.22705 -19.20719 -19.20480 -19.19076
 Alpha  occ. eigenvalues --  -14.52758 -14.50526 -14.50369 -14.48203 -14.47133
 Alpha  occ. eigenvalues --  -14.42946 -10.46272 -10.40135 -10.37991 -10.36495
 Alpha  occ. eigenvalues --  -10.36259 -10.33723 -10.33585 -10.31802 -10.30855
 Alpha  occ. eigenvalues --  -10.30619 -10.28906 -10.28672 -10.28334 -10.28260
 Alpha  occ. eigenvalues --  -10.28232 -10.27893 -10.27790 -10.27199 -10.25898
 Alpha  occ. eigenvalues --  -10.24414  -1.15261  -1.14689  -1.14216  -1.13799
 Alpha  occ. eigenvalues --   -1.10950  -1.08125  -1.04913  -1.04195  -1.03441
 Alpha  occ. eigenvalues --   -1.02185  -0.99660  -0.94635  -0.90207  -0.89421
 Alpha  occ. eigenvalues --   -0.88262  -0.83937  -0.83707  -0.83104  -0.79660
 Alpha  occ. eigenvalues --   -0.77942  -0.76436  -0.75753  -0.75174  -0.72127
 Alpha  occ. eigenvalues --   -0.71173  -0.70405  -0.69894  -0.68954  -0.68239
 Alpha  occ. eigenvalues --   -0.68132  -0.66702  -0.66140  -0.65405  -0.63966
 Alpha  occ. eigenvalues --   -0.63366  -0.62974  -0.62611  -0.61362  -0.59452
 Alpha  occ. eigenvalues --   -0.58439  -0.57309  -0.56945  -0.56751  -0.56177
 Alpha  occ. eigenvalues --   -0.55809  -0.55403  -0.54565  -0.53551  -0.53095
 Alpha  occ. eigenvalues --   -0.53015  -0.52179  -0.51800  -0.51301  -0.51043
 Alpha  occ. eigenvalues --   -0.50937  -0.50469  -0.49961  -0.49513  -0.48810
 Alpha  occ. eigenvalues --   -0.48362  -0.47684  -0.47126  -0.46395  -0.46153
 Alpha  occ. eigenvalues --   -0.46087  -0.45320  -0.45229  -0.44721  -0.44033
 Alpha  occ. eigenvalues --   -0.42867  -0.42387  -0.42105  -0.41778  -0.41546
 Alpha  occ. eigenvalues --   -0.41246  -0.40759  -0.38763  -0.37358  -0.36797
 Alpha  occ. eigenvalues --   -0.36416  -0.35989  -0.35391  -0.34211  -0.32212
 Alpha  occ. eigenvalues --   -0.32063  -0.30651
 Alpha virt. eigenvalues --   -0.10355  -0.09754  -0.09300  -0.08127  -0.07203
 Alpha virt. eigenvalues --   -0.06539  -0.04999  -0.03506  -0.03373  -0.02493
 Alpha virt. eigenvalues --   -0.02104  -0.00719   0.00089   0.00495   0.00752
 Alpha virt. eigenvalues --    0.01534   0.01751   0.02621   0.02996   0.03884
 Alpha virt. eigenvalues --    0.04501   0.04619   0.04986   0.05487   0.06182
 Alpha virt. eigenvalues --    0.06589   0.06750   0.06851   0.07442   0.07609
 Alpha virt. eigenvalues --    0.07718   0.08690   0.09213   0.09571   0.10205
 Alpha virt. eigenvalues --    0.10813   0.10872   0.11496   0.12056   0.12217
 Alpha virt. eigenvalues --    0.12624   0.12853   0.13131   0.13743   0.14116
 Alpha virt. eigenvalues --    0.14610   0.14849   0.15840   0.16754   0.16966
 Alpha virt. eigenvalues --    0.17098   0.17455   0.18288   0.18810   0.19159
 Alpha virt. eigenvalues --    0.20969   0.21661   0.23181   0.24655   0.25711
 Alpha virt. eigenvalues --    0.25841   0.26647   0.27019   0.27319   0.28190
 Alpha virt. eigenvalues --    0.30747   0.31670   0.32908   0.34713   0.38257
 Alpha virt. eigenvalues --    0.39741   0.39780   0.40324   0.41344   0.42029
 Alpha virt. eigenvalues --    0.42154   0.42598   0.43076   0.43321   0.43477
 Alpha virt. eigenvalues --    0.43974   0.44193   0.44808   0.45403   0.45707
 Alpha virt. eigenvalues --    0.46371   0.46970   0.47282   0.48556   0.48899
 Alpha virt. eigenvalues --    0.49493   0.49718   0.50091   0.50309   0.51042
 Alpha virt. eigenvalues --    0.52217   0.52501   0.52782   0.52881   0.53524
 Alpha virt. eigenvalues --    0.53956   0.54226   0.54640   0.54996   0.55498
 Alpha virt. eigenvalues --    0.55831   0.56557   0.57178   0.57435   0.57890
 Alpha virt. eigenvalues --    0.58534   0.59390   0.59775   0.60476   0.61961
 Alpha virt. eigenvalues --    0.62447   0.62891   0.63261   0.63990   0.64465
 Alpha virt. eigenvalues --    0.65394   0.66866   0.67490   0.67571   0.67995
 Alpha virt. eigenvalues --    0.69208   0.70380   0.71111   0.71612   0.72223
 Alpha virt. eigenvalues --    0.72557   0.73292   0.73518   0.73659   0.74111
 Alpha virt. eigenvalues --    0.74187   0.74650   0.75035   0.75490   0.75929
 Alpha virt. eigenvalues --    0.76331   0.76682   0.76821   0.77520   0.77766
 Alpha virt. eigenvalues --    0.77957   0.78684   0.79583   0.80000   0.80255
 Alpha virt. eigenvalues --    0.80737   0.80880   0.81339   0.82232   0.82487
 Alpha virt. eigenvalues --    0.83185   0.83677   0.84119   0.85056   0.85209
 Alpha virt. eigenvalues --    0.85909   0.86539   0.86777   0.87160   0.87650
 Alpha virt. eigenvalues --    0.88150   0.88648   0.88791   0.89380   0.90011
 Alpha virt. eigenvalues --    0.90464   0.90698   0.91122   0.92635   0.93284
 Alpha virt. eigenvalues --    0.94511   0.95191   0.96541   0.97319   0.97700
 Alpha virt. eigenvalues --    0.98132   0.99799   1.01553   1.02170   1.02505
 Alpha virt. eigenvalues --    1.04136   1.05272   1.05858   1.06677   1.07473
 Alpha virt. eigenvalues --    1.07835   1.09119   1.11033   1.11758   1.12334
 Alpha virt. eigenvalues --    1.13060   1.13969   1.14244   1.16059   1.16952
 Alpha virt. eigenvalues --    1.18281   1.19524   1.19621   1.20365   1.20665
 Alpha virt. eigenvalues --    1.21201   1.23013   1.25083   1.25700   1.26135
 Alpha virt. eigenvalues --    1.27970   1.28913   1.29163   1.31793   1.32373
 Alpha virt. eigenvalues --    1.32883   1.34566   1.35538   1.36202   1.36796
 Alpha virt. eigenvalues --    1.37369   1.37659   1.39095   1.40357   1.41433
 Alpha virt. eigenvalues --    1.42094   1.42340   1.43080   1.44018   1.44627
 Alpha virt. eigenvalues --    1.46530   1.47705   1.47986   1.49334   1.51431
 Alpha virt. eigenvalues --    1.52621   1.54249   1.56544   1.57644   1.58302
 Alpha virt. eigenvalues --    1.59622   1.60208   1.61208   1.61917   1.64120
 Alpha virt. eigenvalues --    1.64955   1.65388   1.65776   1.66304   1.67142
 Alpha virt. eigenvalues --    1.67320   1.68239   1.69204   1.70032   1.70195
 Alpha virt. eigenvalues --    1.70779   1.71682   1.72454   1.73234   1.73856
 Alpha virt. eigenvalues --    1.75175   1.75876   1.76612   1.77617   1.77960
 Alpha virt. eigenvalues --    1.78448   1.78800   1.79065   1.79848   1.80344
 Alpha virt. eigenvalues --    1.80452   1.81544   1.82969   1.84207   1.84580
 Alpha virt. eigenvalues --    1.84837   1.85825   1.86899   1.87193   1.88256
 Alpha virt. eigenvalues --    1.88475   1.89066   1.90020   1.90594   1.92008
 Alpha virt. eigenvalues --    1.92526   1.93447   1.94127   1.94868   1.95805
 Alpha virt. eigenvalues --    1.96490   1.97279   1.97820   1.97921   1.99822
 Alpha virt. eigenvalues --    2.00258   2.00728   2.01316   2.02198   2.03246
 Alpha virt. eigenvalues --    2.05076   2.05319   2.05453   2.05869   2.06660
 Alpha virt. eigenvalues --    2.07736   2.08568   2.09906   2.12606   2.14883
 Alpha virt. eigenvalues --    2.14894   2.17052   2.17579   2.17930   2.18483
 Alpha virt. eigenvalues --    2.19539   2.20359   2.20669   2.21760   2.22430
 Alpha virt. eigenvalues --    2.22772   2.25001   2.26305   2.27353   2.27488
 Alpha virt. eigenvalues --    2.28552   2.30469   2.31126   2.32183   2.33005
 Alpha virt. eigenvalues --    2.33376   2.34797   2.35485   2.36576   2.38001
 Alpha virt. eigenvalues --    2.40017   2.40570   2.42035   2.42636   2.43633
 Alpha virt. eigenvalues --    2.44298   2.45433   2.45999   2.47032   2.49315
 Alpha virt. eigenvalues --    2.49966   2.50930   2.51857   2.53020   2.53279
 Alpha virt. eigenvalues --    2.54585   2.55720   2.56443   2.57439   2.58058
 Alpha virt. eigenvalues --    2.59576   2.60331   2.61249   2.61870   2.63478
 Alpha virt. eigenvalues --    2.65843   2.67438   2.68360   2.69938   2.71036
 Alpha virt. eigenvalues --    2.73920   2.76674   2.78132   2.80522   2.84124
 Alpha virt. eigenvalues --    2.87409   2.87878   2.90753   2.91413   2.93334
 Alpha virt. eigenvalues --    2.93580   2.95927   2.98797   3.02427   3.03537
 Alpha virt. eigenvalues --    3.07720   3.09006   3.32636   3.66814   3.76841
 Alpha virt. eigenvalues --    3.79682   3.86084   3.86179   3.91133   3.94006
 Alpha virt. eigenvalues --    4.00456   4.02904   4.03415   4.06165   4.06410
 Alpha virt. eigenvalues --    4.12066   4.13745   4.13912   4.16580   4.21029
 Alpha virt. eigenvalues --    4.21391   4.23538   4.25546   4.29969   4.30784
 Alpha virt. eigenvalues --    4.35798   4.39305   4.42610   4.46365   4.52829
 Alpha virt. eigenvalues --    4.56845   4.61712   4.65360   4.66621
          Condensed to atoms (all electrons):
 Mulliken charges:
               1
     1  N   -0.763765
     2  C   -0.101342
     3  C    0.659467
     4  O   -0.527870
     5  C   -0.396249
     6  C    0.119582
     7  C   -0.217671
     8  C   -0.190485
     9  C   -0.191254
    10  C   -0.154757
    11  C    0.357837
    12  O   -0.625259
    13  H    0.391931
    14  H    0.208978
    15  H    0.169373
    16  H    0.199168
    17  H    0.165101
    18  H    0.139148
    19  H    0.140431
    20  H    0.165795
    21  H    0.418065
    22  H    0.449952
    23  H    0.405418
    24  N   -0.655799
    25  C   -0.009338
    26  C    0.603438
    27  O   -0.508449
    28  C   -0.124850
    29  C   -0.467634
    30  C   -0.450130
    31  H    0.350661
    32  H    0.198648
    33  H    0.145717
    34  H    0.171460
    35  H    0.121610
    36  H    0.171847
    37  H    0.156833
    38  H    0.174429
    39  H    0.160968
    40  N   -0.596347
    41  C   -0.053581
    42  C    0.633530
    43  O   -0.582173
    44  C   -0.281234
    45  C   -0.281399
    46  C   -0.187485
    47  N   -0.598390
    48  C    0.804047
    49  N   -0.790800
    50  N   -0.769763
    51  O   -0.633322
    52  H    0.338426
    53  H    0.173759
    54  H    0.175812
    55  H    0.153652
    56  H    0.160377
    57  H    0.162768
    58  H    0.180486
    59  H    0.213027
    60  H    0.357114
    61  H    0.361189
    62  H    0.451220
    63  H    0.375260
    64  H    0.372821
 Sum of Mulliken charges =   1.00000
 Mulliken charges with hydrogens summed into heavy atoms:
               1
     1  N    0.483536
     2  C    0.107636
     3  C    0.659467
     4  O   -0.527870
     5  C   -0.027708
     6  C    0.119582
     7  C   -0.052570
     8  C   -0.051337
     9  C   -0.050823
    10  C    0.011037
    11  C    0.357837
    12  O   -0.207194
    24  N   -0.305138
    25  C    0.189310
    26  C    0.603438
    27  O   -0.508449
    28  C    0.020868
    29  C   -0.002716
    30  C    0.042100
    40  N   -0.257921
    41  C    0.120178
    42  C    0.633530
    43  O   -0.582173
    44  C    0.048230
    45  C    0.041746
    46  C    0.206027
    47  N   -0.241276
    48  C    0.804047
    49  N    0.021610
    50  N   -0.021682
    51  O   -0.633322
 Electronic spatial extent (au):  <R**2>=        3299289.3958
 Charge=              1.0000 electrons
 Dipole moment (field-independent basis, Debye):
    X=            164.1624    Y=           -137.3395    Z=            200.7846  Tot=            293.4721
 Quadrupole moment (field-independent basis, Debye-Ang):
   XX=           5471.3309   YY=           3829.7944   ZZ=           8251.4372
   XY=          -4659.9623   XZ=           6841.2078   YZ=          -5781.5740
 Traceless Quadrupole moment (field-independent basis, Debye-Ang):
   XX=           -379.5233   YY=          -2021.0598   ZZ=           2400.5831
   XY=          -4659.9623   XZ=           6841.2078   YZ=          -5781.5740
 Octapole moment (field-independent basis, Debye-Ang**2):
  XXX=         177455.0063  YYY=        -102958.1806  ZZZ=         332499.7076  XYY=         129018.4600
  XXY=        -153710.2802  XXZ=         227169.5525  XZZ=         280255.1838  YZZ=        -238825.4708
  YYZ=         162294.5355  XYZ=        -195656.3167
 Hexadecapole moment (field-independent basis, Debye-Ang**3):
 XXXX=        5566036.3349 YYYY=        2609681.5076 ZZZZ=       13078981.4891 XXXY=       -4913548.8566
 XXXZ=        7335826.2131 YYYX=       -3441786.6629 YYYZ=       -4391844.7455 ZZZX=       11256112.3788
 ZZZY=       -9655248.9916 XXYY=        4204909.1719 XXZZ=        9264478.9894 YYZZ=        6729164.4523
 XXYZ=       -6433393.7117 YYXZ=        5456456.3710 ZZXY=       -8059740.5167
 N-N= 3.318752444328D+03 E-N=-1.007696831314D+04  KE= 1.472676466354D+03
 Unable to Open any file for archive entry.
 1\1\GINC-AMR-182\SP\RB3LYP\6-31G(d)\C20H33N6O5(1+)\KENGMITH\31-May-202
 2\0\\# B3LYP/6-31G* empiricaldispersion=gd3 guess=read geom=check nosy
 mm integral(ultrafinegrid)\\Candidate Structure: Conf:34 Charge calc i
 n gas phase\\1,1\N,0,31.6942693764,-31.4047760732,42.2719303134\C,0,32
 .2109969117,-32.7239957903,42.7762320227\C,0,33.5008152903,-32.9440372
 548,41.9538324854\O,0,33.5499655934,-32.4983367872,40.8086777437\C,0,3
 2.3618333019,-32.6760099521,44.3094495224\C,0,31.1162914057,-32.152620
 5367,44.9914446507\C,0,31.0156465319,-30.7975210806,45.3349900689\C,0,
 30.0166134819,-32.9886436987,45.2407487448\C,0,29.8537413855,-30.28917
 2563,45.916090027\C,0,28.8541481665,-32.4954280917,45.8207955228\C,0,2
 8.7683466591,-31.1385705726,46.1641151696\O,0,27.6059101915,-30.718197
 4631,46.7293592946\H,0,30.7520324135,-31.210621303,42.616912629\H,0,31
 .4787662755,-33.488137414,42.4922694266\H,0,32.5810688632,-33.69377397
 4,44.6552246856\H,0,33.2176153602,-32.0398105813,44.5527929921\H,0,31.
 8563300069,-30.1332148791,45.1455817566\H,0,30.0750962833,-34.04586001
 69,44.9899667059\H,0,29.794752659,-29.2367500163,46.1851423171\H,0,28.
 0063691228,-33.1404801489,46.0263497389\H,0,27.6683494598,-29.77752924
 02,46.9584904966\H,0,32.4035361244,-30.6413580815,42.6081335986\H,0,31
 .7357359844,-31.4110549008,41.2458636431\N,0,34.5336580725,-33.5799096
 862,42.5474326724\C,0,35.8476155737,-33.6474996293,41.8901418816\C,0,3
 6.3752225121,-32.2288920087,41.5594019598\O,0,37.0190696686,-32.028526
 6215,40.5415891385\C,0,36.8332718393,-34.4943394346,42.7310946612\C,0,
 37.1356160457,-33.8815177124,44.1088264613\C,0,38.1290493386,-34.73873
 87842,41.9446251174\H,0,34.4449063385,-33.9152404176,43.4961122917\H,0
 ,35.715007964,-34.1169968947,40.9118977529\H,0,36.3393625572,-35.46547
 74927,42.8839394553\H,0,37.6431577134,-32.9168318868,44.0060238044\H,0
 ,36.2346141407,-33.7176776475,44.7155210022\H,0,37.7869387917,-34.5496
 853729,44.6807571114\H,0,38.7989035251,-35.3885738875,42.5168892121\H,
 0,38.650975952,-33.7985620347,41.7411964445\H,0,37.926399762,-35.21889
 6943,40.9817173174\N,0,36.0874873684,-31.2553512648,42.4845386527\C,0,
 35.9182786761,-29.8685403804,42.0575080266\C,0,34.4058381119,-29.54363
 98054,42.1290125866\O,0,33.8923186548,-28.7753846931,41.2795732614\C,0
 ,36.7927375465,-28.8948817946,42.8852321966\C,0,37.1579578582,-27.5989
 098013,42.1392261277\C,0,36.0178196856,-26.560521907,42.0469455327\N,0
 ,36.0942630138,-25.7483489338,40.8179652941\C,0,35.8327773776,-26.2144
 086865,39.588590875\N,0,35.2531021501,-27.3948954962,39.4063019676\N,0
 ,36.1666548225,-25.4451836259,38.5248116564\O,0,33.7620345043,-30.1083
 805396,43.0732489072\H,0,35.4272222706,-31.5080172133,43.2098113707\H,
 0,36.236658871,-29.8285646626,41.0124390316\H,0,37.7204962761,-29.4285
 737689,43.1143736261\H,0,36.309826117,-28.6777289662,43.8473520411\H,0
 ,37.4771068644,-27.8690407166,41.1254189106\H,0,38.0262252605,-27.1315
 88604,42.6170634642\H,0,36.0585618348,-25.8559590245,42.8806387939\H,0
 ,35.0354412476,-27.0315423713,42.0815527018\H,0,36.3971013297,-24.7877
 207209,40.8933309421\H,0,35.1992852512,-27.7757501244,38.4717217588\H,
 0,34.7685125675,-27.9459659363,40.166901997\H,0,35.8883378759,-25.7098
 758742,37.5914937195\H,0,36.8769679101,-24.7319948133,38.6014110376\\V
 ersion=ES64L-G16RevC.01\HF=-1486.5862492\RMSD=7.260e-09\Dipole=0.18427
 45,4.0919353,-1.6152129\Quadrupole=-282.1662548,-1502.608416,1784.7746
 708,-3464.567778,5086.2703543,-4298.458595\PG=C01 [X(C20H33N6O5)]\\@
 The archive entry for this job was punched.


 LENDING MONEY TO FRIENDS CAUSES THEM TO LOSE THEIR MEMORIES.

    --  PETER'S THEORY OF RECIPROCAL INHIBITION OF FISCAL RECALL
 Job cpu time:       0 days  0 hours  1 minutes 43.6 seconds.
 Elapsed time:       0 days  0 hours  0 minutes 26.4 seconds.
 File lengths (MBytes):  RWF=    264 Int=      0 D2E=      0 Chk=     40 Scr=     16
 Normal termination of Gaussian 16 at Tue May 31 11:31:58 2022.
