 Entering Gaussian System, Link 0=/opt/software/Gaussian/g16-AVX2-C.01/g16/g16
 Input=charge-conf-472.com
 Output=charge-conf-472.log
 Initial command:
 /opt/software/Gaussian/g16-AVX2-C.01/g16/l1.exe "/mnt/gs18/scratch/users/kengmith/Gau-82396.inp" -scrdir="/mnt/gs18/scratch/users/kengmith/"
 Entering Link 1 = /opt/software/Gaussian/g16-AVX2-C.01/g16/l1.exe PID=     82406.
  
 Copyright (c) 1988-2019, Gaussian, Inc.  All Rights Reserved.
  
 This is part of the Gaussian(R) 16 program.  It is based on
 the Gaussian(R) 09 system (copyright 2009, Gaussian, Inc.),
 the Gaussian(R) 03 system (copyright 2003, Gaussian, Inc.),
 the Gaussian(R) 98 system (copyright 1998, Gaussian, Inc.),
 the Gaussian(R) 94 system (copyright 1995, Gaussian, Inc.),
 the Gaussian 92(TM) system (copyright 1992, Gaussian, Inc.),
 the Gaussian 90(TM) system (copyright 1990, Gaussian, Inc.),
 the Gaussian 88(TM) system (copyright 1988, Gaussian, Inc.),
 the Gaussian 86(TM) system (copyright 1986, Carnegie Mellon
 University), and the Gaussian 82(TM) system (copyright 1983,
 Carnegie Mellon University). Gaussian is a federally registered
 trademark of Gaussian, Inc.
  
 This software contains proprietary and confidential information,
 including trade secrets, belonging to Gaussian, Inc.
  
 This software is provided under written license and may be
 used, copied, transmitted, or stored only in accord with that
 written license.
  
 The following legend is applicable only to US Government
 contracts under FAR:
  
                    RESTRICTED RIGHTS LEGEND
  
 Use, reproduction and disclosure by the US Government is
 subject to restrictions as set forth in subparagraphs (a)
 and (c) of the Commercial Computer Software - Restricted
 Rights clause in FAR 52.227-19.
  
 Gaussian, Inc.
 340 Quinnipiac St., Bldg. 40, Wallingford CT 06492
  
  
 ---------------------------------------------------------------
 Warning -- This program may not be used in any manner that
 competes with the business of Gaussian, Inc. or will provide
 assistance to any competitor of Gaussian, Inc.  The licensee
 of this program is prohibited from giving any competitor of
 Gaussian, Inc. access to this program.  By using this program,
 the user acknowledges that Gaussian, Inc. is engaged in the
 business of creating and licensing software in the field of
 computational chemistry and represents and warrants to the
 licensee that it is not a competitor of Gaussian, Inc. and that
 it will not use this program in any manner prohibited above.
 ---------------------------------------------------------------
  

 Cite this work as:
 Gaussian 16, Revision C.01,
 M. J. Frisch, G. W. Trucks, H. B. Schlegel, G. E. Scuseria, 
 M. A. Robb, J. R. Cheeseman, G. Scalmani, V. Barone, 
 G. A. Petersson, H. Nakatsuji, X. Li, M. Caricato, A. V. Marenich, 
 J. Bloino, B. G. Janesko, R. Gomperts, B. Mennucci, H. P. Hratchian, 
 J. V. Ortiz, A. F. Izmaylov, J. L. Sonnenberg, D. Williams-Young, 
 F. Ding, F. Lipparini, F. Egidi, J. Goings, B. Peng, A. Petrone, 
 T. Henderson, D. Ranasinghe, V. G. Zakrzewski, J. Gao, N. Rega, 
 G. Zheng, W. Liang, M. Hada, M. Ehara, K. Toyota, R. Fukuda, 
 J. Hasegawa, M. Ishida, T. Nakajima, Y. Honda, O. Kitao, H. Nakai, 
 T. Vreven, K. Throssell, J. A. Montgomery, Jr., J. E. Peralta, 
 F. Ogliaro, M. J. Bearpark, J. J. Heyd, E. N. Brothers, K. N. Kudin, 
 V. N. Staroverov, T. A. Keith, R. Kobayashi, J. Normand, 
 K. Raghavachari, A. P. Rendell, J. C. Burant, S. S. Iyengar, 
 J. Tomasi, M. Cossi, J. M. Millam, M. Klene, C. Adamo, R. Cammi, 
 J. W. Ochterski, R. L. Martin, K. Morokuma, O. Farkas, 
 J. B. Foresman, and D. J. Fox, Gaussian, Inc., Wallingford CT, 2019.
 
 ******************************************
 Gaussian 16:  ES64L-G16RevC.01  3-Jul-2019
                31-May-2022 
 ******************************************
 %mem=8gb
 %nproc=4
 Will use up to    4 processors via shared memory.
 %chk=conf-472.chk
 ----------------------------------------------------------------------
 # B3LYP/6-31G* empiricaldispersion=gd3 guess=read geom=check nosymm in
 tegral(ultrafinegrid)
 ----------------------------------------------------------------------
 1/29=2,38=1,172=1/1;
 2/12=2,15=1,40=1/2;
 3/5=1,6=6,7=1,11=2,14=-4,25=1,30=1,74=-5,75=-5,116=-2,124=31/1,2,3;
 4/5=1/1;
 5/5=2,38=6/2;
 6/7=2,8=2,9=2,10=2,28=1/1;
 99/5=1,9=1/99;
 ------------------------------------------------------
 Candidate Structure: Conf:472 Charge calc in gas phase
 ------------------------------------------------------
 Structure from the checkpoint file:  "conf-472.chk"
 Charge =  1 Multiplicity = 1
 Redundant internal coordinates found in file.  (old form).
 N,0,36.0743679566,-29.973641252,44.0966327721
 C,0,35.4257909122,-31.1573379589,44.7451510938
 C,0,33.9245874661,-30.9930876281,44.4256629687
 O,0,33.4278951209,-29.8691814558,44.4247191526
 C,0,36.098677805,-32.4516050255,44.2424598846
 C,0,37.6059919082,-32.4024138279,44.3668328473
 C,0,38.3927256074,-32.0063773145,43.2765852523
 C,0,38.24567231,-32.6932696351,45.5817380104
 C,0,39.7790793214,-31.905133878,43.3913073823
 C,0,39.6262382275,-32.5991750641,45.7088676265
 C,0,40.4017708481,-32.2040474384,44.6094584553
 O,0,41.7459482997,-32.1318178102,44.7973452934
 H,0,35.5650138229,-29.1180460814,44.3383454968
 H,0,35.5528405744,-31.0645850299,45.8299785279
 H,0,35.7011464844,-33.2885952009,44.8304162179
 H,0,35.8166027869,-32.6014278154,43.1954279117
 H,0,37.9157045354,-31.7731315288,42.3268168065
 H,0,37.655948145,-33.0103699675,46.4395085095
 H,0,40.3754646238,-31.6025000985,42.5334102726
 H,0,40.1259902307,-32.8333495421,46.6429407756
 H,0,42.1838719995,-31.8754546287,43.9703910433
 H,0,37.0607843794,-29.8989983386,44.3513722315
 H,0,35.9304911864,-30.1272738046,42.9702651421
 N,0,33.2103925614,-32.1035099811,44.113804628
 C,0,31.8232557764,-31.9896953612,43.6573492554
 C,0,31.7225551373,-31.0333959405,42.4530118424
 O,0,30.7088293557,-30.3167209408,42.3325893965
 C,0,31.2200153708,-33.3905494451,43.3787421567
 C,0,31.9321857799,-34.141523422,42.2417961056
 C,0,29.7129668956,-33.2852226534,43.1067851594
 H,0,33.6543883671,-33.0102346684,44.1079034409
 H,0,31.2362708496,-31.4989491978,44.4394369059
 H,0,31.3571705934,-33.958478265,44.3103123663
 H,0,33.0107896466,-34.2554322113,42.4091011246
 H,0,31.5154538144,-35.1482296833,42.1408923553
 H,0,31.7998486492,-33.6248768918,41.2849791219
 H,0,29.5138882971,-32.7191062213,42.1909650493
 H,0,29.1912940079,-32.7830567266,43.9281060859
 H,0,29.2825211019,-34.2845831516,42.9895150556
 N,0,32.73690712,-31.0470321051,41.5723078705
 C,0,33.1945358967,-29.851240455,40.8454964974
 C,0,34.6150983086,-29.5115637471,41.3780259549
 O,0,34.9645606485,-28.3377530394,41.4155580301
 C,0,33.1994713856,-30.0400913255,39.3216685212
 C,0,31.8320696656,-30.3123505653,38.673595644
 C,0,30.8568329005,-29.1248733785,38.6562487003
 N,0,30.3340865163,-28.8505220476,40.0017040714
 C,0,30.1470409659,-27.654594699,40.55073505
 N,0,29.9969098822,-26.5484936521,39.7969327379
 N,0,30.1192226195,-27.5493820123,41.8892928693
 O,0,35.2910365797,-30.5448321231,41.7891164692
 H,0,33.5447141241,-31.6122747757,41.8271683505
 H,0,32.5610632587,-29.014660137,41.1353225032
 H,0,33.8693037543,-30.8763979097,39.087261204
 H,0,33.6524895905,-29.1430143381,38.8809955293
 H,0,31.349650179,-31.1711634028,39.1601512085
 H,0,31.9909519667,-30.6054331557,37.6294347882
 H,0,30.0207698549,-29.3387525133,37.9798129402
 H,0,31.3729914529,-28.2309142033,38.2856584072
 H,0,30.3688001217,-29.6159728522,40.6895919461
 H,0,30.1175100259,-25.6293876057,40.1964929367
 H,0,29.8900270093,-26.6116782527,38.7961367435
 H,0,29.6734151972,-26.7620907172,42.3370123667
 H,0,30.3130490898,-28.3841890302,42.4423267852
 Recover connectivity data from disk.
                           ----------------------------
                           !    Current Parameters    !
                           ! (Angstroms and Degrees)  !
 --------------------------                            --------------------------
 ! Name  Definition              Value                                          !
 --------------------------------------------------------------------------------
 ! R1    R(1,2)                  1.4975                                         !
 ! R2    R(1,13)                 1.0247                                         !
 ! R3    R(1,22)                 1.0215                                         !
 ! R4    R(1,23)                 1.1459                                         !
 ! R5    R(2,3)                  1.5436                                         !
 ! R6    R(2,5)                  1.5429                                         !
 ! R7    R(2,14)                 1.0962                                         !
 ! R8    R(3,4)                  1.2288                                         !
 ! R9    R(3,24)                 1.3566                                         !
 ! R10   R(5,6)                  1.5132                                         !
 ! R11   R(5,15)                 1.0974                                         !
 ! R12   R(5,16)                 1.0947                                         !
 ! R13   R(6,7)                  1.4016                                         !
 ! R14   R(6,8)                  1.4035                                         !
 ! R15   R(7,9)                  1.3948                                         !
 ! R16   R(7,17)                 1.0881                                         !
 ! R17   R(8,10)                 1.3896                                         !
 ! R18   R(8,18)                 1.0882                                         !
 ! R19   R(9,11)                 1.4004                                         !
 ! R20   R(9,19)                 1.0878                                         !
 ! R21   R(10,11)                1.4022                                         !
 ! R22   R(10,20)                1.0849                                         !
 ! R23   R(11,12)                1.3592                                         !
 ! R24   R(12,21)                0.9702                                         !
 ! R25   R(24,25)                1.4647                                         !
 ! R26   R(24,31)                1.0096                                         !
 ! R27   R(25,26)                1.5411                                         !
 ! R28   R(25,28)                1.5505                                         !
 ! R29   R(25,32)                1.0941                                         !
 ! R30   R(26,27)                1.2473                                         !
 ! R31   R(26,40)                1.3434                                         !
 ! R32   R(28,29)                1.5375                                         !
 ! R33   R(28,30)                1.535                                          !
 ! R34   R(28,33)                1.0996                                         !
 ! R35   R(29,34)                1.0974                                         !
 ! R36   R(29,35)                1.0942                                         !
 ! R37   R(29,36)                1.0954                                         !
 ! R38   R(30,37)                1.0949                                         !
 ! R39   R(30,38)                1.0949                                         !
 ! R40   R(30,39)                1.0944                                         !
 ! R41   R(40,41)                1.4723                                         !
 ! R42   R(40,52)                1.0183                                         !
 ! R43   R(41,42)                1.5547                                         !
 ! R44   R(41,44)                1.5355                                         !
 ! R45   R(41,53)                1.0886                                         !
 ! R46   R(42,43)                1.2253                                         !
 ! R47   R(42,51)                1.3014                                         !
 ! R48   R(44,45)                1.5375                                         !
 ! R49   R(44,54)                1.0968                                         !
 ! R50   R(44,55)                1.0973                                         !
 ! R51   R(45,46)                1.5367                                         !
 ! R52   R(45,56)                1.0986                                         !
 ! R53   R(45,57)                1.0961                                         !
 ! R54   R(46,47)                1.4693                                         !
 ! R55   R(46,58)                1.0965                                         !
 ! R56   R(46,59)                1.0968                                         !
 ! R57   R(47,48)                1.3292                                         !
 ! R58   R(47,60)                1.0297                                         !
 ! R59   R(48,49)                1.3469                                         !
 ! R60   R(48,50)                1.343                                          !
 ! R61   R(49,61)                1.0094                                         !
 ! R62   R(49,62)                1.0085                                         !
 ! R63   R(50,63)                1.0095                                         !
 ! R64   R(50,64)                1.02                                           !
 ! A1    A(2,1,13)             110.0346                                         !
 ! A2    A(2,1,22)             111.5924                                         !
 ! A3    A(2,1,23)             105.3875                                         !
 ! A4    A(13,1,22)            111.1113                                         !
 ! A5    A(13,1,23)            106.3451                                         !
 ! A6    A(22,1,23)            112.0971                                         !
 ! A7    A(1,2,3)              104.3282                                         !
 ! A8    A(1,2,5)              109.4566                                         !
 ! A9    A(1,2,14)             108.1504                                         !
 ! A10   A(3,2,5)              116.485                                          !
 ! A11   A(3,2,14)             107.972                                          !
 ! A12   A(5,2,14)             110.0515                                         !
 ! A13   A(2,3,4)              119.3805                                         !
 ! A14   A(2,3,24)             118.1957                                         !
 ! A15   A(4,3,24)             122.3913                                         !
 ! A16   A(2,5,6)              112.3559                                         !
 ! A17   A(2,5,15)             107.8936                                         !
 ! A18   A(2,5,16)             108.304                                          !
 ! A19   A(6,5,15)             109.9738                                         !
 ! A20   A(6,5,16)             109.8608                                         !
 ! A21   A(15,5,16)            108.3443                                         !
 ! A22   A(5,6,7)              120.2898                                         !
 ! A23   A(5,6,8)              121.2253                                         !
 ! A24   A(7,6,8)              118.429                                          !
 ! A25   A(6,7,9)              120.9614                                         !
 ! A26   A(6,7,17)             119.568                                          !
 ! A27   A(9,7,17)             119.4706                                         !
 ! A28   A(6,8,10)             121.1967                                         !
 ! A29   A(6,8,18)             119.7185                                         !
 ! A30   A(10,8,18)            119.0806                                         !
 ! A31   A(7,9,11)             119.8704                                         !
 ! A32   A(7,9,19)             120.0185                                         !
 ! A33   A(11,9,19)            120.1092                                         !
 ! A34   A(8,10,11)            119.7901                                         !
 ! A35   A(8,10,20)            121.4521                                         !
 ! A36   A(11,10,20)           118.7559                                         !
 ! A37   A(9,11,10)            119.7518                                         !
 ! A38   A(9,11,12)            123.2759                                         !
 ! A39   A(10,11,12)           116.9723                                         !
 ! A40   A(11,12,21)           110.0354                                         !
 ! A41   A(3,24,25)            120.4378                                         !
 ! A42   A(3,24,31)            120.3274                                         !
 ! A43   A(25,24,31)           118.9754                                         !
 ! A44   A(24,25,26)           110.7091                                         !
 ! A45   A(24,25,28)           110.7476                                         !
 ! A46   A(24,25,32)           108.6733                                         !
 ! A47   A(26,25,28)           113.2534                                         !
 ! A48   A(26,25,32)           104.1952                                         !
 ! A49   A(28,25,32)           108.9639                                         !
 ! A50   A(25,26,27)           119.0184                                         !
 ! A51   A(25,26,40)           117.1727                                         !
 ! A52   A(27,26,40)           123.7936                                         !
 ! A53   A(25,28,29)           113.2023                                         !
 ! A54   A(25,28,30)           110.5991                                         !
 ! A55   A(25,28,33)           105.4193                                         !
 ! A56   A(29,28,30)           110.9329                                         !
 ! A57   A(29,28,33)           108.4472                                         !
 ! A58   A(30,28,33)           107.9381                                         !
 ! A59   A(28,29,34)           113.1554                                         !
 ! A60   A(28,29,35)           109.9479                                         !
 ! A61   A(28,29,36)           111.0753                                         !
 ! A62   A(34,29,35)           107.0305                                         !
 ! A63   A(34,29,36)           107.509                                          !
 ! A64   A(35,29,36)           107.9006                                         !
 ! A65   A(28,30,37)           111.2339                                         !
 ! A66   A(28,30,38)           111.4899                                         !
 ! A67   A(28,30,39)           110.0276                                         !
 ! A68   A(37,30,38)           107.6774                                         !
 ! A69   A(37,30,39)           108.1191                                         !
 ! A70   A(38,30,39)           108.1664                                         !
 ! A71   A(26,40,41)           123.373                                          !
 ! A72   A(26,40,52)           116.1373                                         !
 ! A73   A(41,40,52)           109.1358                                         !
 ! A74   A(40,41,42)           107.0005                                         !
 ! A75   A(40,41,44)           113.018                                          !
 ! A76   A(40,41,53)           108.1708                                         !
 ! A77   A(42,41,44)           111.3381                                         !
 ! A78   A(42,41,53)           105.8194                                         !
 ! A79   A(44,41,53)           111.1362                                         !
 ! A80   A(41,42,43)           118.7119                                         !
 ! A81   A(41,42,51)           114.1631                                         !
 ! A82   A(43,42,51)           127.0716                                         !
 ! A83   A(41,44,45)           115.9272                                         !
 ! A84   A(41,44,54)           107.9285                                         !
 ! A85   A(41,44,55)           107.4163                                         !
 ! A86   A(45,44,54)           108.5441                                         !
 ! A87   A(45,44,55)           110.0384                                         !
 ! A88   A(54,44,55)           106.5818                                         !
 ! A89   A(44,45,46)           115.6159                                         !
 ! A90   A(44,45,56)           110.0154                                         !
 ! A91   A(44,45,57)           108.6613                                         !
 ! A92   A(46,45,56)           109.292                                          !
 ! A93   A(46,45,57)           106.7298                                         !
 ! A94   A(56,45,57)           106.0525                                         !
 ! A95   A(45,46,47)           111.0844                                         !
 ! A96   A(45,46,58)           109.8846                                         !
 ! A97   A(45,46,59)           109.5721                                         !
 ! A98   A(47,46,58)           109.2722                                         !
 ! A99   A(47,46,59)           108.9447                                         !
 ! A100  A(58,46,59)           108.0216                                         !
 ! A101  A(46,47,48)           126.6076                                         !
 ! A102  A(46,47,60)           117.4478                                         !
 ! A103  A(48,47,60)           113.4314                                         !
 ! A104  A(47,48,49)           121.5607                                         !
 ! A105  A(47,48,50)           119.0199                                         !
 ! A106  A(49,48,50)           119.4169                                         !
 ! A107  A(48,49,61)           120.8559                                         !
 ! A108  A(48,49,62)           121.0475                                         !
 ! A109  A(61,49,62)           117.5502                                         !
 ! A110  A(48,50,63)           120.8178                                         !
 ! A111  A(48,50,64)           118.1883                                         !
 ! A112  A(63,50,64)           118.8013                                         !
 ! D1    D(13,1,2,3)            48.0698                                         !
 ! D2    D(13,1,2,5)           173.4072                                         !
 ! D3    D(13,1,2,14)          -66.6932                                         !
 ! D4    D(22,1,2,3)           171.8933                                         !
 ! D5    D(22,1,2,5)           -62.7694                                         !
 ! D6    D(22,1,2,14)           57.1302                                         !
 ! D7    D(23,1,2,3)           -66.2005                                         !
 ! D8    D(23,1,2,5)            59.1369                                         !
 ! D9    D(23,1,2,14)          179.0364                                         !
 ! D10   D(1,2,3,4)            -37.5137                                         !
 ! D11   D(1,2,3,24)           140.4634                                         !
 ! D12   D(5,2,3,4)           -158.2683                                         !
 ! D13   D(5,2,3,24)            19.7087                                         !
 ! D14   D(14,2,3,4)            77.3752                                         !
 ! D15   D(14,2,3,24)         -104.6478                                         !
 ! D16   D(1,2,5,6)             51.0475                                         !
 ! D17   D(1,2,5,15)           172.4409                                         !
 ! D18   D(1,2,5,16)           -70.4843                                         !
 ! D19   D(3,2,5,6)            169.0335                                         !
 ! D20   D(3,2,5,15)           -69.573                                          !
 ! D21   D(3,2,5,16)            47.5018                                         !
 ! D22   D(14,2,5,6)           -67.6795                                         !
 ! D23   D(14,2,5,15)           53.7139                                         !
 ! D24   D(14,2,5,16)          170.7888                                         !
 ! D25   D(2,3,24,25)         -173.1349                                         !
 ! D26   D(2,3,24,31)            0.9553                                         !
 ! D27   D(4,3,24,25)            4.7776                                         !
 ! D28   D(4,3,24,31)          178.8677                                         !
 ! D29   D(2,5,6,7)            -94.9828                                         !
 ! D30   D(2,5,6,8)             82.2538                                         !
 ! D31   D(15,5,6,7)           144.8212                                         !
 ! D32   D(15,5,6,8)           -37.9423                                         !
 ! D33   D(16,5,6,7)            25.6557                                         !
 ! D34   D(16,5,6,8)          -157.1078                                         !
 ! D35   D(5,6,7,9)            177.4438                                         !
 ! D36   D(5,6,7,17)            -2.4802                                         !
 ! D37   D(8,6,7,9)              0.1309                                         !
 ! D38   D(8,6,7,17)          -179.793                                          !
 ! D39   D(5,6,8,10)          -177.5545                                         !
 ! D40   D(5,6,8,18)             3.2009                                         !
 ! D41   D(7,6,8,10)            -0.2679                                         !
 ! D42   D(7,6,8,18)          -179.5124                                         !
 ! D43   D(6,7,9,11)             0.1128                                         !
 ! D44   D(6,7,9,19)           179.6051                                         !
 ! D45   D(17,7,9,11)         -179.9632                                         !
 ! D46   D(17,7,9,19)           -0.4709                                         !
 ! D47   D(6,8,10,11)            0.1589                                         !
 ! D48   D(6,8,10,20)         -179.3305                                         !
 ! D49   D(18,8,10,11)         179.4081                                         !
 ! D50   D(18,8,10,20)          -0.0813                                         !
 ! D51   D(7,9,11,10)           -0.2247                                         !
 ! D52   D(7,9,11,12)          179.8409                                         !
 ! D53   D(19,9,11,10)        -179.7165                                         !
 ! D54   D(19,9,11,12)           0.349                                          !
 ! D55   D(8,10,11,9)            0.0906                                         !
 ! D56   D(8,10,11,12)        -179.9709                                         !
 ! D57   D(20,10,11,9)         179.5937                                         !
 ! D58   D(20,10,11,12)         -0.4677                                         !
 ! D59   D(9,11,12,21)          -1.6912                                         !
 ! D60   D(10,11,12,21)        178.3727                                         !
 ! D61   D(3,24,25,26)          54.0891                                         !
 ! D62   D(3,24,25,28)        -179.4302                                         !
 ! D63   D(3,24,25,32)         -59.7707                                         !
 ! D64   D(31,24,25,26)       -120.0802                                         !
 ! D65   D(31,24,25,28)          6.4005                                         !
 ! D66   D(31,24,25,32)        126.06                                           !
 ! D67   D(24,25,26,27)       -145.3476                                         !
 ! D68   D(24,25,26,40)         36.0216                                         !
 ! D69   D(28,25,26,27)         89.5767                                         !
 ! D70   D(28,25,26,40)        -89.054                                          !
 ! D71   D(32,25,26,27)        -28.6876                                         !
 ! D72   D(32,25,26,40)        152.6817                                         !
 ! D73   D(24,25,28,29)        -63.3337                                         !
 ! D74   D(24,25,28,30)        171.4705                                         !
 ! D75   D(24,25,28,33)         55.0488                                         !
 ! D76   D(26,25,28,29)         61.7212                                         !
 ! D77   D(26,25,28,30)        -63.4747                                         !
 ! D78   D(26,25,28,33)       -179.8964                                         !
 ! D79   D(32,25,28,29)        177.1814                                         !
 ! D80   D(32,25,28,30)         51.9855                                         !
 ! D81   D(32,25,28,33)        -64.4362                                         !
 ! D82   D(25,26,40,41)       -146.322                                          !
 ! D83   D(25,26,40,52)         -6.8161                                         !
 ! D84   D(27,26,40,41)         35.1188                                         !
 ! D85   D(27,26,40,52)        174.6247                                         !
 ! D86   D(25,28,29,34)         56.1328                                         !
 ! D87   D(25,28,29,35)        175.7429                                         !
 ! D88   D(25,28,29,36)        -64.8973                                         !
 ! D89   D(30,28,29,34)       -178.8514                                         !
 ! D90   D(30,28,29,35)        -59.2412                                         !
 ! D91   D(30,28,29,36)         60.1186                                         !
 ! D92   D(33,28,29,34)        -60.4783                                         !
 ! D93   D(33,28,29,35)         59.1319                                         !
 ! D94   D(33,28,29,36)        178.4917                                         !
 ! D95   D(25,28,30,37)         64.6524                                         !
 ! D96   D(25,28,30,38)        -55.5523                                         !
 ! D97   D(25,28,30,39)       -175.5622                                         !
 ! D98   D(29,28,30,37)        -61.8178                                         !
 ! D99   D(29,28,30,38)        177.9776                                         !
 ! D100  D(29,28,30,39)         57.9677                                         !
 ! D101  D(33,28,30,37)        179.5013                                         !
 ! D102  D(33,28,30,38)         59.2967                                         !
 ! D103  D(33,28,30,39)        -60.7132                                         !
 ! D104  D(26,40,41,42)        112.2443                                         !
 ! D105  D(26,40,41,44)       -124.8468                                         !
 ! D106  D(26,40,41,53)         -1.3573                                         !
 ! D107  D(52,40,41,42)        -29.6538                                         !
 ! D108  D(52,40,41,44)         93.2551                                         !
 ! D109  D(52,40,41,53)       -143.2553                                         !
 ! D110  D(40,41,42,43)       -147.9828                                         !
 ! D111  D(40,41,42,51)         29.5446                                         !
 ! D112  D(44,41,42,43)         88.0708                                         !
 ! D113  D(44,41,42,51)        -94.4018                                         !
 ! D114  D(53,41,42,43)        -32.7964                                         !
 ! D115  D(53,41,42,51)        144.731                                          !
 ! D116  D(40,41,44,45)         62.4269                                         !
 ! D117  D(40,41,44,54)        -59.5088                                         !
 ! D118  D(40,41,44,55)       -174.082                                          !
 ! D119  D(42,41,44,45)       -177.1078                                         !
 ! D120  D(42,41,44,54)         60.9565                                         !
 ! D121  D(42,41,44,55)        -53.6166                                         !
 ! D122  D(53,41,44,45)        -59.4104                                         !
 ! D123  D(53,41,44,54)        178.6539                                         !
 ! D124  D(53,41,44,55)         64.0807                                         !
 ! D125  D(41,44,45,46)         70.1846                                         !
 ! D126  D(41,44,45,56)        -54.1902                                         !
 ! D127  D(41,44,45,57)       -169.8895                                         !
 ! D128  D(54,44,45,46)       -168.2071                                         !
 ! D129  D(54,44,45,56)         67.4181                                         !
 ! D130  D(54,44,45,57)        -48.2813                                         !
 ! D131  D(55,44,45,46)        -51.9271                                         !
 ! D132  D(55,44,45,56)       -176.3019                                         !
 ! D133  D(55,44,45,57)         67.9987                                         !
 ! D134  D(44,45,46,47)        -72.131                                          !
 ! D135  D(44,45,46,58)        166.8302                                         !
 ! D136  D(44,45,46,59)         48.2911                                         !
 ! D137  D(56,45,46,47)         52.6188                                         !
 ! D138  D(56,45,46,58)        -68.42                                           !
 ! D139  D(56,45,46,59)        173.0409                                         !
 ! D140  D(57,45,46,47)        166.8948                                         !
 ! D141  D(57,45,46,58)         45.856                                          !
 ! D142  D(57,45,46,59)        -72.6831                                         !
 ! D143  D(45,46,47,48)        139.0146                                         !
 ! D144  D(45,46,47,60)        -21.7299                                         !
 ! D145  D(58,46,47,48)        -99.5873                                         !
 ! D146  D(58,46,47,60)         99.6683                                         !
 ! D147  D(59,46,47,48)         18.222                                          !
 ! D148  D(59,46,47,60)       -142.5225                                         !
 ! D149  D(46,47,48,49)         22.572                                          !
 ! D150  D(46,47,48,50)       -156.8479                                         !
 ! D151  D(60,47,48,49)       -176.0281                                         !
 ! D152  D(60,47,48,50)          4.552                                          !
 ! D153  D(47,48,49,61)       -162.4669                                         !
 ! D154  D(47,48,49,62)          8.8489                                         !
 ! D155  D(50,48,49,61)         16.9507                                         !
 ! D156  D(50,48,49,62)       -171.7335                                         !
 ! D157  D(47,48,50,63)       -158.4647                                         !
 ! D158  D(47,48,50,64)          4.5098                                         !
 ! D159  D(49,48,50,63)         22.1028                                         !
 ! D160  D(49,48,50,64)       -174.9227                                         !
 --------------------------------------------------------------------------------
 Symmetry turned off by external request.
 Stoichiometry    C20H33N6O5(1+)
 Framework group  C1[X(C20H33N6O5)]
 Deg. of freedom   186
 Full point group                 C1      NOp   1
                          Input orientation:                          
 ---------------------------------------------------------------------
 Center     Atomic      Atomic             Coordinates (Angstroms)
 Number     Number       Type             X           Y           Z
 ---------------------------------------------------------------------
      1          7           0       36.074368  -29.973641   44.096633
      2          6           0       35.425791  -31.157338   44.745151
      3          6           0       33.924587  -30.993088   44.425663
      4          8           0       33.427895  -29.869181   44.424719
      5          6           0       36.098678  -32.451605   44.242460
      6          6           0       37.605992  -32.402414   44.366833
      7          6           0       38.392726  -32.006377   43.276585
      8          6           0       38.245672  -32.693270   45.581738
      9          6           0       39.779079  -31.905134   43.391307
     10          6           0       39.626238  -32.599175   45.708868
     11          6           0       40.401771  -32.204047   44.609458
     12          8           0       41.745948  -32.131818   44.797345
     13          1           0       35.565014  -29.118046   44.338345
     14          1           0       35.552841  -31.064585   45.829979
     15          1           0       35.701146  -33.288595   44.830416
     16          1           0       35.816603  -32.601428   43.195428
     17          1           0       37.915705  -31.773132   42.326817
     18          1           0       37.655948  -33.010370   46.439509
     19          1           0       40.375465  -31.602500   42.533410
     20          1           0       40.125990  -32.833350   46.642941
     21          1           0       42.183872  -31.875455   43.970391
     22          1           0       37.060784  -29.898998   44.351372
     23          1           0       35.930491  -30.127274   42.970265
     24          7           0       33.210393  -32.103510   44.113805
     25          6           0       31.823256  -31.989695   43.657349
     26          6           0       31.722555  -31.033396   42.453012
     27          8           0       30.708829  -30.316721   42.332589
     28          6           0       31.220015  -33.390549   43.378742
     29          6           0       31.932186  -34.141523   42.241796
     30          6           0       29.712967  -33.285223   43.106785
     31          1           0       33.654388  -33.010235   44.107903
     32          1           0       31.236271  -31.498949   44.439437
     33          1           0       31.357171  -33.958478   44.310312
     34          1           0       33.010790  -34.255432   42.409101
     35          1           0       31.515454  -35.148230   42.140892
     36          1           0       31.799849  -33.624877   41.284979
     37          1           0       29.513888  -32.719106   42.190965
     38          1           0       29.191294  -32.783057   43.928106
     39          1           0       29.282521  -34.284583   42.989515
     40          7           0       32.736907  -31.047032   41.572308
     41          6           0       33.194536  -29.851240   40.845496
     42          6           0       34.615098  -29.511564   41.378026
     43          8           0       34.964561  -28.337753   41.415558
     44          6           0       33.199471  -30.040091   39.321669
     45          6           0       31.832070  -30.312351   38.673596
     46          6           0       30.856833  -29.124873   38.656249
     47          7           0       30.334087  -28.850522   40.001704
     48          6           0       30.147041  -27.654595   40.550735
     49          7           0       29.996910  -26.548494   39.796933
     50          7           0       30.119223  -27.549382   41.889293
     51          8           0       35.291037  -30.544832   41.789116
     52          1           0       33.544714  -31.612275   41.827168
     53          1           0       32.561063  -29.014660   41.135323
     54          1           0       33.869304  -30.876398   39.087261
     55          1           0       33.652490  -29.143014   38.880996
     56          1           0       31.349650  -31.171163   39.160151
     57          1           0       31.990952  -30.605433   37.629435
     58          1           0       30.020770  -29.338753   37.979813
     59          1           0       31.372991  -28.230914   38.285658
     60          1           0       30.368800  -29.615973   40.689592
     61          1           0       30.117510  -25.629388   40.196493
     62          1           0       29.890027  -26.611678   38.796137
     63          1           0       29.673415  -26.762091   42.337012
     64          1           0       30.313049  -28.384189   42.442327
 ---------------------------------------------------------------------
 Rotational constants (GHZ):           0.2519756           0.0729308           0.0648936
 Standard basis: 6-31G(d) (6D, 7F)
   531 basis functions,  1000 primitive gaussians,   531 cartesian basis functions
   117 alpha electrons      117 beta electrons
       nuclear repulsion energy      3373.0261588421 Hartrees.
 NAtoms=   64 NActive=   64 NUniq=   64 SFac= 1.00D+00 NAtFMM=   60 NAOKFM=T Big=T
 Integral buffers will be    131072 words long.
 Raffenetti 2 integral format.
 Two-electron integral symmetry is turned off.
 Nuclear repulsion after empirical dispersion term =     3372.9390412989 Hartrees.
 One-electron integrals computed using PRISM.
 NBasis=   531 RedAO= T EigKep=  4.34D-04  NBF=   531
 NBsUse=   531 1.00D-06 EigRej= -1.00D+00 NBFU=   531
 Initial guess from the checkpoint file:  "conf-472.chk"
 B after Tr=     0.000000    0.000000    0.000000
         Rot=    1.000000    0.000000    0.000000    0.000000 Ang=   0.00 deg.
 Requested convergence on RMS density matrix=1.00D-08 within 128 cycles.
 Requested convergence on MAX density matrix=1.00D-06.
 Requested convergence on             energy=1.00D-06.
 No special actions if energy rises.
 SCF Done:  E(RB3LYP) =  -1486.59423728     A.U. after    2 cycles
            NFock=  2  Conv=0.93D-08     -V/T= 2.0094

 **********************************************************************

            Population analysis using the SCF Density.

 **********************************************************************

 Alpha  occ. eigenvalues --  -19.25587 -19.23713 -19.23329 -19.19770 -19.17786
 Alpha  occ. eigenvalues --  -14.50865 -14.50794 -14.49254 -14.49081 -14.48035
 Alpha  occ. eigenvalues --  -14.45874 -10.46263 -10.40719 -10.40156 -10.36292
 Alpha  occ. eigenvalues --  -10.36084 -10.34725 -10.34064 -10.33318 -10.31703
 Alpha  occ. eigenvalues --  -10.30449 -10.30296 -10.29736 -10.28489 -10.28313
 Alpha  occ. eigenvalues --  -10.27873 -10.27864 -10.27549 -10.27348 -10.26818
 Alpha  occ. eigenvalues --  -10.26560  -1.15926  -1.15063  -1.14330  -1.13810
 Alpha  occ. eigenvalues --   -1.12236  -1.06691  -1.04780  -1.04127  -1.03489
 Alpha  occ. eigenvalues --   -1.02960  -1.01894  -0.94238  -0.91375  -0.90226
 Alpha  occ. eigenvalues --   -0.88542  -0.85201  -0.83389  -0.83128  -0.80693
 Alpha  occ. eigenvalues --   -0.78627  -0.77986  -0.76209  -0.75764  -0.72498
 Alpha  occ. eigenvalues --   -0.71612  -0.70703  -0.70306  -0.68594  -0.68297
 Alpha  occ. eigenvalues --   -0.67854  -0.67692  -0.66776  -0.65868  -0.63921
 Alpha  occ. eigenvalues --   -0.63488  -0.63075  -0.62628  -0.62062  -0.59747
 Alpha  occ. eigenvalues --   -0.59491  -0.58225  -0.57740  -0.57358  -0.56591
 Alpha  occ. eigenvalues --   -0.56161  -0.55313  -0.54822  -0.54311  -0.53963
 Alpha  occ. eigenvalues --   -0.53594  -0.53023  -0.52661  -0.51398  -0.51315
 Alpha  occ. eigenvalues --   -0.50657  -0.50575  -0.50025  -0.49909  -0.49191
 Alpha  occ. eigenvalues --   -0.48637  -0.48431  -0.48298  -0.48275  -0.47154
 Alpha  occ. eigenvalues --   -0.46607  -0.45846  -0.45333  -0.44849  -0.44545
 Alpha  occ. eigenvalues --   -0.44079  -0.43948  -0.43477  -0.43084  -0.42004
 Alpha  occ. eigenvalues --   -0.41417  -0.41342  -0.39167  -0.38617  -0.37781
 Alpha  occ. eigenvalues --   -0.37288  -0.36223  -0.34888  -0.34451  -0.33800
 Alpha  occ. eigenvalues --   -0.31152  -0.30266
 Alpha virt. eigenvalues --   -0.10659  -0.10502  -0.09564  -0.08951  -0.07817
 Alpha virt. eigenvalues --   -0.06151  -0.03912  -0.03686  -0.02592  -0.01811
 Alpha virt. eigenvalues --   -0.01231  -0.00522  -0.00280   0.00548   0.00742
 Alpha virt. eigenvalues --    0.01265   0.01688   0.02268   0.02898   0.03210
 Alpha virt. eigenvalues --    0.03932   0.04382   0.05050   0.05222   0.05499
 Alpha virt. eigenvalues --    0.05832   0.06073   0.06599   0.06866   0.07270
 Alpha virt. eigenvalues --    0.07704   0.07945   0.08174   0.08702   0.09307
 Alpha virt. eigenvalues --    0.09469   0.09679   0.09881   0.10258   0.10498
 Alpha virt. eigenvalues --    0.11453   0.11773   0.12511   0.12673   0.13432
 Alpha virt. eigenvalues --    0.14115   0.14523   0.14585   0.15026   0.15685
 Alpha virt. eigenvalues --    0.16818   0.17054   0.17407   0.18313   0.19011
 Alpha virt. eigenvalues --    0.19428   0.20675   0.23314   0.24489   0.25081
 Alpha virt. eigenvalues --    0.25667   0.26110   0.26856   0.27203   0.27353
 Alpha virt. eigenvalues --    0.28703   0.30735   0.33456   0.34691   0.38258
 Alpha virt. eigenvalues --    0.38669   0.39385   0.40234   0.40408   0.41323
 Alpha virt. eigenvalues --    0.41450   0.42587   0.42750   0.43060   0.43460
 Alpha virt. eigenvalues --    0.43555   0.43774   0.44559   0.45101   0.45389
 Alpha virt. eigenvalues --    0.45612   0.46104   0.47282   0.48009   0.48622
 Alpha virt. eigenvalues --    0.49107   0.49559   0.49870   0.50368   0.50657
 Alpha virt. eigenvalues --    0.51188   0.51797   0.52547   0.53217   0.53447
 Alpha virt. eigenvalues --    0.53707   0.53808   0.54353   0.55065   0.55710
 Alpha virt. eigenvalues --    0.55835   0.56445   0.56668   0.57122   0.57939
 Alpha virt. eigenvalues --    0.58288   0.58877   0.59313   0.60425   0.61038
 Alpha virt. eigenvalues --    0.61685   0.62634   0.62881   0.63971   0.64431
 Alpha virt. eigenvalues --    0.65135   0.65375   0.67067   0.67312   0.67833
 Alpha virt. eigenvalues --    0.68260   0.69144   0.70065   0.71251   0.71814
 Alpha virt. eigenvalues --    0.72037   0.72675   0.73217   0.73458   0.73962
 Alpha virt. eigenvalues --    0.74239   0.74419   0.75075   0.75456   0.75743
 Alpha virt. eigenvalues --    0.75982   0.76048   0.77008   0.77187   0.77485
 Alpha virt. eigenvalues --    0.77769   0.78885   0.79136   0.80183   0.80863
 Alpha virt. eigenvalues --    0.80940   0.81768   0.81858   0.82153   0.82695
 Alpha virt. eigenvalues --    0.83357   0.84124   0.84418   0.84689   0.84825
 Alpha virt. eigenvalues --    0.85267   0.85987   0.86610   0.87281   0.87613
 Alpha virt. eigenvalues --    0.87860   0.88312   0.88759   0.89152   0.90050
 Alpha virt. eigenvalues --    0.90815   0.91477   0.91907   0.92707   0.93648
 Alpha virt. eigenvalues --    0.94165   0.95669   0.96715   0.97138   0.98581
 Alpha virt. eigenvalues --    0.98996   1.00384   1.01236   1.01777   1.02178
 Alpha virt. eigenvalues --    1.02443   1.04071   1.05548   1.06324   1.07296
 Alpha virt. eigenvalues --    1.07959   1.08774   1.10599   1.11320   1.11809
 Alpha virt. eigenvalues --    1.12604   1.13338   1.14474   1.14983   1.16439
 Alpha virt. eigenvalues --    1.16965   1.17471   1.18226   1.20347   1.21198
 Alpha virt. eigenvalues --    1.21910   1.22200   1.23057   1.24741   1.25033
 Alpha virt. eigenvalues --    1.26546   1.28631   1.28883   1.30500   1.31352
 Alpha virt. eigenvalues --    1.31961   1.34495   1.35213   1.35619   1.36092
 Alpha virt. eigenvalues --    1.37000   1.37892   1.38555   1.38906   1.40451
 Alpha virt. eigenvalues --    1.40844   1.42597   1.42636   1.43307   1.44722
 Alpha virt. eigenvalues --    1.45083   1.46854   1.47844   1.49028   1.50995
 Alpha virt. eigenvalues --    1.52623   1.53524   1.55843   1.57171   1.58463
 Alpha virt. eigenvalues --    1.58895   1.59751   1.60609   1.61079   1.63032
 Alpha virt. eigenvalues --    1.64464   1.64561   1.65067   1.65723   1.66691
 Alpha virt. eigenvalues --    1.67357   1.67897   1.68775   1.70211   1.70772
 Alpha virt. eigenvalues --    1.71416   1.72341   1.72704   1.72955   1.73452
 Alpha virt. eigenvalues --    1.74317   1.76124   1.76804   1.77248   1.77911
 Alpha virt. eigenvalues --    1.78246   1.78732   1.79159   1.79949   1.80626
 Alpha virt. eigenvalues --    1.81288   1.82393   1.83098   1.84261   1.84689
 Alpha virt. eigenvalues --    1.86050   1.86366   1.86999   1.87473   1.88109
 Alpha virt. eigenvalues --    1.88905   1.89618   1.89985   1.90099   1.90840
 Alpha virt. eigenvalues --    1.91415   1.92321   1.93014   1.94370   1.94748
 Alpha virt. eigenvalues --    1.95688   1.97002   1.97429   1.97829   1.98305
 Alpha virt. eigenvalues --    1.99137   2.00713   2.02513   2.03206   2.03298
 Alpha virt. eigenvalues --    2.04325   2.05126   2.05764   2.05923   2.07407
 Alpha virt. eigenvalues --    2.07649   2.08238   2.09024   2.11686   2.12135
 Alpha virt. eigenvalues --    2.13236   2.14817   2.16188   2.16853   2.17971
 Alpha virt. eigenvalues --    2.18460   2.19223   2.20681   2.22214   2.22717
 Alpha virt. eigenvalues --    2.22894   2.24677   2.25299   2.26642   2.27837
 Alpha virt. eigenvalues --    2.28429   2.28730   2.29786   2.30699   2.32455
 Alpha virt. eigenvalues --    2.32670   2.34112   2.34796   2.36190   2.37475
 Alpha virt. eigenvalues --    2.38006   2.39639   2.41082   2.41856   2.42992
 Alpha virt. eigenvalues --    2.43948   2.44864   2.46631   2.46829   2.48467
 Alpha virt. eigenvalues --    2.49566   2.50158   2.51808   2.52218   2.53618
 Alpha virt. eigenvalues --    2.53750   2.55620   2.56460   2.57085   2.57986
 Alpha virt. eigenvalues --    2.59810   2.60695   2.61295   2.62236   2.63801
 Alpha virt. eigenvalues --    2.66249   2.67434   2.69122   2.69678   2.70541
 Alpha virt. eigenvalues --    2.74180   2.76952   2.77952   2.80802   2.81717
 Alpha virt. eigenvalues --    2.85457   2.87184   2.88265   2.91184   2.92563
 Alpha virt. eigenvalues --    2.93123   2.94863   2.97815   3.03261   3.04040
 Alpha virt. eigenvalues --    3.08595   3.10856   3.33058   3.67386   3.75947
 Alpha virt. eigenvalues --    3.77993   3.86607   3.88732   3.91153   3.94482
 Alpha virt. eigenvalues --    3.99024   4.03228   4.03747   4.04566   4.05617
 Alpha virt. eigenvalues --    4.11697   4.14189   4.17494   4.18276   4.20255
 Alpha virt. eigenvalues --    4.21115   4.23693   4.25426   4.27310   4.29394
 Alpha virt. eigenvalues --    4.35492   4.37361   4.40073   4.42395   4.51158
 Alpha virt. eigenvalues --    4.57306   4.62852   4.63921   4.67071
          Condensed to atoms (all electrons):
 Mulliken charges:
               1
     1  N   -0.772610
     2  C   -0.088802
     3  C    0.653551
     4  O   -0.529180
     5  C   -0.399010
     6  C    0.122698
     7  C   -0.215898
     8  C   -0.188700
     9  C   -0.190656
    10  C   -0.154871
    11  C    0.358174
    12  O   -0.625846
    13  H    0.401675
    14  H    0.205556
    15  H    0.165381
    16  H    0.193683
    17  H    0.166487
    18  H    0.136293
    19  H    0.143640
    20  H    0.164197
    21  H    0.418579
    22  H    0.387745
    23  H    0.462550
    24  N   -0.656699
    25  C    0.001766
    26  C    0.626913
    27  O   -0.594163
    28  C   -0.129346
    29  C   -0.469329
    30  C   -0.447964
    31  H    0.354958
    32  H    0.195570
    33  H    0.155417
    34  H    0.135766
    35  H    0.177842
    36  H    0.162604
    37  H    0.157594
    38  H    0.161426
    39  H    0.165910
    40  N   -0.570013
    41  C   -0.073017
    42  C    0.608403
    43  O   -0.522280
    44  C   -0.268014
    45  C   -0.307356
    46  C   -0.149240
    47  N   -0.608804
    48  C    0.790301
    49  N   -0.760690
    50  N   -0.775985
    51  O   -0.674945
    52  H    0.359734
    53  H    0.158302
    54  H    0.166371
    55  H    0.169190
    56  H    0.164397
    57  H    0.175554
    58  H    0.184895
    59  H    0.167268
    60  H    0.404160
    61  H    0.379683
    62  H    0.382464
    63  H    0.366975
    64  H    0.419748
 Sum of Mulliken charges =   1.00000
 Mulliken charges with hydrogens summed into heavy atoms:
               1
     1  N    0.479360
     2  C    0.116754
     3  C    0.653551
     4  O   -0.529180
     5  C   -0.039947
     6  C    0.122698
     7  C   -0.049411
     8  C   -0.052407
     9  C   -0.047016
    10  C    0.009327
    11  C    0.358174
    12  O   -0.207267
    24  N   -0.301741
    25  C    0.197337
    26  C    0.626913
    27  O   -0.594163
    28  C    0.026070
    29  C    0.006882
    30  C    0.036965
    40  N   -0.210279
    41  C    0.085284
    42  C    0.608403
    43  O   -0.522280
    44  C    0.067547
    45  C    0.032595
    46  C    0.202923
    47  N   -0.204644
    48  C    0.790301
    49  N    0.001457
    50  N    0.010738
    51  O   -0.674945
 Electronic spatial extent (au):  <R**2>=        3291512.1293
 Charge=              1.0000 electrons
 Dipole moment (field-independent basis, Debye):
    X=            156.2639    Y=           -143.5601    Z=            201.4806  Tot=            292.6129
 Quadrupole moment (field-independent basis, Debye-Ang):
   XX=           4972.6021   YY=           4155.4584   ZZ=           8312.1370
   XY=          -4702.4819   XZ=           6584.8505   YZ=          -6045.5665
 Traceless Quadrupole moment (field-independent basis, Debye-Ang):
   XX=           -840.7971   YY=          -1657.9407   ZZ=           2498.7378
   XY=          -4702.4819   XZ=           6584.8505   YZ=          -6045.5665
 Octapole moment (field-independent basis, Debye-Ang**2):
  XXX=         154124.8239  YYY=        -115518.3273  ZZZ=         336620.3529  XYY=         136720.6644
  XXY=        -150536.4472  XXZ=         210459.5539  XZZ=         272666.4597  YZZ=        -250237.0551
  YYZ=         175605.0450  XYZ=        -198894.9960
 Hexadecapole moment (field-independent basis, Debye-Ang**3):
 XXXX=        4609328.3605 YYYY=        3032485.9806 ZZZZ=       13335190.1239 XXXY=       -4690025.0942
 XXXZ=        6549745.6027 YYYX=       -3807624.1443 YYYZ=       -4897185.6421 ZZZX=       11072954.1498
 ZZZY=      -10161583.4656 XXYY=        4385081.3188 XXZZ=        8738106.8557 YYZZ=        7283623.4003
 XXYZ=       -6393303.4213 YYXZ=        5801590.5959 ZZXY=       -8261631.3129
 N-N= 3.372939041299D+03 E-N=-1.018425316982D+04  KE= 1.472702083089D+03
 Unable to Open any file for archive entry.
 1\1\GINC-AMR-015\SP\RB3LYP\6-31G(d)\C20H33N6O5(1+)\KENGMITH\31-May-202
 2\0\\# B3LYP/6-31G* empiricaldispersion=gd3 guess=read geom=check nosy
 mm integral(ultrafinegrid)\\Candidate Structure: Conf:472 Charge calc 
 in gas phase\\1,1\N,0,36.0743679566,-29.973641252,44.0966327721\C,0,35
 .4257909122,-31.1573379589,44.7451510938\C,0,33.9245874661,-30.9930876
 281,44.4256629687\O,0,33.4278951209,-29.8691814558,44.4247191526\C,0,3
 6.098677805,-32.4516050255,44.2424598846\C,0,37.6059919082,-32.4024138
 279,44.3668328473\C,0,38.3927256074,-32.0063773145,43.2765852523\C,0,3
 8.24567231,-32.6932696351,45.5817380104\C,0,39.7790793214,-31.90513387
 8,43.3913073823\C,0,39.6262382275,-32.5991750641,45.7088676265\C,0,40.
 4017708481,-32.2040474384,44.6094584553\O,0,41.7459482997,-32.13181781
 02,44.7973452934\H,0,35.5650138229,-29.1180460814,44.3383454968\H,0,35
 .5528405744,-31.0645850299,45.8299785279\H,0,35.7011464844,-33.2885952
 009,44.8304162179\H,0,35.8166027869,-32.6014278154,43.1954279117\H,0,3
 7.9157045354,-31.7731315288,42.3268168065\H,0,37.655948145,-33.0103699
 675,46.4395085095\H,0,40.3754646238,-31.6025000985,42.5334102726\H,0,4
 0.1259902307,-32.8333495421,46.6429407756\H,0,42.1838719995,-31.875454
 6287,43.9703910433\H,0,37.0607843794,-29.8989983386,44.3513722315\H,0,
 35.9304911864,-30.1272738046,42.9702651421\N,0,33.2103925614,-32.10350
 99811,44.113804628\C,0,31.8232557764,-31.9896953612,43.6573492554\C,0,
 31.7225551373,-31.0333959405,42.4530118424\O,0,30.7088293557,-30.31672
 09408,42.3325893965\C,0,31.2200153708,-33.3905494451,43.3787421567\C,0
 ,31.9321857799,-34.141523422,42.2417961056\C,0,29.7129668956,-33.28522
 26534,43.1067851594\H,0,33.6543883671,-33.0102346684,44.1079034409\H,0
 ,31.2362708496,-31.4989491978,44.4394369059\H,0,31.3571705934,-33.9584
 78265,44.3103123663\H,0,33.0107896466,-34.2554322113,42.4091011246\H,0
 ,31.5154538144,-35.1482296833,42.1408923553\H,0,31.7998486492,-33.6248
 768918,41.2849791219\H,0,29.5138882971,-32.7191062213,42.1909650493\H,
 0,29.1912940079,-32.7830567266,43.9281060859\H,0,29.2825211019,-34.284
 5831516,42.9895150556\N,0,32.73690712,-31.0470321051,41.5723078705\C,0
 ,33.1945358967,-29.851240455,40.8454964974\C,0,34.6150983086,-29.51156
 37471,41.3780259549\O,0,34.9645606485,-28.3377530394,41.4155580301\C,0
 ,33.1994713856,-30.0400913255,39.3216685212\C,0,31.8320696656,-30.3123
 505653,38.673595644\C,0,30.8568329005,-29.1248733785,38.6562487003\N,0
 ,30.3340865163,-28.8505220476,40.0017040714\C,0,30.1470409659,-27.6545
 94699,40.55073505\N,0,29.9969098822,-26.5484936521,39.7969327379\N,0,3
 0.1192226195,-27.5493820123,41.8892928693\O,0,35.2910365797,-30.544832
 1231,41.7891164692\H,0,33.5447141241,-31.6122747757,41.8271683505\H,0,
 32.5610632587,-29.014660137,41.1353225032\H,0,33.8693037543,-30.876397
 9097,39.087261204\H,0,33.6524895905,-29.1430143381,38.8809955293\H,0,3
 1.349650179,-31.1711634028,39.1601512085\H,0,31.9909519667,-30.6054331
 557,37.6294347882\H,0,30.0207698549,-29.3387525133,37.9798129402\H,0,3
 1.3729914529,-28.2309142033,38.2856584072\H,0,30.3688001217,-29.615972
 8522,40.6895919461\H,0,30.1175100259,-25.6293876057,40.1964929367\H,0,
 29.8900270093,-26.6116782527,38.7961367435\H,0,29.6734151972,-26.76209
 07172,42.3370123667\H,0,30.3130490898,-28.3841890302,42.4423267852\\Ve
 rsion=ES64L-G16RevC.01\HF=-1486.5942373\RMSD=9.321e-09\Dipole=-2.83702
 5,1.7393029,-1.1430345\Quadrupole=-625.1120238,-1232.6383073,1857.7503
 31,-3496.1800364,4895.6749565,-4494.7305051\PG=C01 [X(C20H33N6O5)]\\@
 The archive entry for this job was punched.


 THERE'S SMALL CHOICE IN A BOWL OF ROTTEN APPLES.
                     SHAKESPEARE
 Job cpu time:       0 days  0 hours  1 minutes 48.6 seconds.
 Elapsed time:       0 days  0 hours  0 minutes 27.8 seconds.
 File lengths (MBytes):  RWF=    264 Int=      0 D2E=      0 Chk=     40 Scr=     16
 Normal termination of Gaussian 16 at Tue May 31 11:32:00 2022.
