 Entering Gaussian System, Link 0=/opt/software/Gaussian/g16-AVX2-C.01/g16/g16
 Input=charge-conf-302.com
 Output=charge-conf-302.log
 Initial command:
 /opt/software/Gaussian/g16-AVX2-C.01/g16/l1.exe "/mnt/gs18/scratch/users/kengmith/Gau-127901.inp" -scrdir="/mnt/gs18/scratch/users/kengmith/"
 Entering Link 1 = /opt/software/Gaussian/g16-AVX2-C.01/g16/l1.exe PID=    127911.
  
 Copyright (c) 1988-2019, Gaussian, Inc.  All Rights Reserved.
  
 This is part of the Gaussian(R) 16 program.  It is based on
 the Gaussian(R) 09 system (copyright 2009, Gaussian, Inc.),
 the Gaussian(R) 03 system (copyright 2003, Gaussian, Inc.),
 the Gaussian(R) 98 system (copyright 1998, Gaussian, Inc.),
 the Gaussian(R) 94 system (copyright 1995, Gaussian, Inc.),
 the Gaussian 92(TM) system (copyright 1992, Gaussian, Inc.),
 the Gaussian 90(TM) system (copyright 1990, Gaussian, Inc.),
 the Gaussian 88(TM) system (copyright 1988, Gaussian, Inc.),
 the Gaussian 86(TM) system (copyright 1986, Carnegie Mellon
 University), and the Gaussian 82(TM) system (copyright 1983,
 Carnegie Mellon University). Gaussian is a federally registered
 trademark of Gaussian, Inc.
  
 This software contains proprietary and confidential information,
 including trade secrets, belonging to Gaussian, Inc.
  
 This software is provided under written license and may be
 used, copied, transmitted, or stored only in accord with that
 written license.
  
 The following legend is applicable only to US Government
 contracts under FAR:
  
                    RESTRICTED RIGHTS LEGEND
  
 Use, reproduction and disclosure by the US Government is
 subject to restrictions as set forth in subparagraphs (a)
 and (c) of the Commercial Computer Software - Restricted
 Rights clause in FAR 52.227-19.
  
 Gaussian, Inc.
 340 Quinnipiac St., Bldg. 40, Wallingford CT 06492
  
  
 ---------------------------------------------------------------
 Warning -- This program may not be used in any manner that
 competes with the business of Gaussian, Inc. or will provide
 assistance to any competitor of Gaussian, Inc.  The licensee
 of this program is prohibited from giving any competitor of
 Gaussian, Inc. access to this program.  By using this program,
 the user acknowledges that Gaussian, Inc. is engaged in the
 business of creating and licensing software in the field of
 computational chemistry and represents and warrants to the
 licensee that it is not a competitor of Gaussian, Inc. and that
 it will not use this program in any manner prohibited above.
 ---------------------------------------------------------------
  

 Cite this work as:
 Gaussian 16, Revision C.01,
 M. J. Frisch, G. W. Trucks, H. B. Schlegel, G. E. Scuseria, 
 M. A. Robb, J. R. Cheeseman, G. Scalmani, V. Barone, 
 G. A. Petersson, H. Nakatsuji, X. Li, M. Caricato, A. V. Marenich, 
 J. Bloino, B. G. Janesko, R. Gomperts, B. Mennucci, H. P. Hratchian, 
 J. V. Ortiz, A. F. Izmaylov, J. L. Sonnenberg, D. Williams-Young, 
 F. Ding, F. Lipparini, F. Egidi, J. Goings, B. Peng, A. Petrone, 
 T. Henderson, D. Ranasinghe, V. G. Zakrzewski, J. Gao, N. Rega, 
 G. Zheng, W. Liang, M. Hada, M. Ehara, K. Toyota, R. Fukuda, 
 J. Hasegawa, M. Ishida, T. Nakajima, Y. Honda, O. Kitao, H. Nakai, 
 T. Vreven, K. Throssell, J. A. Montgomery, Jr., J. E. Peralta, 
 F. Ogliaro, M. J. Bearpark, J. J. Heyd, E. N. Brothers, K. N. Kudin, 
 V. N. Staroverov, T. A. Keith, R. Kobayashi, J. Normand, 
 K. Raghavachari, A. P. Rendell, J. C. Burant, S. S. Iyengar, 
 J. Tomasi, M. Cossi, J. M. Millam, M. Klene, C. Adamo, R. Cammi, 
 J. W. Ochterski, R. L. Martin, K. Morokuma, O. Farkas, 
 J. B. Foresman, and D. J. Fox, Gaussian, Inc., Wallingford CT, 2019.
 
 ******************************************
 Gaussian 16:  ES64L-G16RevC.01  3-Jul-2019
                31-May-2022 
 ******************************************
 %mem=8gb
 %nproc=4
 Will use up to    4 processors via shared memory.
 %chk=conf-302.chk
 ----------------------------------------------------------------------
 # B3LYP/6-31G* empiricaldispersion=gd3 guess=read geom=check nosymm in
 tegral(ultrafinegrid)
 ----------------------------------------------------------------------
 1/29=2,38=1,172=1/1;
 2/12=2,15=1,40=1/2;
 3/5=1,6=6,7=1,11=2,14=-4,25=1,30=1,74=-5,75=-5,116=-2,124=31/1,2,3;
 4/5=1/1;
 5/5=2,38=6/2;
 6/7=2,8=2,9=2,10=2,28=1/1;
 99/5=1,9=1/99;
 ------------------------------------------------------
 Candidate Structure: Conf:302 Charge calc in gas phase
 ------------------------------------------------------
 Structure from the checkpoint file:  "conf-302.chk"
 Charge =  1 Multiplicity = 1
 Redundant internal coordinates found in file.  (old form).
 N,0,32.2374415712,-31.0282906186,40.8759919516
 C,0,32.4040940416,-29.5336885524,40.8637783104
 C,0,32.3626783792,-29.1540840046,42.3613492958
 O,0,31.673778122,-29.833787696,43.1202103562
 C,0,33.6781678101,-29.155005126,40.0833730756
 C,0,33.7462597485,-29.835787461,38.7334422877
 C,0,34.4621824184,-31.0309092661,38.5801010642
 C,0,33.05186332,-29.3259575952,37.6251487042
 C,0,34.4906677462,-31.6979755615,37.3552094626
 C,0,33.0736087654,-29.9794493152,36.3989789383
 C,0,33.7976778567,-31.1719805999,36.257871069
 O,0,33.7808603117,-31.7619867125,35.0335001397
 H,0,32.0828386314,-31.3994212329,39.9363811765
 H,0,31.5201937251,-29.1138261027,40.3706839109
 H,0,33.6800579693,-28.0653822223,39.9561043526
 H,0,34.5477774703,-29.4308682134,40.6866891249
 H,0,35.0036800758,-31.4435222343,39.4288789211
 H,0,32.4961587813,-28.39509292,37.7184717558
 H,0,35.0584659965,-32.6199456381,37.2501616655
 H,0,32.5483115672,-29.5825744892,35.5366408632
 H,0,34.3397189442,-32.555024224,35.038503922
 H,0,33.1491342491,-31.4416367796,41.3195152148
 H,0,31.4686390959,-31.2633873733,41.5149611021
 N,0,33.1206513386,-28.1163852597,42.776070295
 C,0,33.2754808292,-27.8288397889,44.2101473464
 C,0,33.8205878638,-29.0655980387,44.967500914
 O,0,33.44749629,-29.3109851563,46.10379647
 C,0,34.1234434975,-26.5510204572,44.4199506693
 C,0,35.566796194,-26.69090917,43.9078477215
 C,0,34.1050971142,-26.1379064635,45.898584614
 H,0,33.679630396,-27.5999418638,42.1118957485
 H,0,32.2805336717,-27.6733480138,44.635463461
 H,0,33.6241219754,-25.7610354367,43.8394180571
 H,0,35.6234567603,-26.9561667791,42.8433420441
 H,0,36.0999790933,-25.7427201889,44.027972526
 H,0,36.1087512392,-27.4598303182,44.4680324931
 H,0,34.5686845699,-26.9034730119,46.5284375131
 H,0,33.0816963364,-25.989693923,46.258419581
 H,0,34.6544984577,-25.2006697572,46.03357206
 N,0,34.7419735537,-29.8228667926,44.286418628
 C,0,34.8380405993,-31.2585161263,44.538793545
 C,0,34.2316321484,-31.9859439159,43.3135769606
 O,0,33.6008281947,-33.0589699904,43.4752527226
 C,0,36.2891884276,-31.6968078994,44.8549078054
 C,0,36.3817263525,-32.9738249328,45.7094320955
 C,0,36.1191763926,-34.2879466658,44.9413300824
 N,0,35.5189603042,-35.3291540695,45.7966928192
 C,0,34.2619541667,-35.2914699894,46.260742797
 N,0,33.3789769237,-34.4173756041,45.7926434805
 N,0,33.9037199365,-36.1782786373,47.2200214461
 O,0,34.4118937507,-31.4183327841,42.1864774048
 H,0,34.8622833072,-29.6054664258,43.3045745055
 H,0,34.2104864693,-31.4594203271,45.4111889561
 H,0,36.7454166094,-30.8765508833,45.4179852122
 H,0,36.864956022,-31.7974206325,43.9251489704
 H,0,35.6569313709,-32.8881386253,46.527912355
 H,0,37.368825299,-33.0300153572,46.1817358202
 H,0,37.0493541081,-34.7102636778,44.5546182533
 H,0,35.4637486444,-34.1336687742,44.0841042233
 H,0,36.0945248227,-36.1079476192,46.0837117706
 H,0,32.4872218826,-34.3234736306,46.2588177211
 H,0,33.5086513797,-33.8533118453,44.9084301091
 H,0,32.9423871469,-36.2519282149,47.5184094241
 H,0,34.5968864727,-36.6097609936,47.8136772929
 Recover connectivity data from disk.
                           ----------------------------
                           !    Current Parameters    !
                           ! (Angstroms and Degrees)  !
 --------------------------                            --------------------------
 ! Name  Definition              Value                                          !
 --------------------------------------------------------------------------------
 ! R1    R(1,2)                  1.5039                                         !
 ! R2    R(1,13)                 1.022                                          !
 ! R3    R(1,22)                 1.0949                                         !
 ! R4    R(1,23)                 1.0269                                         !
 ! R5    R(2,3)                  1.5455                                         !
 ! R6    R(2,5)                  1.5413                                         !
 ! R7    R(2,14)                 1.0958                                         !
 ! R8    R(3,4)                  1.2298                                         !
 ! R9    R(3,24)                 1.3503                                         !
 ! R10   R(5,6)                  1.5134                                         !
 ! R11   R(5,15)                 1.097                                          !
 ! R12   R(5,16)                 1.0938                                         !
 ! R13   R(6,7)                  1.4016                                         !
 ! R14   R(6,8)                  1.4037                                         !
 ! R15   R(7,9)                  1.395                                          !
 ! R16   R(7,17)                 1.0881                                         !
 ! R17   R(8,10)                 1.3896                                         !
 ! R18   R(8,18)                 1.0881                                         !
 ! R19   R(9,11)                 1.4004                                         !
 ! R20   R(9,19)                 1.0879                                         !
 ! R21   R(10,11)                1.4023                                         !
 ! R22   R(10,20)                1.0849                                         !
 ! R23   R(11,12)                1.3592                                         !
 ! R24   R(12,21)                0.9702                                         !
 ! R25   R(24,25)                1.4708                                         !
 ! R26   R(24,31)                1.0101                                         !
 ! R27   R(25,26)                1.5493                                         !
 ! R28   R(25,28)                1.5479                                         !
 ! R29   R(25,32)                1.0932                                         !
 ! R30   R(26,27)                1.2209                                         !
 ! R31   R(26,40)                1.3734                                         !
 ! R32   R(28,29)                1.5379                                         !
 ! R33   R(28,30)                1.5354                                         !
 ! R34   R(28,33)                1.1002                                         !
 ! R35   R(29,34)                1.0985                                         !
 ! R36   R(29,35)                1.0944                                         !
 ! R37   R(29,36)                1.0949                                         !
 ! R38   R(30,37)                1.0944                                         !
 ! R39   R(30,38)                1.0949                                         !
 ! R40   R(30,39)                1.0947                                         !
 ! R41   R(40,41)                1.4608                                         !
 ! R42   R(40,52)                1.0128                                         !
 ! R43   R(41,42)                1.5486                                         !
 ! R44   R(41,44)                1.5485                                         !
 ! R45   R(41,53)                1.0933                                         !
 ! R46   R(42,43)                1.2552                                         !
 ! R47   R(42,51)                1.2748                                         !
 ! R48   R(44,45)                1.5393                                         !
 ! R49   R(44,54)                1.0945                                         !
 ! R50   R(44,55)                1.0982                                         !
 ! R51   R(45,46)                1.5446                                         !
 ! R52   R(45,56)                1.0966                                         !
 ! R53   R(45,57)                1.0957                                         !
 ! R54   R(46,47)                1.4751                                         !
 ! R55   R(46,58)                1.0923                                         !
 ! R56   R(46,59)                1.0901                                         !
 ! R57   R(47,48)                1.3405                                         !
 ! R58   R(47,60)                1.01                                           !
 ! R59   R(48,49)                1.3277                                         !
 ! R60   R(48,50)                1.3546                                         !
 ! R61   R(49,61)                1.0106                                         !
 ! R62   R(49,62)                1.0568                                         !
 ! R63   R(50,63)                1.0093                                         !
 ! R64   R(50,64)                1.0095                                         !
 ! A1    A(2,1,13)             111.727                                          !
 ! A2    A(2,1,22)             106.6311                                         !
 ! A3    A(2,1,23)             108.3924                                         !
 ! A4    A(13,1,22)            111.18                                           !
 ! A5    A(13,1,23)            112.065                                          !
 ! A6    A(22,1,23)            106.5531                                         !
 ! A7    A(1,2,3)              103.4892                                         !
 ! A8    A(1,2,5)              109.8693                                         !
 ! A9    A(1,2,14)             107.1613                                         !
 ! A10   A(3,2,5)              116.8995                                         !
 ! A11   A(3,2,14)             108.6821                                         !
 ! A12   A(5,2,14)             110.1696                                         !
 ! A13   A(2,3,4)              118.5014                                         !
 ! A14   A(2,3,24)             118.1202                                         !
 ! A15   A(4,3,24)             123.3435                                         !
 ! A16   A(2,5,6)              112.2284                                         !
 ! A17   A(2,5,15)             107.7095                                         !
 ! A18   A(2,5,16)             108.4185                                         !
 ! A19   A(6,5,15)             110.0742                                         !
 ! A20   A(6,5,16)             110.0468                                         !
 ! A21   A(15,5,16)            108.2482                                         !
 ! A22   A(5,6,7)              120.2748                                         !
 ! A23   A(5,6,8)              121.2396                                         !
 ! A24   A(7,6,8)              118.4249                                         !
 ! A25   A(6,7,9)              120.9461                                         !
 ! A26   A(6,7,17)             119.4869                                         !
 ! A27   A(9,7,17)             119.567                                          !
 ! A28   A(6,8,10)             121.2073                                         !
 ! A29   A(6,8,18)             119.711                                          !
 ! A30   A(10,8,18)            119.0762                                         !
 ! A31   A(7,9,11)             119.8887                                         !
 ! A32   A(7,9,19)             120.0457                                         !
 ! A33   A(11,9,19)            120.0627                                         !
 ! A34   A(8,10,11)            119.7891                                         !
 ! A35   A(8,10,20)            121.4492                                         !
 ! A36   A(11,10,20)           118.7587                                         !
 ! A37   A(9,11,10)            119.7427                                         !
 ! A38   A(9,11,12)            123.2943                                         !
 ! A39   A(10,11,12)           116.9629                                         !
 ! A40   A(11,12,21)           110.0626                                         !
 ! A41   A(3,24,25)            120.5837                                         !
 ! A42   A(3,24,31)            120.106                                          !
 ! A43   A(25,24,31)           118.8755                                         !
 ! A44   A(24,25,26)           110.9534                                         !
 ! A45   A(24,25,28)           110.5623                                         !
 ! A46   A(24,25,32)           108.141                                          !
 ! A47   A(26,25,28)           113.578                                          !
 ! A48   A(26,25,32)           104.0984                                         !
 ! A49   A(28,25,32)           109.1747                                         !
 ! A50   A(25,26,27)           120.5236                                         !
 ! A51   A(25,26,40)           115.7072                                         !
 ! A52   A(27,26,40)           123.7611                                         !
 ! A53   A(25,28,29)           113.199                                          !
 ! A54   A(25,28,30)           110.2497                                         !
 ! A55   A(25,28,33)           105.8202                                         !
 ! A56   A(29,28,30)           110.8778                                         !
 ! A57   A(29,28,33)           108.3946                                         !
 ! A58   A(30,28,33)           108.0318                                         !
 ! A59   A(28,29,34)           113.1447                                         !
 ! A60   A(28,29,35)           109.9912                                         !
 ! A61   A(28,29,36)           110.9819                                         !
 ! A62   A(34,29,35)           106.8841                                         !
 ! A63   A(34,29,36)           107.4989                                         !
 ! A64   A(35,29,36)           108.1279                                         !
 ! A65   A(28,30,37)           111.1601                                         !
 ! A66   A(28,30,38)           111.3519                                         !
 ! A67   A(28,30,39)           110.0661                                         !
 ! A68   A(37,30,38)           107.5469                                         !
 ! A69   A(37,30,39)           108.3809                                         !
 ! A70   A(38,30,39)           108.22                                           !
 ! A71   A(26,40,41)           120.021                                          !
 ! A72   A(26,40,52)           116.237                                          !
 ! A73   A(41,40,52)           111.7541                                         !
 ! A74   A(40,41,42)           107.41                                           !
 ! A75   A(40,41,44)           112.028                                          !
 ! A76   A(40,41,53)           106.3023                                         !
 ! A77   A(42,41,44)           113.2993                                         !
 ! A78   A(42,41,53)           108.6777                                         !
 ! A79   A(44,41,53)           108.8452                                         !
 ! A80   A(41,42,43)           119.7667                                         !
 ! A81   A(41,42,51)           115.7859                                         !
 ! A82   A(43,42,51)           124.4445                                         !
 ! A83   A(41,44,45)           113.8579                                         !
 ! A84   A(41,44,54)           106.4705                                         !
 ! A85   A(41,44,55)           110.1462                                         !
 ! A86   A(45,44,54)           108.1234                                         !
 ! A87   A(45,44,55)           111.251                                          !
 ! A88   A(54,44,55)           106.5981                                         !
 ! A89   A(44,45,46)           114.8047                                         !
 ! A90   A(44,45,56)           108.0455                                         !
 ! A91   A(44,45,57)           109.6324                                         !
 ! A92   A(46,45,56)           108.9828                                         !
 ! A93   A(46,45,57)           108.8958                                         !
 ! A94   A(56,45,57)           106.1234                                         !
 ! A95   A(45,46,47)           112.4158                                         !
 ! A96   A(45,46,58)           111.1149                                         !
 ! A97   A(45,46,59)           111.8917                                         !
 ! A98   A(47,46,58)           106.1937                                         !
 ! A99   A(47,46,59)           108.1343                                         !
 ! A100  A(58,46,59)           106.7586                                         !
 ! A101  A(46,47,48)           124.2256                                         !
 ! A102  A(46,47,60)           118.4996                                         !
 ! A103  A(48,47,60)           117.2369                                         !
 ! A104  A(47,48,49)           121.3384                                         !
 ! A105  A(47,48,50)           118.3426                                         !
 ! A106  A(49,48,50)           120.3174                                         !
 ! A107  A(48,49,61)           119.036                                          !
 ! A108  A(48,49,62)           124.3867                                         !
 ! A109  A(61,49,62)           116.3993                                         !
 ! A110  A(48,50,63)           120.5994                                         !
 ! A111  A(48,50,64)           120.9758                                         !
 ! A112  A(63,50,64)           116.6783                                         !
 ! D1    D(13,1,2,3)           170.0187                                         !
 ! D2    D(13,1,2,5)           -64.4322                                         !
 ! D3    D(13,1,2,14)           55.258                                          !
 ! D4    D(22,1,2,3)           -68.317                                          !
 ! D5    D(22,1,2,5)            57.2321                                         !
 ! D6    D(22,1,2,14)          176.9222                                         !
 ! D7    D(23,1,2,3)            46.0556                                         !
 ! D8    D(23,1,2,5)           171.6047                                         !
 ! D9    D(23,1,2,14)          -68.7052                                         !
 ! D10   D(1,2,3,4)            -31.6253                                         !
 ! D11   D(1,2,3,24)           146.2986                                         !
 ! D12   D(5,2,3,4)           -152.5303                                         !
 ! D13   D(5,2,3,24)            25.3936                                         !
 ! D14   D(14,2,3,4)            82.0418                                         !
 ! D15   D(14,2,3,24)         -100.0343                                         !
 ! D16   D(1,2,5,6)             49.6731                                         !
 ! D17   D(1,2,5,15)           170.9877                                         !
 ! D18   D(1,2,5,16)           -72.089                                          !
 ! D19   D(3,2,5,6)            167.1543                                         !
 ! D20   D(3,2,5,15)           -71.5312                                         !
 ! D21   D(3,2,5,16)            45.3922                                         !
 ! D22   D(14,2,5,6)           -68.1656                                         !
 ! D23   D(14,2,5,15)           53.149                                          !
 ! D24   D(14,2,5,16)          170.0723                                         !
 ! D25   D(2,3,24,25)         -171.1347                                         !
 ! D26   D(2,3,24,31)            1.2139                                         !
 ! D27   D(4,3,24,25)            6.6813                                         !
 ! D28   D(4,3,24,31)          179.0299                                         !
 ! D29   D(2,5,6,7)            -95.5568                                         !
 ! D30   D(2,5,6,8)             81.5642                                         !
 ! D31   D(15,5,6,7)           144.4954                                         !
 ! D32   D(15,5,6,8)           -38.3835                                         !
 ! D33   D(16,5,6,7)            25.2707                                         !
 ! D34   D(16,5,6,8)          -157.6082                                         !
 ! D35   D(5,6,7,9)            177.4525                                         !
 ! D36   D(5,6,7,17)            -2.5772                                         !
 ! D37   D(8,6,7,9)              0.2514                                         !
 ! D38   D(8,6,7,17)          -179.7783                                         !
 ! D39   D(5,6,8,10)          -177.5195                                         !
 ! D40   D(5,6,8,18)             3.3467                                         !
 ! D41   D(7,6,8,10)            -0.3466                                         !
 ! D42   D(7,6,8,18)          -179.4804                                         !
 ! D43   D(6,7,9,11)             0.0585                                         !
 ! D44   D(6,7,9,19)           179.4472                                         !
 ! D45   D(17,7,9,11)         -179.9118                                         !
 ! D46   D(17,7,9,19)           -0.5231                                         !
 ! D47   D(6,8,10,11)            0.1296                                         !
 ! D48   D(6,8,10,20)         -179.243                                          !
 ! D49   D(18,8,10,11)         179.2688                                         !
 ! D50   D(18,8,10,20)          -0.1038                                         !
 ! D51   D(7,9,11,10)           -0.2806                                         !
 ! D52   D(7,9,11,12)          179.844                                          !
 ! D53   D(19,9,11,10)        -179.6692                                         !
 ! D54   D(19,9,11,12)           0.4554                                         !
 ! D55   D(8,10,11,9)            0.1877                                         !
 ! D56   D(8,10,11,12)        -179.9292                                         !
 ! D57   D(20,10,11,9)         179.5772                                         !
 ! D58   D(20,10,11,12)         -0.5397                                         !
 ! D59   D(9,11,12,21)          -2.4274                                         !
 ! D60   D(10,11,12,21)        177.694                                          !
 ! D61   D(3,24,25,26)          56.1537                                         !
 ! D62   D(3,24,25,28)        -176.8966                                         !
 ! D63   D(3,24,25,32)         -57.421                                          !
 ! D64   D(31,24,25,26)       -116.2878                                         !
 ! D65   D(31,24,25,28)         10.6619                                         !
 ! D66   D(31,24,25,32)        130.1375                                         !
 ! D67   D(24,25,26,27)       -144.4344                                         !
 ! D68   D(24,25,26,40)         36.5662                                         !
 ! D69   D(28,25,26,27)         90.2923                                         !
 ! D70   D(28,25,26,40)        -88.7072                                         !
 ! D71   D(32,25,26,27)        -28.3349                                         !
 ! D72   D(32,25,26,40)        152.6657                                         !
 ! D73   D(24,25,28,29)        -63.6464                                         !
 ! D74   D(24,25,28,30)        171.5071                                         !
 ! D75   D(24,25,28,33)         54.9264                                         !
 ! D76   D(26,25,28,29)         61.8357                                         !
 ! D77   D(26,25,28,30)        -63.0108                                         !
 ! D78   D(26,25,28,33)       -179.5915                                         !
 ! D79   D(32,25,28,29)        177.5034                                         !
 ! D80   D(32,25,28,30)         52.6569                                         !
 ! D81   D(32,25,28,33)        -63.9238                                         !
 ! D82   D(25,26,40,41)       -149.9208                                         !
 ! D83   D(25,26,40,52)        -10.2788                                         !
 ! D84   D(27,26,40,41)         31.1159                                         !
 ! D85   D(27,26,40,52)        170.7579                                         !
 ! D86   D(25,28,29,34)         57.2457                                         !
 ! D87   D(25,28,29,35)        176.6927                                         !
 ! D88   D(25,28,29,36)        -63.6956                                         !
 ! D89   D(30,28,29,34)       -178.2484                                         !
 ! D90   D(30,28,29,35)        -58.8014                                         !
 ! D91   D(30,28,29,36)         60.8102                                         !
 ! D92   D(33,28,29,34)        -59.8255                                         !
 ! D93   D(33,28,29,35)         59.6215                                         !
 ! D94   D(33,28,29,36)        179.2332                                         !
 ! D95   D(25,28,30,37)         63.3563                                         !
 ! D96   D(25,28,30,38)        -56.5397                                         !
 ! D97   D(25,28,30,39)       -176.553                                          !
 ! D98   D(29,28,30,37)        -62.8074                                         !
 ! D99   D(29,28,30,38)        177.2966                                         !
 ! D100  D(29,28,30,39)         57.2833                                         !
 ! D101  D(33,28,30,37)        178.5501                                         !
 ! D102  D(33,28,30,38)         58.6541                                         !
 ! D103  D(33,28,30,39)        -61.3592                                         !
 ! D104  D(26,40,41,42)        106.8118                                         !
 ! D105  D(26,40,41,44)       -128.1559                                         !
 ! D106  D(26,40,41,53)         -9.3806                                         !
 ! D107  D(52,40,41,42)        -34.4779                                         !
 ! D108  D(52,40,41,44)         90.5544                                         !
 ! D109  D(52,40,41,53)       -150.6703                                         !
 ! D110  D(40,41,42,43)       -145.2806                                         !
 ! D111  D(40,41,42,51)         34.1294                                         !
 ! D112  D(44,41,42,43)         90.4553                                         !
 ! D113  D(44,41,42,51)        -90.1348                                         !
 ! D114  D(53,41,42,43)        -30.6643                                         !
 ! D115  D(53,41,42,51)        148.7457                                         !
 ! D116  D(40,41,44,45)        154.2264                                         !
 ! D117  D(40,41,44,54)         35.1854                                         !
 ! D118  D(40,41,44,55)        -80.0132                                         !
 ! D119  D(42,41,44,45)        -84.0602                                         !
 ! D120  D(42,41,44,54)        156.8987                                         !
 ! D121  D(42,41,44,55)         41.7001                                         !
 ! D122  D(53,41,44,45)         36.9649                                         !
 ! D123  D(53,41,44,54)        -82.0762                                         !
 ! D124  D(53,41,44,55)        162.7252                                         !
 ! D125  D(41,44,45,46)         76.7919                                         !
 ! D126  D(41,44,45,56)        -45.0418                                         !
 ! D127  D(41,44,45,57)       -160.276                                          !
 ! D128  D(54,44,45,46)       -165.1124                                         !
 ! D129  D(54,44,45,56)         73.054                                          !
 ! D130  D(54,44,45,57)        -42.1802                                         !
 ! D131  D(55,44,45,46)        -48.3825                                         !
 ! D132  D(55,44,45,56)       -170.2161                                         !
 ! D133  D(55,44,45,57)         74.5497                                         !
 ! D134  D(44,45,46,47)       -149.4965                                         !
 ! D135  D(44,45,46,58)         91.6426                                         !
 ! D136  D(44,45,46,59)        -27.5854                                         !
 ! D137  D(56,45,46,47)        -28.1734                                         !
 ! D138  D(56,45,46,58)       -147.0343                                         !
 ! D139  D(56,45,46,59)         93.7376                                         !
 ! D140  D(57,45,46,47)         87.1769                                         !
 ! D141  D(57,45,46,58)        -31.684                                          !
 ! D142  D(57,45,46,59)       -150.912                                          !
 ! D143  D(45,46,47,48)         70.8174                                         !
 ! D144  D(45,46,47,60)       -106.8781                                         !
 ! D145  D(58,46,47,48)       -167.4756                                         !
 ! D146  D(58,46,47,60)         14.8289                                         !
 ! D147  D(59,46,47,48)        -53.2043                                         !
 ! D148  D(59,46,47,60)        129.1002                                         !
 ! D149  D(46,47,48,49)         11.8893                                         !
 ! D150  D(46,47,48,50)       -168.5759                                         !
 ! D151  D(60,47,48,49)       -170.3885                                         !
 ! D152  D(60,47,48,50)          9.1463                                         !
 ! D153  D(47,48,49,61)       -170.8765                                         !
 ! D154  D(47,48,49,62)         14.1551                                         !
 ! D155  D(50,48,49,61)          9.5978                                         !
 ! D156  D(50,48,49,62)       -165.3706                                         !
 ! D157  D(47,48,50,63)       -172.9549                                         !
 ! D158  D(47,48,50,64)         22.5982                                         !
 ! D159  D(49,48,50,63)          6.5848                                         !
 ! D160  D(49,48,50,64)       -157.8621                                         !
 --------------------------------------------------------------------------------
 Symmetry turned off by external request.
 Stoichiometry    C20H33N6O5(1+)
 Framework group  C1[X(C20H33N6O5)]
 Deg. of freedom   186
 Full point group                 C1      NOp   1
                          Input orientation:                          
 ---------------------------------------------------------------------
 Center     Atomic      Atomic             Coordinates (Angstroms)
 Number     Number       Type             X           Y           Z
 ---------------------------------------------------------------------
      1          7           0       32.237442  -31.028291   40.875992
      2          6           0       32.404094  -29.533689   40.863778
      3          6           0       32.362678  -29.154084   42.361349
      4          8           0       31.673778  -29.833788   43.120210
      5          6           0       33.678168  -29.155005   40.083373
      6          6           0       33.746260  -29.835787   38.733442
      7          6           0       34.462182  -31.030909   38.580101
      8          6           0       33.051863  -29.325958   37.625149
      9          6           0       34.490668  -31.697976   37.355209
     10          6           0       33.073609  -29.979449   36.398979
     11          6           0       33.797678  -31.171981   36.257871
     12          8           0       33.780860  -31.761987   35.033500
     13          1           0       32.082839  -31.399421   39.936381
     14          1           0       31.520194  -29.113826   40.370684
     15          1           0       33.680058  -28.065382   39.956104
     16          1           0       34.547777  -29.430868   40.686689
     17          1           0       35.003680  -31.443522   39.428879
     18          1           0       32.496159  -28.395093   37.718472
     19          1           0       35.058466  -32.619946   37.250162
     20          1           0       32.548312  -29.582574   35.536641
     21          1           0       34.339719  -32.555024   35.038504
     22          1           0       33.149134  -31.441637   41.319515
     23          1           0       31.468639  -31.263387   41.514961
     24          7           0       33.120651  -28.116385   42.776070
     25          6           0       33.275481  -27.828840   44.210147
     26          6           0       33.820588  -29.065598   44.967501
     27          8           0       33.447496  -29.310985   46.103796
     28          6           0       34.123443  -26.551020   44.419951
     29          6           0       35.566796  -26.690909   43.907848
     30          6           0       34.105097  -26.137906   45.898585
     31          1           0       33.679630  -27.599942   42.111896
     32          1           0       32.280534  -27.673348   44.635463
     33          1           0       33.624122  -25.761035   43.839418
     34          1           0       35.623457  -26.956167   42.843342
     35          1           0       36.099979  -25.742720   44.027973
     36          1           0       36.108751  -27.459830   44.468032
     37          1           0       34.568685  -26.903473   46.528438
     38          1           0       33.081696  -25.989694   46.258420
     39          1           0       34.654498  -25.200670   46.033572
     40          7           0       34.741974  -29.822867   44.286419
     41          6           0       34.838041  -31.258516   44.538794
     42          6           0       34.231632  -31.985944   43.313577
     43          8           0       33.600828  -33.058970   43.475253
     44          6           0       36.289188  -31.696808   44.854908
     45          6           0       36.381726  -32.973825   45.709432
     46          6           0       36.119176  -34.287947   44.941330
     47          7           0       35.518960  -35.329154   45.796693
     48          6           0       34.261954  -35.291470   46.260743
     49          7           0       33.378977  -34.417376   45.792643
     50          7           0       33.903720  -36.178279   47.220021
     51          8           0       34.411894  -31.418333   42.186477
     52          1           0       34.862283  -29.605466   43.304575
     53          1           0       34.210486  -31.459420   45.411189
     54          1           0       36.745417  -30.876551   45.417985
     55          1           0       36.864956  -31.797421   43.925149
     56          1           0       35.656931  -32.888139   46.527912
     57          1           0       37.368825  -33.030015   46.181736
     58          1           0       37.049354  -34.710264   44.554618
     59          1           0       35.463749  -34.133669   44.084104
     60          1           0       36.094525  -36.107948   46.083712
     61          1           0       32.487222  -34.323474   46.258818
     62          1           0       33.508651  -33.853312   44.908430
     63          1           0       32.942387  -36.251928   47.518409
     64          1           0       34.596886  -36.609761   47.813677
 ---------------------------------------------------------------------
 Rotational constants (GHZ):           0.1559152           0.0871832           0.0630902
 Standard basis: 6-31G(d) (6D, 7F)
   531 basis functions,  1000 primitive gaussians,   531 cartesian basis functions
   117 alpha electrons      117 beta electrons
       nuclear repulsion energy      3318.1496029176 Hartrees.
 NAtoms=   64 NActive=   64 NUniq=   64 SFac= 1.00D+00 NAtFMM=   60 NAOKFM=T Big=T
 Integral buffers will be    131072 words long.
 Raffenetti 2 integral format.
 Two-electron integral symmetry is turned off.
 Nuclear repulsion after empirical dispersion term =     3318.0656400458 Hartrees.
 One-electron integrals computed using PRISM.
 NBasis=   531 RedAO= T EigKep=  4.34D-04  NBF=   531
 NBsUse=   531 1.00D-06 EigRej= -1.00D+00 NBFU=   531
 Initial guess from the checkpoint file:  "conf-302.chk"
 B after Tr=     0.000000    0.000000    0.000000
         Rot=    1.000000    0.000000    0.000000    0.000000 Ang=   0.00 deg.
 Requested convergence on RMS density matrix=1.00D-08 within 128 cycles.
 Requested convergence on MAX density matrix=1.00D-06.
 Requested convergence on             energy=1.00D-06.
 No special actions if energy rises.
 SCF Done:  E(RB3LYP) =  -1486.58624153     A.U. after    1 cycles
            NFock=  1  Conv=0.85D-08     -V/T= 2.0094

 **********************************************************************

            Population analysis using the SCF Density.

 **********************************************************************

 Alpha  occ. eigenvalues --  -19.25994 -19.22700 -19.20714 -19.20472 -19.19061
 Alpha  occ. eigenvalues --  -14.52762 -14.50530 -14.50373 -14.48211 -14.47128
 Alpha  occ. eigenvalues --  -14.42928 -10.46276 -10.40130 -10.37988 -10.36493
 Alpha  occ. eigenvalues --  -10.36245 -10.33724 -10.33587 -10.31794 -10.30847
 Alpha  occ. eigenvalues --  -10.30619 -10.28900 -10.28674 -10.28327 -10.28263
 Alpha  occ. eigenvalues --  -10.28233 -10.27889 -10.27791 -10.27201 -10.25891
 Alpha  occ. eigenvalues --  -10.24406  -1.15256  -1.14695  -1.14218  -1.13794
 Alpha  occ. eigenvalues --   -1.10937  -1.08126  -1.04906  -1.04200  -1.03437
 Alpha  occ. eigenvalues --   -1.02192  -0.99648  -0.94637  -0.90203  -0.89420
 Alpha  occ. eigenvalues --   -0.88259  -0.83936  -0.83709  -0.83103  -0.79656
 Alpha  occ. eigenvalues --   -0.77939  -0.76432  -0.75751  -0.75172  -0.72133
 Alpha  occ. eigenvalues --   -0.71173  -0.70401  -0.69890  -0.68954  -0.68241
 Alpha  occ. eigenvalues --   -0.68135  -0.66698  -0.66131  -0.65397  -0.63969
 Alpha  occ. eigenvalues --   -0.63363  -0.62974  -0.62612  -0.61354  -0.59448
 Alpha  occ. eigenvalues --   -0.58436  -0.57307  -0.56940  -0.56750  -0.56191
 Alpha  occ. eigenvalues --   -0.55809  -0.55407  -0.54563  -0.53547  -0.53093
 Alpha  occ. eigenvalues --   -0.53010  -0.52175  -0.51796  -0.51298  -0.51041
 Alpha  occ. eigenvalues --   -0.50936  -0.50467  -0.49956  -0.49509  -0.48811
 Alpha  occ. eigenvalues --   -0.48351  -0.47677  -0.47114  -0.46377  -0.46151
 Alpha  occ. eigenvalues --   -0.46084  -0.45316  -0.45234  -0.44722  -0.44032
 Alpha  occ. eigenvalues --   -0.42859  -0.42389  -0.42098  -0.41779  -0.41538
 Alpha  occ. eigenvalues --   -0.41237  -0.40761  -0.38767  -0.37352  -0.36790
 Alpha  occ. eigenvalues --   -0.36409  -0.35981  -0.35385  -0.34212  -0.32199
 Alpha  occ. eigenvalues --   -0.32057  -0.30653
 Alpha virt. eigenvalues --   -0.10354  -0.09752  -0.09299  -0.08127  -0.07209
 Alpha virt. eigenvalues --   -0.06525  -0.04996  -0.03503  -0.03377  -0.02492
 Alpha virt. eigenvalues --   -0.02112  -0.00720   0.00097   0.00493   0.00760
 Alpha virt. eigenvalues --    0.01538   0.01753   0.02623   0.03003   0.03893
 Alpha virt. eigenvalues --    0.04502   0.04624   0.04993   0.05485   0.06190
 Alpha virt. eigenvalues --    0.06589   0.06749   0.06853   0.07443   0.07607
 Alpha virt. eigenvalues --    0.07722   0.08703   0.09212   0.09560   0.10211
 Alpha virt. eigenvalues --    0.10808   0.10869   0.11500   0.12058   0.12225
 Alpha virt. eigenvalues --    0.12625   0.12851   0.13116   0.13758   0.14110
 Alpha virt. eigenvalues --    0.14601   0.14852   0.15841   0.16749   0.16972
 Alpha virt. eigenvalues --    0.17093   0.17468   0.18284   0.18805   0.19165
 Alpha virt. eigenvalues --    0.20996   0.21680   0.23180   0.24651   0.25715
 Alpha virt. eigenvalues --    0.25839   0.26643   0.27022   0.27338   0.28176
 Alpha virt. eigenvalues --    0.30754   0.31676   0.32924   0.34744   0.38258
 Alpha virt. eigenvalues --    0.39747   0.39807   0.40325   0.41343   0.42035
 Alpha virt. eigenvalues --    0.42152   0.42598   0.43080   0.43322   0.43479
 Alpha virt. eigenvalues --    0.43982   0.44187   0.44814   0.45404   0.45708
 Alpha virt. eigenvalues --    0.46377   0.46987   0.47278   0.48515   0.48897
 Alpha virt. eigenvalues --    0.49493   0.49723   0.50096   0.50310   0.51060
 Alpha virt. eigenvalues --    0.52222   0.52497   0.52783   0.52870   0.53529
 Alpha virt. eigenvalues --    0.53954   0.54220   0.54650   0.54991   0.55496
 Alpha virt. eigenvalues --    0.55818   0.56550   0.57179   0.57449   0.57891
 Alpha virt. eigenvalues --    0.58529   0.59410   0.59785   0.60484   0.61974
 Alpha virt. eigenvalues --    0.62461   0.62906   0.63266   0.63986   0.64437
 Alpha virt. eigenvalues --    0.65392   0.66864   0.67473   0.67571   0.67999
 Alpha virt. eigenvalues --    0.69206   0.70384   0.71122   0.71607   0.72236
 Alpha virt. eigenvalues --    0.72562   0.73302   0.73539   0.73668   0.74108
 Alpha virt. eigenvalues --    0.74197   0.74638   0.75052   0.75491   0.75926
 Alpha virt. eigenvalues --    0.76326   0.76681   0.76836   0.77521   0.77775
 Alpha virt. eigenvalues --    0.77955   0.78691   0.79592   0.80000   0.80251
 Alpha virt. eigenvalues --    0.80733   0.80869   0.81358   0.82231   0.82494
 Alpha virt. eigenvalues --    0.83208   0.83692   0.84122   0.85065   0.85206
 Alpha virt. eigenvalues --    0.85914   0.86555   0.86797   0.87154   0.87647
 Alpha virt. eigenvalues --    0.88138   0.88648   0.88787   0.89369   0.90016
 Alpha virt. eigenvalues --    0.90455   0.90709   0.91121   0.92624   0.93295
 Alpha virt. eigenvalues --    0.94492   0.95176   0.96534   0.97296   0.97678
 Alpha virt. eigenvalues --    0.98124   0.99815   1.01563   1.02164   1.02495
 Alpha virt. eigenvalues --    1.04123   1.05271   1.05865   1.06659   1.07463
 Alpha virt. eigenvalues --    1.07838   1.09118   1.11015   1.11764   1.12364
 Alpha virt. eigenvalues --    1.13002   1.13972   1.14229   1.16055   1.16971
 Alpha virt. eigenvalues --    1.18269   1.19550   1.19602   1.20328   1.20659
 Alpha virt. eigenvalues --    1.21190   1.23004   1.25080   1.25691   1.26175
 Alpha virt. eigenvalues --    1.27976   1.28932   1.29167   1.31832   1.32372
 Alpha virt. eigenvalues --    1.32913   1.34569   1.35543   1.36196   1.36808
 Alpha virt. eigenvalues --    1.37355   1.37658   1.39108   1.40345   1.41431
 Alpha virt. eigenvalues --    1.42091   1.42332   1.43048   1.44031   1.44547
 Alpha virt. eigenvalues --    1.46530   1.47705   1.48012   1.49355   1.51407
 Alpha virt. eigenvalues --    1.52591   1.54276   1.56532   1.57686   1.58344
 Alpha virt. eigenvalues --    1.59636   1.60277   1.61238   1.61938   1.64070
 Alpha virt. eigenvalues --    1.64962   1.65386   1.65763   1.66310   1.67143
 Alpha virt. eigenvalues --    1.67322   1.68238   1.69174   1.70068   1.70196
 Alpha virt. eigenvalues --    1.70777   1.71683   1.72451   1.73206   1.73861
 Alpha virt. eigenvalues --    1.75172   1.75868   1.76646   1.77629   1.77970
 Alpha virt. eigenvalues --    1.78444   1.78823   1.79061   1.79843   1.80369
 Alpha virt. eigenvalues --    1.80453   1.81557   1.82974   1.84226   1.84585
 Alpha virt. eigenvalues --    1.84868   1.85821   1.86927   1.87203   1.88243
 Alpha virt. eigenvalues --    1.88474   1.89064   1.90014   1.90601   1.92011
 Alpha virt. eigenvalues --    1.92521   1.93464   1.94149   1.94869   1.95755
 Alpha virt. eigenvalues --    1.96514   1.97279   1.97819   1.97923   1.99828
 Alpha virt. eigenvalues --    2.00255   2.00735   2.01314   2.02196   2.03261
 Alpha virt. eigenvalues --    2.05102   2.05318   2.05472   2.05879   2.06652
 Alpha virt. eigenvalues --    2.07738   2.08559   2.09892   2.12616   2.14862
 Alpha virt. eigenvalues --    2.14896   2.17060   2.17578   2.17903   2.18478
 Alpha virt. eigenvalues --    2.19550   2.20346   2.20617   2.21755   2.22431
 Alpha virt. eigenvalues --    2.22776   2.25022   2.26305   2.27340   2.27490
 Alpha virt. eigenvalues --    2.28549   2.30459   2.31119   2.32177   2.33008
 Alpha virt. eigenvalues --    2.33394   2.34803   2.35503   2.36592   2.38023
 Alpha virt. eigenvalues --    2.39982   2.40564   2.42034   2.42625   2.43624
 Alpha virt. eigenvalues --    2.44306   2.45394   2.46043   2.47062   2.49317
 Alpha virt. eigenvalues --    2.49966   2.50930   2.51855   2.52984   2.53280
 Alpha virt. eigenvalues --    2.54562   2.55729   2.56443   2.57442   2.58078
 Alpha virt. eigenvalues --    2.59602   2.60343   2.61244   2.61875   2.63484
 Alpha virt. eigenvalues --    2.65839   2.67446   2.68342   2.69939   2.71063
 Alpha virt. eigenvalues --    2.73929   2.76682   2.78136   2.80525   2.84120
 Alpha virt. eigenvalues --    2.87411   2.87875   2.90727   2.91428   2.93336
 Alpha virt. eigenvalues --    2.93572   2.95900   2.98818   3.02432   3.03536
 Alpha virt. eigenvalues --    3.07783   3.09019   3.32635   3.66814   3.76836
 Alpha virt. eigenvalues --    3.79695   3.86097   3.86177   3.91176   3.94003
 Alpha virt. eigenvalues --    4.00456   4.02899   4.03412   4.06155   4.06422
 Alpha virt. eigenvalues --    4.12038   4.13747   4.13910   4.16602   4.21021
 Alpha virt. eigenvalues --    4.21382   4.23560   4.25539   4.29992   4.30797
 Alpha virt. eigenvalues --    4.35775   4.39287   4.42566   4.46286   4.52839
 Alpha virt. eigenvalues --    4.56858   4.61747   4.65366   4.66620
          Condensed to atoms (all electrons):
 Mulliken charges:
               1
     1  N   -0.763733
     2  C   -0.101375
     3  C    0.659501
     4  O   -0.527936
     5  C   -0.396273
     6  C    0.119602
     7  C   -0.217559
     8  C   -0.190516
     9  C   -0.191237
    10  C   -0.154748
    11  C    0.357819
    12  O   -0.625260
    13  H    0.391930
    14  H    0.208973
    15  H    0.169428
    16  H    0.199216
    17  H    0.165003
    18  H    0.139157
    19  H    0.140423
    20  H    0.165801
    21  H    0.418064
    22  H    0.449921
    23  H    0.405384
    24  N   -0.655773
    25  C   -0.009273
    26  C    0.603331
    27  O   -0.508350
    28  C   -0.124909
    29  C   -0.467680
    30  C   -0.450139
    31  H    0.350686
    32  H    0.198619
    33  H    0.145707
    34  H    0.121632
    35  H    0.171838
    36  H    0.171463
    37  H    0.174453
    38  H    0.161002
    39  H    0.156806
    40  N   -0.596354
    41  C   -0.053788
    42  C    0.633438
    43  O   -0.582370
    44  C   -0.280926
    45  C   -0.281350
    46  C   -0.187363
    47  N   -0.598416
    48  C    0.803929
    49  N   -0.790708
    50  N   -0.769678
    51  O   -0.633343
    52  H    0.338452
    53  H    0.174053
    54  H    0.175951
    55  H    0.153426
    56  H    0.160390
    57  H    0.162717
    58  H    0.180414
    59  H    0.213024
    60  H    0.357168
    61  H    0.361072
    62  H    0.451287
    63  H    0.375177
    64  H    0.372800
 Sum of Mulliken charges =   1.00000
 Mulliken charges with hydrogens summed into heavy atoms:
               1
     1  N    0.483502
     2  C    0.107599
     3  C    0.659501
     4  O   -0.527936
     5  C   -0.027630
     6  C    0.119602
     7  C   -0.052557
     8  C   -0.051359
     9  C   -0.050814
    10  C    0.011052
    11  C    0.357819
    12  O   -0.207196
    24  N   -0.305087
    25  C    0.189346
    26  C    0.603331
    27  O   -0.508350
    28  C    0.020798
    29  C   -0.002748
    30  C    0.042122
    40  N   -0.257902
    41  C    0.120265
    42  C    0.633438
    43  O   -0.582370
    44  C    0.048451
    45  C    0.041757
    46  C    0.206074
    47  N   -0.241248
    48  C    0.803929
    49  N    0.021651
    50  N   -0.021701
    51  O   -0.633343
 Electronic spatial extent (au):  <R**2>=        3295280.8926
 Charge=              1.0000 electrons
 Dipole moment (field-independent basis, Debye):
    X=            164.3371    Y=           -158.6440    Z=            208.4727  Tot=            309.2498
 Quadrupole moment (field-independent basis, Debye-Ang):
   XX=           5460.8084   YY=           5133.6098   ZZ=           8937.9299
   XY=          -5437.8103   XZ=           7146.5576   YZ=          -6936.9127
 Traceless Quadrupole moment (field-independent basis, Debye-Ang):
   XX=          -1049.9743   YY=          -1377.1729   ZZ=           2427.1472
   XY=          -5437.8103   XZ=           7146.5576   YZ=          -6936.9127
 Octapole moment (field-independent basis, Debye-Ang**2):
  XXX=         175852.8303  YYY=        -163512.0754  ZZZ=         378725.6105  XYY=         176316.6519
  XXY=        -181468.9424  XXZ=         238111.3263  XZZ=         307030.5267  YZZ=        -300206.5551
  YYZ=         226365.4529  XYZ=        -238164.6612
 Hexadecapole moment (field-independent basis, Debye-Ang**3):
 XXXX=        5455886.4570 YYYY=        5138348.9051 ZZZZ=       15851210.7892 XXXY=       -5886036.9925
 XXXZ=        7695722.3165 YYYX=       -5628214.8846 YYYZ=       -7279673.1495 ZZZX=       13038254.7148
 ZZZY=      -12868137.9629 XXYY=        5904686.9252 XXZZ=       10252483.8782 YYZZ=        9890762.6150
 XXYZ=       -7967657.0213 YYXZ=        7785006.6954 ZZXY=      -10324904.7931
 N-N= 3.318065640046D+03 E-N=-1.007560111727D+04  KE= 1.472676622145D+03
 Unable to Open any file for archive entry.
 1\1\GINC-AMR-013\SP\RB3LYP\6-31G(d)\C20H33N6O5(1+)\KENGMITH\31-May-202
 2\0\\# B3LYP/6-31G* empiricaldispersion=gd3 guess=read geom=check nosy
 mm integral(ultrafinegrid)\\Candidate Structure: Conf:302 Charge calc 
 in gas phase\\1,1\N,0,32.2374415712,-31.0282906186,40.8759919516\C,0,3
 2.4040940416,-29.5336885524,40.8637783104\C,0,32.3626783792,-29.154084
 0046,42.3613492958\O,0,31.673778122,-29.833787696,43.1202103562\C,0,33
 .6781678101,-29.155005126,40.0833730756\C,0,33.7462597485,-29.83578746
 1,38.7334422877\C,0,34.4621824184,-31.0309092661,38.5801010642\C,0,33.
 05186332,-29.3259575952,37.6251487042\C,0,34.4906677462,-31.6979755615
 ,37.3552094626\C,0,33.0736087654,-29.9794493152,36.3989789383\C,0,33.7
 976778567,-31.1719805999,36.257871069\O,0,33.7808603117,-31.7619867125
 ,35.0335001397\H,0,32.0828386314,-31.3994212329,39.9363811765\H,0,31.5
 201937251,-29.1138261027,40.3706839109\H,0,33.6800579693,-28.065382222
 3,39.9561043526\H,0,34.5477774703,-29.4308682134,40.6866891249\H,0,35.
 0036800758,-31.4435222343,39.4288789211\H,0,32.4961587813,-28.39509292
 ,37.7184717558\H,0,35.0584659965,-32.6199456381,37.2501616655\H,0,32.5
 483115672,-29.5825744892,35.5366408632\H,0,34.3397189442,-32.555024224
 ,35.038503922\H,0,33.1491342491,-31.4416367796,41.3195152148\H,0,31.46
 86390959,-31.2633873733,41.5149611021\N,0,33.1206513386,-28.1163852597
 ,42.776070295\C,0,33.2754808292,-27.8288397889,44.2101473464\C,0,33.82
 05878638,-29.0655980387,44.967500914\O,0,33.44749629,-29.3109851563,46
 .10379647\C,0,34.1234434975,-26.5510204572,44.4199506693\C,0,35.566796
 194,-26.69090917,43.9078477215\C,0,34.1050971142,-26.1379064635,45.898
 584614\H,0,33.679630396,-27.5999418638,42.1118957485\H,0,32.2805336717
 ,-27.6733480138,44.635463461\H,0,33.6241219754,-25.7610354367,43.83941
 80571\H,0,35.6234567603,-26.9561667791,42.8433420441\H,0,36.0999790933
 ,-25.7427201889,44.027972526\H,0,36.1087512392,-27.4598303182,44.46803
 24931\H,0,34.5686845699,-26.9034730119,46.5284375131\H,0,33.0816963364
 ,-25.989693923,46.258419581\H,0,34.6544984577,-25.2006697572,46.033572
 06\N,0,34.7419735537,-29.8228667926,44.286418628\C,0,34.8380405993,-31
 .2585161263,44.538793545\C,0,34.2316321484,-31.9859439159,43.313576960
 6\O,0,33.6008281947,-33.0589699904,43.4752527226\C,0,36.2891884276,-31
 .6968078994,44.8549078054\C,0,36.3817263525,-32.9738249328,45.70943209
 55\C,0,36.1191763926,-34.2879466658,44.9413300824\N,0,35.5189603042,-3
 5.3291540695,45.7966928192\C,0,34.2619541667,-35.2914699894,46.2607427
 97\N,0,33.3789769237,-34.4173756041,45.7926434805\N,0,33.9037199365,-3
 6.1782786373,47.2200214461\O,0,34.4118937507,-31.4183327841,42.1864774
 048\H,0,34.8622833072,-29.6054664258,43.3045745055\H,0,34.2104864693,-
 31.4594203271,45.4111889561\H,0,36.7454166094,-30.8765508833,45.417985
 2122\H,0,36.864956022,-31.7974206325,43.9251489704\H,0,35.6569313709,-
 32.8881386253,46.527912355\H,0,37.368825299,-33.0300153572,46.18173582
 02\H,0,37.0493541081,-34.7102636778,44.5546182533\H,0,35.4637486444,-3
 4.1336687742,44.0841042233\H,0,36.0945248227,-36.1079476192,46.0837117
 706\H,0,32.4872218826,-34.3234736306,46.2588177211\H,0,33.5086513797,-
 33.8533118453,44.9084301091\H,0,32.9423871469,-36.2519282149,47.518409
 4241\H,0,34.5968864727,-36.6097609936,47.8136772929\\Version=ES64L-G16
 RevC.01\HF=-1486.5862415\RMSD=8.541e-09\Dipole=0.3757093,-4.1515859,1.
 4787442\Quadrupole=-780.6301644,-1023.8943102,1804.5244746,-4042.87867
 13,5313.2904076,-5157.4245917\PG=C01 [X(C20H33N6O5)]\\@
 The archive entry for this job was punched.


 FESTINA LENTE!
     - IMPERATOR AUGUSTUS 
 Job cpu time:       0 days  0 hours  1 minutes  2.0 seconds.
 Elapsed time:       0 days  0 hours  0 minutes 15.9 seconds.
 File lengths (MBytes):  RWF=    264 Int=      0 D2E=      0 Chk=     40 Scr=     16
 Normal termination of Gaussian 16 at Tue May 31 11:31:48 2022.
