 Entering Gaussian System, Link 0=/opt/software/Gaussian/g16-AVX2-C.01/g16/g16
 Input=charge-conf-14.com
 Output=charge-conf-14.log
 Initial command:
 /opt/software/Gaussian/g16-AVX2-C.01/g16/l1.exe "/mnt/gs18/scratch/users/kengmith/Gau-49151.inp" -scrdir="/mnt/gs18/scratch/users/kengmith/"
 Entering Link 1 = /opt/software/Gaussian/g16-AVX2-C.01/g16/l1.exe PID=     49161.
  
 Copyright (c) 1988-2019, Gaussian, Inc.  All Rights Reserved.
  
 This is part of the Gaussian(R) 16 program.  It is based on
 the Gaussian(R) 09 system (copyright 2009, Gaussian, Inc.),
 the Gaussian(R) 03 system (copyright 2003, Gaussian, Inc.),
 the Gaussian(R) 98 system (copyright 1998, Gaussian, Inc.),
 the Gaussian(R) 94 system (copyright 1995, Gaussian, Inc.),
 the Gaussian 92(TM) system (copyright 1992, Gaussian, Inc.),
 the Gaussian 90(TM) system (copyright 1990, Gaussian, Inc.),
 the Gaussian 88(TM) system (copyright 1988, Gaussian, Inc.),
 the Gaussian 86(TM) system (copyright 1986, Carnegie Mellon
 University), and the Gaussian 82(TM) system (copyright 1983,
 Carnegie Mellon University). Gaussian is a federally registered
 trademark of Gaussian, Inc.
  
 This software contains proprietary and confidential information,
 including trade secrets, belonging to Gaussian, Inc.
  
 This software is provided under written license and may be
 used, copied, transmitted, or stored only in accord with that
 written license.
  
 The following legend is applicable only to US Government
 contracts under FAR:
  
                    RESTRICTED RIGHTS LEGEND
  
 Use, reproduction and disclosure by the US Government is
 subject to restrictions as set forth in subparagraphs (a)
 and (c) of the Commercial Computer Software - Restricted
 Rights clause in FAR 52.227-19.
  
 Gaussian, Inc.
 340 Quinnipiac St., Bldg. 40, Wallingford CT 06492
  
  
 ---------------------------------------------------------------
 Warning -- This program may not be used in any manner that
 competes with the business of Gaussian, Inc. or will provide
 assistance to any competitor of Gaussian, Inc.  The licensee
 of this program is prohibited from giving any competitor of
 Gaussian, Inc. access to this program.  By using this program,
 the user acknowledges that Gaussian, Inc. is engaged in the
 business of creating and licensing software in the field of
 computational chemistry and represents and warrants to the
 licensee that it is not a competitor of Gaussian, Inc. and that
 it will not use this program in any manner prohibited above.
 ---------------------------------------------------------------
  

 Cite this work as:
 Gaussian 16, Revision C.01,
 M. J. Frisch, G. W. Trucks, H. B. Schlegel, G. E. Scuseria, 
 M. A. Robb, J. R. Cheeseman, G. Scalmani, V. Barone, 
 G. A. Petersson, H. Nakatsuji, X. Li, M. Caricato, A. V. Marenich, 
 J. Bloino, B. G. Janesko, R. Gomperts, B. Mennucci, H. P. Hratchian, 
 J. V. Ortiz, A. F. Izmaylov, J. L. Sonnenberg, D. Williams-Young, 
 F. Ding, F. Lipparini, F. Egidi, J. Goings, B. Peng, A. Petrone, 
 T. Henderson, D. Ranasinghe, V. G. Zakrzewski, J. Gao, N. Rega, 
 G. Zheng, W. Liang, M. Hada, M. Ehara, K. Toyota, R. Fukuda, 
 J. Hasegawa, M. Ishida, T. Nakajima, Y. Honda, O. Kitao, H. Nakai, 
 T. Vreven, K. Throssell, J. A. Montgomery, Jr., J. E. Peralta, 
 F. Ogliaro, M. J. Bearpark, J. J. Heyd, E. N. Brothers, K. N. Kudin, 
 V. N. Staroverov, T. A. Keith, R. Kobayashi, J. Normand, 
 K. Raghavachari, A. P. Rendell, J. C. Burant, S. S. Iyengar, 
 J. Tomasi, M. Cossi, J. M. Millam, M. Klene, C. Adamo, R. Cammi, 
 J. W. Ochterski, R. L. Martin, K. Morokuma, O. Farkas, 
 J. B. Foresman, and D. J. Fox, Gaussian, Inc., Wallingford CT, 2019.
 
 ******************************************
 Gaussian 16:  ES64L-G16RevC.01  3-Jul-2019
                25-May-2022 
 ******************************************
 %mem=8gb
 %nproc=4
 Will use up to    4 processors via shared memory.
 %chk=conf-14.chk
 ----------------------------------------------------------------------
 # B3LYP/6-31G* empiricaldispersion=gd3 guess=read geom=check nosymm in
 tegral(ultrafinegrid)
 ----------------------------------------------------------------------
 1/29=2,38=1,172=1/1;
 2/12=2,15=1,40=1/2;
 3/5=1,6=6,7=1,11=2,14=-4,25=1,30=1,74=-5,75=-5,116=-2,124=31/1,2,3;
 4/5=1/1;
 5/5=2,38=6/2;
 6/7=2,8=2,9=2,10=2,28=1/1;
 99/5=1,9=1/99;
 -----------------------------------------------------
 Candidate Structure: Conf:14 Charge calc in gas phase
 -----------------------------------------------------
 Structure from the checkpoint file:  "conf-14.chk"
 Charge =  1 Multiplicity = 1
 Redundant internal coordinates found in file.  (old form).
 N,0,-5.704153759,19.4582874789,12.7928822755
 C,0,-5.6135961212,18.1283351939,13.4904645947
 C,0,-5.6555093983,17.126404002,12.3012930683
 O,0,-5.1993965984,17.5217771219,11.2251623241
 C,0,-6.7201864419,18.0510379326,14.5653620776
 C,0,-6.7890429476,19.310819011,15.4068495658
 C,0,-7.668329606,20.3474505383,15.056477499
 C,0,-5.9447450321,19.47751099,16.5128976594
 C,0,-7.7002788568,21.5255599392,15.8056041222
 C,0,-5.9791563664,20.6548567538,17.2615141771
 C,0,-6.8579806779,21.6816023855,16.9086002627
 H,0,-5.4985087006,20.2356852417,13.4220588341
 H,0,-4.6253926204,18.072628256,13.9623929678
 H,0,-7.6764298961,17.8816582919,14.065036685
 H,0,-6.5119038407,17.1955756302,15.2108317129
 H,0,-8.3118478396,20.227425932,14.1875418779
 H,0,-5.2653271096,18.6762928263,16.7977273453
 H,0,-8.3871740789,22.3201263582,15.5277736049
 H,0,-5.3252425462,20.767916143,18.1216208027
 H,0,-6.8874002283,22.5970924032,17.4924979847
 H,0,-6.7420334261,19.5208471071,12.3975747422
 H,0,-5.0749669402,19.4334709717,11.9818769516
 N,0,-6.2490874313,15.9152467169,12.4147425486
 C,0,-6.4810046534,15.1407064046,11.169274824
 C,0,-7.3142496896,15.9118964321,10.1281511953
 O,0,-7.1718805375,15.6879402056,8.9343492787
 C,0,-7.1612471963,13.8579837881,11.6802735716
 C,0,-6.5668804257,13.6784484968,13.0836921054
 C,0,-6.5274880631,15.1143317003,13.6250298384
 H,0,-5.5263324264,14.9255364018,10.6812507139
 H,0,-8.2451679014,14.0122702509,11.7436972193
 H,0,-6.9777882271,13.0138830306,11.0124388169
 H,0,-7.1543350768,13.01529934,13.7245062818
 H,0,-5.5495929941,13.2763770195,13.0167427243
 H,0,-5.7489135216,15.2607767434,14.3782610926
 H,0,-7.4936759228,15.3925518862,14.0613749259
 N,0,-8.2143035309,16.8041302085,10.6376275721
 C,0,-8.5960230072,17.9756655109,9.8572431601
 C,0,-8.4441455349,19.2569379241,10.7344552383
 O,0,-8.0652823465,19.0457433875,11.9562363276
 C,0,-10.0024046572,17.829358118,9.2454700506
 C,0,-10.2671054629,18.8675788605,8.1496162511
 C,0,-11.6899773602,18.7682027576,7.5796690212
 C,0,-11.8954714383,19.836550456,6.5180736265
 N,0,-13.3215184546,19.771465072,5.9497800632
 O,0,-8.6721518961,20.3497724161,10.2138389539
 H,0,-8.1120541944,17.0516753377,11.616525496
 H,0,-7.8793760754,18.0697227751,9.0314918452
 H,0,-10.7587349866,17.9107784713,10.0386046283
 H,0,-10.0755923055,16.817559629,8.828293486
 H,0,-10.0879747139,19.8642828633,8.5645138929
 H,0,-9.540500966,18.7229591454,7.337851801
 H,0,-12.4210347261,18.9048941516,8.3895617935
 H,0,-11.8588415678,17.7711693177,7.1473065793
 H,0,-11.7771823004,20.8463987606,6.9182422377
 H,0,-11.2273107986,19.7108818651,5.6625639118
 H,0,-13.5035445167,18.8498724138,5.5340596766
 H,0,-13.491203448,20.4824539793,5.2280440063
 H,0,-14.0140055723,19.9083031839,6.6961098788
 Recover connectivity data from disk.
                           ----------------------------
                           !    Current Parameters    !
                           ! (Angstroms and Degrees)  !
 --------------------------                            --------------------------
 ! Name  Definition              Value                                          !
 --------------------------------------------------------------------------------
 ! R1    R(1,2)                  1.5045                                         !
 ! R2    R(1,12)                 1.021                                          !
 ! R3    R(1,21)                 1.1124                                         !
 ! R4    R(1,22)                 1.0268                                         !
 ! R5    R(2,3)                  1.5556                                         !
 ! R6    R(2,5)                  1.5446                                         !
 ! R7    R(2,13)                 1.0965                                         !
 ! R8    R(3,4)                  1.2339                                         !
 ! R9    R(3,23)                 1.3536                                         !
 ! R10   R(5,6)                  1.5165                                         !
 ! R11   R(5,14)                 1.0924                                         !
 ! R12   R(5,15)                 1.0917                                         !
 ! R13   R(6,7)                  1.4037                                         !
 ! R14   R(6,8)                  1.4014                                         !
 ! R15   R(7,9)                  1.3965                                         !
 ! R16   R(7,16)                 1.0879                                         !
 ! R17   R(8,10)                 1.3956                                         !
 ! R18   R(8,17)                 1.0884                                         !
 ! R19   R(9,11)                 1.3966                                         !
 ! R20   R(9,18)                 1.0864                                         !
 ! R21   R(10,11)                1.3968                                         !
 ! R22   R(10,19)                1.0864                                         !
 ! R23   R(11,20)                1.0862                                         !
 ! R24   R(23,24)                1.4849                                         !
 ! R25   R(23,29)                1.4778                                         !
 ! R26   R(24,25)                1.5404                                         !
 ! R27   R(24,27)                1.5392                                         !
 ! R28   R(24,30)                1.0936                                         !
 ! R29   R(25,26)                1.2229                                         !
 ! R30   R(25,37)                1.3659                                         !
 ! R31   R(27,28)                1.5346                                         !
 ! R32   R(27,31)                1.0967                                         !
 ! R33   R(27,32)                1.0919                                         !
 ! R34   R(28,29)                1.535                                          !
 ! R35   R(28,33)                1.0934                                         !
 ! R36   R(28,34)                1.0959                                         !
 ! R37   R(29,35)                1.0932                                         !
 ! R38   R(29,36)                1.096                                          !
 ! R39   R(37,38)                1.4585                                         !
 ! R40   R(37,47)                1.0149                                         !
 ! R41   R(38,39)                1.5602                                         !
 ! R42   R(38,41)                1.5406                                         !
 ! R43   R(38,48)                1.0974                                         !
 ! R44   R(39,40)                1.2965                                         !
 ! R45   R(39,46)                1.2318                                         !
 ! R46   R(41,42)                1.5326                                         !
 ! R47   R(41,49)                1.099                                          !
 ! R48   R(41,50)                1.0969                                         !
 ! R49   R(42,43)                1.536                                          !
 ! R50   R(42,51)                1.0944                                         !
 ! R51   R(42,52)                1.099                                          !
 ! R52   R(43,44)                1.5201                                         !
 ! R53   R(43,53)                1.0996                                         !
 ! R54   R(43,54)                1.0998                                         !
 ! R55   R(44,45)                1.5365                                         !
 ! R56   R(44,55)                1.0927                                         !
 ! R57   R(44,56)                1.0928                                         !
 ! R58   R(45,57)                1.0273                                         !
 ! R59   R(45,58)                1.0272                                         !
 ! R60   R(45,59)                1.0273                                         !
 ! A1    A(2,1,12)             112.037                                          !
 ! A2    A(2,1,21)             105.7026                                         !
 ! A3    A(2,1,22)             107.9376                                         !
 ! A4    A(12,1,21)            111.3515                                         !
 ! A5    A(12,1,22)            112.4399                                         !
 ! A6    A(21,1,22)            107.0026                                         !
 ! A7    A(1,2,3)              102.3153                                         !
 ! A8    A(1,2,5)              108.8909                                         !
 ! A9    A(1,2,13)             107.3798                                         !
 ! A10   A(3,2,5)              118.7147                                         !
 ! A11   A(3,2,13)             108.6978                                         !
 ! A12   A(5,2,13)             110.0959                                         !
 ! A13   A(2,3,4)              116.7687                                         !
 ! A14   A(2,3,23)             121.6063                                         !
 ! A15   A(4,3,23)             121.4622                                         !
 ! A16   A(2,5,6)              112.1534                                         !
 ! A17   A(2,5,14)             108.4297                                         !
 ! A18   A(2,5,15)             108.2989                                         !
 ! A19   A(6,5,14)             110.0708                                         !
 ! A20   A(6,5,15)             109.3615                                         !
 ! A21   A(14,5,15)            108.4388                                         !
 ! A22   A(5,6,7)              120.2246                                         !
 ! A23   A(5,6,8)              120.6225                                         !
 ! A24   A(7,6,8)              119.1124                                         !
 ! A25   A(6,7,9)              120.2275                                         !
 ! A26   A(6,7,16)             119.2354                                         !
 ! A27   A(9,7,16)             120.5308                                         !
 ! A28   A(6,8,10)             120.5864                                         !
 ! A29   A(6,8,17)             119.6724                                         !
 ! A30   A(10,8,17)            119.7365                                         !
 ! A31   A(7,9,11)             120.274                                          !
 ! A32   A(7,9,18)             119.6216                                         !
 ! A33   A(11,9,18)            120.104                                          !
 ! A34   A(8,10,11)            120.0057                                         !
 ! A35   A(8,10,19)            119.8443                                         !
 ! A36   A(11,10,19)           120.1491                                         !
 ! A37   A(9,11,10)            119.7934                                         !
 ! A38   A(9,11,20)            120.1573                                         !
 ! A39   A(10,11,20)           120.0491                                         !
 ! A40   A(3,23,24)            117.7058                                         !
 ! A41   A(3,23,29)            129.5109                                         !
 ! A42   A(24,23,29)           112.0131                                         !
 ! A43   A(23,24,25)           112.969                                          !
 ! A44   A(23,24,27)           103.0181                                         !
 ! A45   A(23,24,30)           109.9135                                         !
 ! A46   A(25,24,27)           113.7361                                         !
 ! A47   A(25,24,30)           105.6108                                         !
 ! A48   A(27,24,30)           111.7152                                         !
 ! A49   A(24,25,26)           120.3383                                         !
 ! A50   A(24,25,37)           115.5534                                         !
 ! A51   A(26,25,37)           124.0859                                         !
 ! A52   A(24,27,28)           103.2929                                         !
 ! A53   A(24,27,31)           109.801                                          !
 ! A54   A(24,27,32)           111.5269                                         !
 ! A55   A(28,27,31)           110.2653                                         !
 ! A56   A(28,27,32)           113.818                                          !
 ! A57   A(31,27,32)           108.0714                                         !
 ! A58   A(27,28,29)           102.8858                                         !
 ! A59   A(27,28,33)           113.5053                                         !
 ! A60   A(27,28,34)           110.2778                                         !
 ! A61   A(29,28,33)           111.9892                                         !
 ! A62   A(29,28,34)           109.9321                                         !
 ! A63   A(33,28,34)           108.1809                                         !
 ! A64   A(23,29,28)           102.8841                                         !
 ! A65   A(23,29,35)           110.9494                                         !
 ! A66   A(23,29,36)           110.7658                                         !
 ! A67   A(28,29,35)           112.7421                                         !
 ! A68   A(28,29,36)           110.8066                                         !
 ! A69   A(35,29,36)           108.6341                                         !
 ! A70   A(25,37,38)           119.8397                                         !
 ! A71   A(25,37,47)           116.9176                                         !
 ! A72   A(38,37,47)           110.2756                                         !
 ! A73   A(37,38,39)           109.4713                                         !
 ! A74   A(37,38,41)           112.0305                                         !
 ! A75   A(37,38,48)           107.4902                                         !
 ! A76   A(39,38,41)           112.9613                                         !
 ! A77   A(39,38,48)           106.8046                                         !
 ! A78   A(41,38,48)           107.7867                                         !
 ! A79   A(38,39,40)           115.12                                           !
 ! A80   A(38,39,46)           118.2247                                         !
 ! A81   A(40,39,46)           126.6486                                         !
 ! A82   A(38,41,42)           112.1641                                         !
 ! A83   A(38,41,49)           109.5497                                         !
 ! A84   A(38,41,50)           107.4297                                         !
 ! A85   A(42,41,49)           110.3033                                         !
 ! A86   A(42,41,50)           109.9628                                         !
 ! A87   A(49,41,50)           107.2722                                         !
 ! A88   A(41,42,43)           112.4257                                         !
 ! A89   A(41,42,51)           108.5188                                         !
 ! A90   A(41,42,52)           108.9541                                         !
 ! A91   A(43,42,51)           110.5625                                         !
 ! A92   A(43,42,52)           109.2603                                         !
 ! A93   A(51,42,52)           106.9572                                         !
 ! A94   A(42,43,44)           109.8102                                         !
 ! A95   A(42,43,53)           109.5447                                         !
 ! A96   A(42,43,54)           110.2896                                         !
 ! A97   A(44,43,53)           109.7033                                         !
 ! A98   A(44,43,54)           109.9896                                         !
 ! A99   A(53,43,54)           107.4683                                         !
 ! A100  A(43,44,45)           110.7327                                         !
 ! A101  A(43,44,55)           112.2813                                         !
 ! A102  A(43,44,56)           112.5367                                         !
 ! A103  A(45,44,55)           105.9668                                         !
 ! A104  A(45,44,56)           105.8463                                         !
 ! A105  A(55,44,56)           109.0752                                         !
 ! A106  A(44,45,57)           110.6181                                         !
 ! A107  A(44,45,58)           112.5732                                         !
 ! A108  A(44,45,59)           110.5666                                         !
 ! A109  A(57,45,58)           107.8987                                         !
 ! A110  A(57,45,59)           107.1016                                         !
 ! A111  A(58,45,59)           107.8729                                         !
 ! D1    D(12,1,2,3)          -168.3282                                         !
 ! D2    D(12,1,2,5)            65.1971                                         !
 ! D3    D(12,1,2,13)          -53.9879                                         !
 ! D4    D(21,1,2,3)            70.2181                                         !
 ! D5    D(21,1,2,5)           -56.2566                                         !
 ! D6    D(21,1,2,13)         -175.4417                                         !
 ! D7    D(22,1,2,3)           -44.0042                                         !
 ! D8    D(22,1,2,5)          -170.4789                                         !
 ! D9    D(22,1,2,13)           70.3361                                         !
 ! D10   D(1,2,3,4)             29.1981                                         !
 ! D11   D(1,2,3,23)          -146.2272                                         !
 ! D12   D(5,2,3,4)            149.0301                                         !
 ! D13   D(5,2,3,23)           -26.3952                                         !
 ! D14   D(13,2,3,4)           -84.1715                                         !
 ! D15   D(13,2,3,23)          100.4032                                         !
 ! D16   D(1,2,5,6)            -46.6207                                         !
 ! D17   D(1,2,5,14)            75.131                                          !
 ! D18   D(1,2,5,15)          -167.395                                          !
 ! D19   D(3,2,5,6)           -163.0125                                         !
 ! D20   D(3,2,5,14)           -41.2608                                         !
 ! D21   D(3,2,5,15)            76.2132                                         !
 ! D22   D(13,2,5,6)            70.8552                                         !
 ! D23   D(13,2,5,14)         -167.3931                                         !
 ! D24   D(13,2,5,15)          -49.9191                                         !
 ! D25   D(2,3,23,24)          168.0663                                         !
 ! D26   D(2,3,23,29)          -22.8799                                         !
 ! D27   D(4,3,23,24)           -7.1448                                         !
 ! D28   D(4,3,23,29)          161.909                                          !
 ! D29   D(2,5,6,7)             93.4585                                         !
 ! D30   D(2,5,6,8)            -84.209                                          !
 ! D31   D(14,5,6,7)           -27.3499                                         !
 ! D32   D(14,5,6,8)           154.9827                                         !
 ! D33   D(15,5,6,7)          -146.3832                                         !
 ! D34   D(15,5,6,8)            35.9494                                         !
 ! D35   D(5,6,7,9)           -177.8878                                         !
 ! D36   D(5,6,7,16)             1.2007                                         !
 ! D37   D(8,6,7,9)             -0.1853                                         !
 ! D38   D(8,6,7,16)           178.9032                                         !
 ! D39   D(5,6,8,10)           177.9614                                         !
 ! D40   D(5,6,8,17)            -2.8201                                         !
 ! D41   D(7,6,8,10)             0.2683                                         !
 ! D42   D(7,6,8,17)           179.4869                                         !
 ! D43   D(6,7,9,11)             0.0072                                         !
 ! D44   D(6,7,9,18)          -179.7822                                         !
 ! D45   D(16,7,9,11)         -179.0694                                         !
 ! D46   D(16,7,9,18)            1.1412                                         !
 ! D47   D(6,8,10,11)           -0.1725                                         !
 ! D48   D(6,8,10,19)          179.4866                                         !
 ! D49   D(17,8,10,11)        -179.3905                                         !
 ! D50   D(17,8,10,19)           0.2685                                         !
 ! D51   D(7,9,11,10)            0.0912                                         !
 ! D52   D(7,9,11,20)         -179.7396                                         !
 ! D53   D(18,9,11,10)         179.8795                                         !
 ! D54   D(18,9,11,20)           0.0488                                         !
 ! D55   D(8,10,11,9)           -0.009                                          !
 ! D56   D(8,10,11,20)         179.8219                                         !
 ! D57   D(19,10,11,9)        -179.667                                          !
 ! D58   D(19,10,11,20)          0.1639                                         !
 ! D59   D(3,23,24,25)         -56.591                                          !
 ! D60   D(3,23,24,27)        -179.7327                                         !
 ! D61   D(3,23,24,30)          61.0804                                         !
 ! D62   D(29,23,24,25)        132.5009                                         !
 ! D63   D(29,23,24,27)          9.3592                                         !
 ! D64   D(29,23,24,30)       -109.8276                                         !
 ! D65   D(3,23,29,28)        -154.1502                                         !
 ! D66   D(3,23,29,35)         -33.339                                          !
 ! D67   D(3,23,29,36)          87.3968                                         !
 ! D68   D(24,23,29,28)         15.4022                                         !
 ! D69   D(24,23,29,35)        136.2134                                         !
 ! D70   D(24,23,29,36)       -103.0508                                         !
 ! D71   D(23,24,25,26)        151.6019                                         !
 ! D72   D(23,24,25,37)        -30.0526                                         !
 ! D73   D(27,24,25,26)        -91.421                                          !
 ! D74   D(27,24,25,37)         86.9245                                         !
 ! D75   D(30,24,25,26)         31.4348                                         !
 ! D76   D(30,24,25,37)       -150.2197                                         !
 ! D77   D(23,24,27,28)        -30.3428                                         !
 ! D78   D(23,24,27,31)         87.2594                                         !
 ! D79   D(23,24,27,32)       -152.976                                          !
 ! D80   D(25,24,27,28)       -152.9722                                         !
 ! D81   D(25,24,27,31)        -35.3699                                         !
 ! D82   D(25,24,27,32)         84.3947                                         !
 ! D83   D(30,24,27,28)         87.5855                                         !
 ! D84   D(30,24,27,31)       -154.8122                                         !
 ! D85   D(30,24,27,32)        -35.0476                                         !
 ! D86   D(24,25,37,38)        151.9569                                         !
 ! D87   D(24,25,37,47)         14.2867                                         !
 ! D88   D(26,25,37,38)        -29.7673                                         !
 ! D89   D(26,25,37,47)       -167.4375                                         !
 ! D90   D(24,27,28,29)         40.1578                                         !
 ! D91   D(24,27,28,33)        161.3799                                         !
 ! D92   D(24,27,28,34)        -77.058                                          !
 ! D93   D(31,27,28,29)        -77.1184                                         !
 ! D94   D(31,27,28,33)         44.1037                                         !
 ! D95   D(31,27,28,34)        165.6658                                         !
 ! D96   D(32,27,28,29)        161.2511                                         !
 ! D97   D(32,27,28,33)        -77.5268                                         !
 ! D98   D(32,27,28,34)         44.0353                                         !
 ! D99   D(27,28,29,23)        -33.8561                                         !
 ! D100  D(27,28,29,35)       -153.4321                                         !
 ! D101  D(27,28,29,36)         84.5683                                         !
 ! D102  D(33,28,29,23)       -156.1061                                         !
 ! D103  D(33,28,29,35)         84.3179                                         !
 ! D104  D(33,28,29,36)        -37.6817                                         !
 ! D105  D(34,28,29,23)         83.6044                                         !
 ! D106  D(34,28,29,35)        -35.9716                                         !
 ! D107  D(34,28,29,36)       -157.9712                                         !
 ! D108  D(25,37,38,39)       -129.1329                                         !
 ! D109  D(25,37,38,41)        104.7504                                         !
 ! D110  D(25,37,38,48)        -13.4799                                         !
 ! D111  D(47,37,38,39)         11.0676                                         !
 ! D112  D(47,37,38,41)       -115.0491                                         !
 ! D113  D(47,37,38,48)        126.7206                                         !
 ! D114  D(37,38,39,40)         -2.1041                                         !
 ! D115  D(37,38,39,46)        177.0122                                         !
 ! D116  D(41,38,39,40)        123.479                                          !
 ! D117  D(41,38,39,46)        -57.4047                                         !
 ! D118  D(48,38,39,40)       -118.1933                                         !
 ! D119  D(48,38,39,46)         60.9229                                         !
 ! D120  D(37,38,41,42)       -165.3083                                         !
 ! D121  D(37,38,41,49)         71.8549                                         !
 ! D122  D(37,38,41,50)        -44.3588                                         !
 ! D123  D(39,38,41,42)         70.4993                                         !
 ! D124  D(39,38,41,49)        -52.3375                                         !
 ! D125  D(39,38,41,50)       -168.5511                                         !
 ! D126  D(48,38,41,42)        -47.2542                                         !
 ! D127  D(48,38,41,49)       -170.091                                          !
 ! D128  D(48,38,41,50)         73.6954                                         !
 ! D129  D(38,41,42,43)       -177.4056                                         !
 ! D130  D(38,41,42,51)        -54.7934                                         !
 ! D131  D(38,41,42,52)         61.3267                                         !
 ! D132  D(49,41,42,43)        -54.9955                                         !
 ! D133  D(49,41,42,51)         67.6166                                         !
 ! D134  D(49,41,42,52)       -176.2632                                         !
 ! D135  D(50,41,42,43)         63.1171                                         !
 ! D136  D(50,41,42,51)       -174.2707                                         !
 ! D137  D(50,41,42,52)        -58.1506                                         !
 ! D138  D(41,42,43,44)        179.0341                                         !
 ! D139  D(41,42,43,53)         58.4937                                         !
 ! D140  D(41,42,43,54)        -59.5957                                         !
 ! D141  D(51,42,43,44)         57.5814                                         !
 ! D142  D(51,42,43,53)        -62.959                                          !
 ! D143  D(51,42,43,54)        178.9516                                         !
 ! D144  D(52,42,43,44)        -59.8734                                         !
 ! D145  D(52,42,43,53)        179.5861                                         !
 ! D146  D(52,42,43,54)         61.4968                                         !
 ! D147  D(42,43,44,45)       -179.0453                                         !
 ! D148  D(42,43,44,55)        -60.8186                                         !
 ! D149  D(42,43,44,56)         62.714                                          !
 ! D150  D(53,43,44,45)        -58.6008                                         !
 ! D151  D(53,43,44,55)         59.6258                                         !
 ! D152  D(53,43,44,56)       -176.8416                                         !
 ! D153  D(54,43,44,45)         59.4048                                         !
 ! D154  D(54,43,44,55)        177.6314                                         !
 ! D155  D(54,43,44,56)        -58.836                                          !
 ! D156  D(43,44,45,57)        -59.1698                                         !
 ! D157  D(43,44,45,58)       -179.968                                          !
 ! D158  D(43,44,45,59)         59.3033                                         !
 ! D159  D(55,44,45,57)        178.8263                                         !
 ! D160  D(55,44,45,58)         58.028                                          !
 ! D161  D(55,44,45,59)        -62.7006                                         !
 ! D162  D(56,44,45,57)         63.0687                                         !
 ! D163  D(56,44,45,58)        -57.7295                                         !
 ! D164  D(56,44,45,59)       -178.4582                                         !
 --------------------------------------------------------------------------------
 Symmetry turned off by external request.
 Stoichiometry    C20H31N4O4(1+)
 Framework group  C1[X(C20H31N4O4)]
 Deg. of freedom   171
 Full point group                 C1      NOp   1
                          Input orientation:                          
 ---------------------------------------------------------------------
 Center     Atomic      Atomic             Coordinates (Angstroms)
 Number     Number       Type             X           Y           Z
 ---------------------------------------------------------------------
      1          7           0       -5.704154   19.458287   12.792882
      2          6           0       -5.613596   18.128335   13.490465
      3          6           0       -5.655509   17.126404   12.301293
      4          8           0       -5.199397   17.521777   11.225162
      5          6           0       -6.720186   18.051038   14.565362
      6          6           0       -6.789043   19.310819   15.406850
      7          6           0       -7.668330   20.347451   15.056477
      8          6           0       -5.944745   19.477511   16.512898
      9          6           0       -7.700279   21.525560   15.805604
     10          6           0       -5.979156   20.654857   17.261514
     11          6           0       -6.857981   21.681602   16.908600
     12          1           0       -5.498509   20.235685   13.422059
     13          1           0       -4.625393   18.072628   13.962393
     14          1           0       -7.676430   17.881658   14.065037
     15          1           0       -6.511904   17.195576   15.210832
     16          1           0       -8.311848   20.227426   14.187542
     17          1           0       -5.265327   18.676293   16.797727
     18          1           0       -8.387174   22.320126   15.527774
     19          1           0       -5.325243   20.767916   18.121621
     20          1           0       -6.887400   22.597092   17.492498
     21          1           0       -6.742033   19.520847   12.397575
     22          1           0       -5.074967   19.433471   11.981877
     23          7           0       -6.249087   15.915247   12.414743
     24          6           0       -6.481005   15.140706   11.169275
     25          6           0       -7.314250   15.911896   10.128151
     26          8           0       -7.171881   15.687940    8.934349
     27          6           0       -7.161247   13.857984   11.680274
     28          6           0       -6.566880   13.678448   13.083692
     29          6           0       -6.527488   15.114332   13.625030
     30          1           0       -5.526332   14.925536   10.681251
     31          1           0       -8.245168   14.012270   11.743697
     32          1           0       -6.977788   13.013883   11.012439
     33          1           0       -7.154335   13.015299   13.724506
     34          1           0       -5.549593   13.276377   13.016743
     35          1           0       -5.748914   15.260777   14.378261
     36          1           0       -7.493676   15.392552   14.061375
     37          7           0       -8.214304   16.804130   10.637628
     38          6           0       -8.596023   17.975666    9.857243
     39          6           0       -8.444146   19.256938   10.734455
     40          8           0       -8.065282   19.045743   11.956236
     41          6           0      -10.002405   17.829358    9.245470
     42          6           0      -10.267105   18.867579    8.149616
     43          6           0      -11.689977   18.768203    7.579669
     44          6           0      -11.895471   19.836550    6.518074
     45          7           0      -13.321518   19.771465    5.949780
     46          8           0       -8.672152   20.349772   10.213839
     47          1           0       -8.112054   17.051675   11.616525
     48          1           0       -7.879376   18.069723    9.031492
     49          1           0      -10.758735   17.910778   10.038605
     50          1           0      -10.075592   16.817560    8.828293
     51          1           0      -10.087975   19.864283    8.564514
     52          1           0       -9.540501   18.722959    7.337852
     53          1           0      -12.421035   18.904894    8.389562
     54          1           0      -11.858842   17.771169    7.147307
     55          1           0      -11.777182   20.846399    6.918242
     56          1           0      -11.227311   19.710882    5.662564
     57          1           0      -13.503545   18.849872    5.534060
     58          1           0      -13.491203   20.482454    5.228044
     59          1           0      -14.014006   19.908303    6.696110
 ---------------------------------------------------------------------
 Rotational constants (GHZ):           0.2097759           0.1002341           0.0738543
 Standard basis: 6-31G(d) (6D, 7F)
   482 basis functions,   908 primitive gaussians,   482 cartesian basis functions
   105 alpha electrons      105 beta electrons
       nuclear repulsion energy      2782.2180980401 Hartrees.
 NAtoms=   59 NActive=   59 NUniq=   59 SFac= 1.00D+00 NAtFMM=   60 NAOKFM=F Big=F
 Integral buffers will be    131072 words long.
 Raffenetti 2 integral format.
 Two-electron integral symmetry is turned off.
 Nuclear repulsion after empirical dispersion term =     2782.1448866801 Hartrees.
 One-electron integrals computed using PRISM.
 NBasis=   482 RedAO= T EigKep=  4.66D-04  NBF=   482
 NBsUse=   482 1.00D-06 EigRej= -1.00D+00 NBFU=   482
 Initial guess from the checkpoint file:  "conf-14.chk"
 B after Tr=     0.000000    0.000000    0.000000
         Rot=    1.000000    0.000000    0.000000    0.000000 Ang=   0.00 deg.
 Requested convergence on RMS density matrix=1.00D-08 within 128 cycles.
 Requested convergence on MAX density matrix=1.00D-06.
 Requested convergence on             energy=1.00D-06.
 No special actions if energy rises.
 SCF Done:  E(RB3LYP) =  -1300.57873316     A.U. after    1 cycles
            NFock=  1  Conv=0.77D-08     -V/T= 2.0095

 **********************************************************************

            Population analysis using the SCF Density.

 **********************************************************************

 Alpha  occ. eigenvalues --  -19.20750 -19.16939 -19.16742 -19.15123 -14.64214
 Alpha  occ. eigenvalues --  -14.49884 -14.45427 -14.40208 -10.40745 -10.38186
 Alpha  occ. eigenvalues --  -10.34636 -10.34147 -10.33745 -10.32835 -10.31288
 Alpha  occ. eigenvalues --  -10.30083 -10.28232 -10.28012 -10.27804 -10.27331
 Alpha  occ. eigenvalues --  -10.27152 -10.26768 -10.26325 -10.26129 -10.26039
 Alpha  occ. eigenvalues --  -10.25922 -10.25830 -10.25737  -1.18034  -1.13347
 Alpha  occ. eigenvalues --   -1.09295  -1.08605  -1.05444  -1.02903  -1.00511
 Alpha  occ. eigenvalues --   -0.97120  -0.94035  -0.92874  -0.88518  -0.86597
 Alpha  occ. eigenvalues --   -0.86373  -0.83341  -0.81431  -0.81109  -0.80198
 Alpha  occ. eigenvalues --   -0.76817  -0.76672  -0.74992  -0.72939  -0.71922
 Alpha  occ. eigenvalues --   -0.68508  -0.68109  -0.67704  -0.66218  -0.65646
 Alpha  occ. eigenvalues --   -0.65330  -0.64962  -0.63811  -0.62787  -0.61540
 Alpha  occ. eigenvalues --   -0.60386  -0.58304  -0.57349  -0.57037  -0.56344
 Alpha  occ. eigenvalues --   -0.55233  -0.54663  -0.53964  -0.53350  -0.52700
 Alpha  occ. eigenvalues --   -0.52306  -0.51473  -0.50751  -0.50314  -0.49822
 Alpha  occ. eigenvalues --   -0.49444  -0.49233  -0.48860  -0.48299  -0.47877
 Alpha  occ. eigenvalues --   -0.47445  -0.46574  -0.46241  -0.45728  -0.45255
 Alpha  occ. eigenvalues --   -0.44688  -0.43786  -0.43548  -0.43176  -0.42648
 Alpha  occ. eigenvalues --   -0.42472  -0.41896  -0.41694  -0.41243  -0.40856
 Alpha  occ. eigenvalues --   -0.39568  -0.35038  -0.33741  -0.32527  -0.32179
 Alpha  occ. eigenvalues --   -0.31987  -0.31679  -0.31189  -0.30168  -0.28332
 Alpha virt. eigenvalues --   -0.14734  -0.08488  -0.08030  -0.07959  -0.07415
 Alpha virt. eigenvalues --   -0.07328  -0.05222  -0.03550  -0.01923  -0.01609
 Alpha virt. eigenvalues --   -0.01231  -0.00229   0.00082   0.01277   0.01898
 Alpha virt. eigenvalues --    0.02664   0.03750   0.04098   0.04476   0.05006
 Alpha virt. eigenvalues --    0.05245   0.05837   0.06262   0.06684   0.07031
 Alpha virt. eigenvalues --    0.07584   0.08163   0.08297   0.08557   0.09023
 Alpha virt. eigenvalues --    0.09341   0.09684   0.10358   0.10820   0.11122
 Alpha virt. eigenvalues --    0.11415   0.12081   0.12305   0.12564   0.12999
 Alpha virt. eigenvalues --    0.13688   0.13920   0.14856   0.15600   0.16214
 Alpha virt. eigenvalues --    0.16978   0.17952   0.18345   0.19475   0.19816
 Alpha virt. eigenvalues --    0.20638   0.20933   0.21896   0.23818   0.24329
 Alpha virt. eigenvalues --    0.26037   0.26398   0.27234   0.28152   0.29506
 Alpha virt. eigenvalues --    0.31533   0.33544   0.34424   0.35804   0.36818
 Alpha virt. eigenvalues --    0.37573   0.38514   0.39702   0.39798   0.41093
 Alpha virt. eigenvalues --    0.42571   0.43806   0.44562   0.44801   0.45197
 Alpha virt. eigenvalues --    0.45509   0.46476   0.46973   0.47274   0.47769
 Alpha virt. eigenvalues --    0.48951   0.49063   0.49677   0.50068   0.50811
 Alpha virt. eigenvalues --    0.51440   0.52109   0.52666   0.52749   0.53307
 Alpha virt. eigenvalues --    0.54050   0.54252   0.54437   0.54833   0.55109
 Alpha virt. eigenvalues --    0.55678   0.56042   0.56478   0.56922   0.57556
 Alpha virt. eigenvalues --    0.57836   0.58483   0.58915   0.59230   0.60375
 Alpha virt. eigenvalues --    0.60979   0.61727   0.62786   0.63240   0.64058
 Alpha virt. eigenvalues --    0.64205   0.64695   0.65733   0.66016   0.66892
 Alpha virt. eigenvalues --    0.67297   0.68429   0.68520   0.70279   0.71906
 Alpha virt. eigenvalues --    0.72391   0.72777   0.73246   0.73525   0.74138
 Alpha virt. eigenvalues --    0.74587   0.75863   0.76203   0.76588   0.76923
 Alpha virt. eigenvalues --    0.77317   0.77604   0.78031   0.78181   0.78708
 Alpha virt. eigenvalues --    0.79111   0.79408   0.79901   0.79970   0.80367
 Alpha virt. eigenvalues --    0.80658   0.81154   0.81674   0.82453   0.82593
 Alpha virt. eigenvalues --    0.83476   0.83716   0.84781   0.85265   0.85541
 Alpha virt. eigenvalues --    0.86244   0.86400   0.86962   0.87867   0.88184
 Alpha virt. eigenvalues --    0.88676   0.89120   0.90428   0.91796   0.92531
 Alpha virt. eigenvalues --    0.93744   0.93905   0.96640   0.97848   0.98047
 Alpha virt. eigenvalues --    0.98616   0.99596   1.01858   1.02151   1.03762
 Alpha virt. eigenvalues --    1.04493   1.05072   1.06174   1.08327   1.08761
 Alpha virt. eigenvalues --    1.09268   1.09939   1.11029   1.11763   1.13843
 Alpha virt. eigenvalues --    1.14274   1.15607   1.16173   1.18082   1.19428
 Alpha virt. eigenvalues --    1.20451   1.21931   1.23430   1.23590   1.25427
 Alpha virt. eigenvalues --    1.26448   1.28262   1.29996   1.30931   1.31641
 Alpha virt. eigenvalues --    1.32207   1.32599   1.35396   1.36255   1.36723
 Alpha virt. eigenvalues --    1.37216   1.38718   1.40017   1.41016   1.41561
 Alpha virt. eigenvalues --    1.42211   1.42537   1.43419   1.44514   1.44745
 Alpha virt. eigenvalues --    1.45983   1.47341   1.49019   1.51379   1.51698
 Alpha virt. eigenvalues --    1.53164   1.53468   1.55727   1.57694   1.60017
 Alpha virt. eigenvalues --    1.60416   1.61787   1.63994   1.67301   1.67763
 Alpha virt. eigenvalues --    1.68779   1.69284   1.69785   1.70476   1.70769
 Alpha virt. eigenvalues --    1.71453   1.72309   1.73243   1.73562   1.74398
 Alpha virt. eigenvalues --    1.75535   1.76556   1.77069   1.77307   1.78047
 Alpha virt. eigenvalues --    1.78457   1.79064   1.80197   1.80925   1.81820
 Alpha virt. eigenvalues --    1.82243   1.82887   1.83307   1.84037   1.84707
 Alpha virt. eigenvalues --    1.84978   1.86243   1.86585   1.87511   1.88575
 Alpha virt. eigenvalues --    1.89590   1.89963   1.90372   1.90914   1.92180
 Alpha virt. eigenvalues --    1.92786   1.92993   1.93308   1.95659   1.95991
 Alpha virt. eigenvalues --    1.96074   1.97293   1.98576   1.98765   1.99307
 Alpha virt. eigenvalues --    2.00991   2.02279   2.03268   2.03677   2.05262
 Alpha virt. eigenvalues --    2.06517   2.06929   2.07360   2.07672   2.08470
 Alpha virt. eigenvalues --    2.09781   2.10325   2.11628   2.12326   2.13330
 Alpha virt. eigenvalues --    2.14773   2.15972   2.16311   2.17781   2.18368
 Alpha virt. eigenvalues --    2.19205   2.20315   2.22722   2.23821   2.24155
 Alpha virt. eigenvalues --    2.26044   2.28351   2.28937   2.29421   2.30781
 Alpha virt. eigenvalues --    2.31823   2.32074   2.33396   2.34790   2.36150
 Alpha virt. eigenvalues --    2.38884   2.39719   2.40207   2.42189   2.43094
 Alpha virt. eigenvalues --    2.44126   2.46592   2.47142   2.49498   2.49779
 Alpha virt. eigenvalues --    2.50339   2.51467   2.53584   2.54954   2.55146
 Alpha virt. eigenvalues --    2.57813   2.58513   2.59268   2.60234   2.62469
 Alpha virt. eigenvalues --    2.63756   2.64839   2.65326   2.67381   2.67985
 Alpha virt. eigenvalues --    2.68379   2.68916   2.70178   2.71857   2.76068
 Alpha virt. eigenvalues --    2.78059   2.80819   2.84383   2.88481   2.90382
 Alpha virt. eigenvalues --    2.91774   2.94338   2.96904   2.97731   2.98382
 Alpha virt. eigenvalues --    3.06202   3.12851   3.13936   3.33817   3.54920
 Alpha virt. eigenvalues --    3.81255   3.89288   3.95997   4.02232   4.02656
 Alpha virt. eigenvalues --    4.04229   4.05241   4.07533   4.11073   4.12752
 Alpha virt. eigenvalues --    4.14734   4.17139   4.19908   4.22957   4.24366
 Alpha virt. eigenvalues --    4.27772   4.30664   4.31992   4.34894   4.37770
 Alpha virt. eigenvalues --    4.43555   4.47416   4.50224   4.55600   4.63014
 Alpha virt. eigenvalues --    4.63346   4.71174
          Condensed to atoms (all electrons):
 Mulliken charges:
               1
     1  N   -0.769069
     2  C   -0.091764
     3  C    0.617721
     4  O   -0.524226
     5  C   -0.372975
     6  C    0.110464
     7  C   -0.211497
     8  C   -0.183053
     9  C   -0.131050
    10  C   -0.128735
    11  C   -0.126333
    12  H    0.386432
    13  H    0.196347
    14  H    0.201420
    15  H    0.168460
    16  H    0.179325
    17  H    0.129649
    18  H    0.148732
    19  H    0.149009
    20  H    0.149111
    21  H    0.458984
    22  H    0.400651
    23  N   -0.487656
    24  C   -0.012834
    25  C    0.600228
    26  O   -0.522498
    27  C   -0.309979
    28  C   -0.300250
    29  C   -0.133238
    30  H    0.192959
    31  H    0.162057
    32  H    0.182883
    33  H    0.168700
    34  H    0.167907
    35  H    0.167096
    36  H    0.169098
    37  N   -0.610193
    38  C   -0.059711
    39  C    0.588959
    40  O   -0.663350
    41  C   -0.256523
    42  C   -0.286775
    43  C   -0.291146
    44  C   -0.207291
    45  N   -0.732169
    46  O   -0.526275
    47  H    0.346440
    48  H    0.177873
    49  H    0.136207
    50  H    0.157183
    51  H    0.205162
    52  H    0.152460
    53  H    0.162652
    54  H    0.161844
    55  H    0.234047
    56  H    0.228706
    57  H    0.425497
    58  H    0.428732
    59  H    0.425597
 Sum of Mulliken charges =   1.00000
 Mulliken charges with hydrogens summed into heavy atoms:
               1
     1  N    0.476999
     2  C    0.104583
     3  C    0.617721
     4  O   -0.524226
     5  C   -0.003095
     6  C    0.110464
     7  C   -0.032171
     8  C   -0.053404
     9  C    0.017681
    10  C    0.020274
    11  C    0.022778
    23  N   -0.487656
    24  C    0.180125
    25  C    0.600228
    26  O   -0.522498
    27  C    0.034961
    28  C    0.036357
    29  C    0.202956
    37  N   -0.263753
    38  C    0.118162
    39  C    0.588959
    40  O   -0.663350
    41  C    0.036868
    42  C    0.070847
    43  C    0.033351
    44  C    0.255461
    45  N    0.547657
    46  O   -0.526275
 Electronic spatial extent (au):  <R**2>=         409651.2690
 Charge=              1.0000 electrons
 Dipole moment (field-independent basis, Debye):
    X=            -54.3508    Y=             91.5833    Z=             42.9927  Tot=            114.8472
 Quadrupole moment (field-independent basis, Debye-Ang):
   XX=            529.0537   YY=           1607.6605   ZZ=            330.5528
   XY=          -1052.1265   XZ=           -385.3525   YZ=            792.2906
 Traceless Quadrupole moment (field-independent basis, Debye-Ang):
   XX=           -293.3686   YY=            785.2382   ZZ=           -491.8695
   XY=          -1052.1265   XZ=           -385.3525   YZ=            792.2906
 Octapole moment (field-independent basis, Debye-Ang**2):
  XXX=          -5431.6430  YYY=          25752.3858  ZZZ=            844.4255  XYY=         -19274.1867
  XXY=          10582.0248  XXZ=           2377.1812  XZZ=          -2152.6965  YZZ=           5972.0594
  YYZ=          13014.0103  XYZ=          -7247.1228
 Hexadecapole moment (field-independent basis, Debye-Ang**3):
 XXXX=          61456.5837 YYYY=         356686.3404 ZZZZ=         -50696.2100 XXXY=        -112163.3919
 XXXZ=         -11981.1893 YYYX=        -334327.7957 YYYZ=         182085.1643 ZZZX=           4294.2108
 ZZZY=          14719.4817 XXYY=         201129.0831 XXZZ=          -4728.2506 YYZZ=          87500.5982
 XXYZ=          47606.6480 YYXZ=        -124510.9955 ZZXY=         -39252.2669
 N-N= 2.782144886680D+03 E-N=-8.572708330387D+03  KE= 1.288358125260D+03
 Unable to Open any file for archive entry.
 1\1\GINC-SKL-140\SP\RB3LYP\6-31G(d)\C20H31N4O4(1+)\KENGMITH\25-May-202
 2\0\\# B3LYP/6-31G* empiricaldispersion=gd3 guess=read geom=check nosy
 mm integral(ultrafinegrid)\\Candidate Structure: Conf:14 Charge calc i
 n gas phase\\1,1\N,0,-5.704153759,19.4582874789,12.7928822755\C,0,-5.6
 135961212,18.1283351939,13.4904645947\C,0,-5.6555093983,17.126404002,1
 2.3012930683\O,0,-5.1993965984,17.5217771219,11.2251623241\C,0,-6.7201
 864419,18.0510379326,14.5653620776\C,0,-6.7890429476,19.310819011,15.4
 068495658\C,0,-7.668329606,20.3474505383,15.056477499\C,0,-5.944745032
 1,19.47751099,16.5128976594\C,0,-7.7002788568,21.5255599392,15.8056041
 222\C,0,-5.9791563664,20.6548567538,17.2615141771\C,0,-6.8579806779,21
 .6816023855,16.9086002627\H,0,-5.4985087006,20.2356852417,13.422058834
 1\H,0,-4.6253926204,18.072628256,13.9623929678\H,0,-7.6764298961,17.88
 16582919,14.065036685\H,0,-6.5119038407,17.1955756302,15.2108317129\H,
 0,-8.3118478396,20.227425932,14.1875418779\H,0,-5.2653271096,18.676292
 8263,16.7977273453\H,0,-8.3871740789,22.3201263582,15.5277736049\H,0,-
 5.3252425462,20.767916143,18.1216208027\H,0,-6.8874002283,22.597092403
 2,17.4924979847\H,0,-6.7420334261,19.5208471071,12.3975747422\H,0,-5.0
 749669402,19.4334709717,11.9818769516\N,0,-6.2490874313,15.9152467169,
 12.4147425486\C,0,-6.4810046534,15.1407064046,11.169274824\C,0,-7.3142
 496896,15.9118964321,10.1281511953\O,0,-7.1718805375,15.6879402056,8.9
 343492787\C,0,-7.1612471963,13.8579837881,11.6802735716\C,0,-6.5668804
 257,13.6784484968,13.0836921054\C,0,-6.5274880631,15.1143317003,13.625
 0298384\H,0,-5.5263324264,14.9255364018,10.6812507139\H,0,-8.245167901
 4,14.0122702509,11.7436972193\H,0,-6.9777882271,13.0138830306,11.01243
 88169\H,0,-7.1543350768,13.01529934,13.7245062818\H,0,-5.5495929941,13
 .2763770195,13.0167427243\H,0,-5.7489135216,15.2607767434,14.378261092
 6\H,0,-7.4936759228,15.3925518862,14.0613749259\N,0,-8.2143035309,16.8
 041302085,10.6376275721\C,0,-8.5960230072,17.9756655109,9.8572431601\C
 ,0,-8.4441455349,19.2569379241,10.7344552383\O,0,-8.0652823465,19.0457
 433875,11.9562363276\C,0,-10.0024046572,17.829358118,9.2454700506\C,0,
 -10.2671054629,18.8675788605,8.1496162511\C,0,-11.6899773602,18.768202
 7576,7.5796690212\C,0,-11.8954714383,19.836550456,6.5180736265\N,0,-13
 .3215184546,19.771465072,5.9497800632\O,0,-8.6721518961,20.3497724161,
 10.2138389539\H,0,-8.1120541944,17.0516753377,11.616525496\H,0,-7.8793
 760754,18.0697227751,9.0314918452\H,0,-10.7587349866,17.9107784713,10.
 0386046283\H,0,-10.0755923055,16.817559629,8.828293486\H,0,-10.0879747
 139,19.8642828633,8.5645138929\H,0,-9.540500966,18.7229591454,7.337851
 801\H,0,-12.4210347261,18.9048941516,8.3895617935\H,0,-11.8588415678,1
 7.7711693177,7.1473065793\H,0,-11.7771823004,20.8463987606,6.918242237
 7\H,0,-11.2273107986,19.7108818651,5.6625639118\H,0,-13.5035445167,18.
 8498724138,5.5340596766\H,0,-13.491203448,20.4824539793,5.2280440063\H
 ,0,-14.0140055723,19.9083031839,6.6961098788\\Version=ES64L-G16RevC.01
 \HF=-1300.5787332\RMSD=7.690e-09\Dipole=-6.5852648,1.8153218,-5.282575
 7\Quadrupole=-218.1123844,583.8053386,-365.6929542,-782.2302487,-286.5
 00156,589.0486641\PG=C01 [X(C20H31N4O4)]\\@
 The archive entry for this job was punched.


 In the beginning there was nothing, which exploded.
 Job cpu time:       0 days  0 hours  1 minutes  2.2 seconds.
 Elapsed time:       0 days  0 hours  0 minutes 16.0 seconds.
 File lengths (MBytes):  RWF=    240 Int=      0 D2E=      0 Chk=     32 Scr=     16
 Normal termination of Gaussian 16 at Wed May 25 08:31:56 2022.
