 Entering Gaussian System, Link 0=/opt/software/Gaussian/g16-AVX-C.01/g16/g16
 Input=charge-conf-815.com
 Output=charge-conf-815.log
 Initial command:
 /opt/software/Gaussian/g16-AVX-C.01/g16/l1.exe "/mnt/gs18/scratch/users/kengmith/Gau-23906.inp" -scrdir="/mnt/gs18/scratch/users/kengmith/"
 Entering Link 1 = /opt/software/Gaussian/g16-AVX-C.01/g16/l1.exe PID=     23937.
  
 Copyright (c) 1988-2019, Gaussian, Inc.  All Rights Reserved.
  
 This is part of the Gaussian(R) 16 program.  It is based on
 the Gaussian(R) 09 system (copyright 2009, Gaussian, Inc.),
 the Gaussian(R) 03 system (copyright 2003, Gaussian, Inc.),
 the Gaussian(R) 98 system (copyright 1998, Gaussian, Inc.),
 the Gaussian(R) 94 system (copyright 1995, Gaussian, Inc.),
 the Gaussian 92(TM) system (copyright 1992, Gaussian, Inc.),
 the Gaussian 90(TM) system (copyright 1990, Gaussian, Inc.),
 the Gaussian 88(TM) system (copyright 1988, Gaussian, Inc.),
 the Gaussian 86(TM) system (copyright 1986, Carnegie Mellon
 University), and the Gaussian 82(TM) system (copyright 1983,
 Carnegie Mellon University). Gaussian is a federally registered
 trademark of Gaussian, Inc.
  
 This software contains proprietary and confidential information,
 including trade secrets, belonging to Gaussian, Inc.
  
 This software is provided under written license and may be
 used, copied, transmitted, or stored only in accord with that
 written license.
  
 The following legend is applicable only to US Government
 contracts under FAR:
  
                    RESTRICTED RIGHTS LEGEND
  
 Use, reproduction and disclosure by the US Government is
 subject to restrictions as set forth in subparagraphs (a)
 and (c) of the Commercial Computer Software - Restricted
 Rights clause in FAR 52.227-19.
  
 Gaussian, Inc.
 340 Quinnipiac St., Bldg. 40, Wallingford CT 06492
  
  
 ---------------------------------------------------------------
 Warning -- This program may not be used in any manner that
 competes with the business of Gaussian, Inc. or will provide
 assistance to any competitor of Gaussian, Inc.  The licensee
 of this program is prohibited from giving any competitor of
 Gaussian, Inc. access to this program.  By using this program,
 the user acknowledges that Gaussian, Inc. is engaged in the
 business of creating and licensing software in the field of
 computational chemistry and represents and warrants to the
 licensee that it is not a competitor of Gaussian, Inc. and that
 it will not use this program in any manner prohibited above.
 ---------------------------------------------------------------
  

 Cite this work as:
 Gaussian 16, Revision C.01,
 M. J. Frisch, G. W. Trucks, H. B. Schlegel, G. E. Scuseria, 
 M. A. Robb, J. R. Cheeseman, G. Scalmani, V. Barone, 
 G. A. Petersson, H. Nakatsuji, X. Li, M. Caricato, A. V. Marenich, 
 J. Bloino, B. G. Janesko, R. Gomperts, B. Mennucci, H. P. Hratchian, 
 J. V. Ortiz, A. F. Izmaylov, J. L. Sonnenberg, D. Williams-Young, 
 F. Ding, F. Lipparini, F. Egidi, J. Goings, B. Peng, A. Petrone, 
 T. Henderson, D. Ranasinghe, V. G. Zakrzewski, J. Gao, N. Rega, 
 G. Zheng, W. Liang, M. Hada, M. Ehara, K. Toyota, R. Fukuda, 
 J. Hasegawa, M. Ishida, T. Nakajima, Y. Honda, O. Kitao, H. Nakai, 
 T. Vreven, K. Throssell, J. A. Montgomery, Jr., J. E. Peralta, 
 F. Ogliaro, M. J. Bearpark, J. J. Heyd, E. N. Brothers, K. N. Kudin, 
 V. N. Staroverov, T. A. Keith, R. Kobayashi, J. Normand, 
 K. Raghavachari, A. P. Rendell, J. C. Burant, S. S. Iyengar, 
 J. Tomasi, M. Cossi, J. M. Millam, M. Klene, C. Adamo, R. Cammi, 
 J. W. Ochterski, R. L. Martin, K. Morokuma, O. Farkas, 
 J. B. Foresman, and D. J. Fox, Gaussian, Inc., Wallingford CT, 2019.
 
 ******************************************
 Gaussian 16:  ES64L-G16RevC.01  3-Jul-2019
                25-May-2022 
 ******************************************
 %mem=8gb
 %nproc=4
 Will use up to    4 processors via shared memory.
 %chk=conf-815.chk
 ----------------------------------------------------------------------
 # B3LYP/6-31G* empiricaldispersion=gd3 guess=read geom=check nosymm in
 tegral(ultrafinegrid)
 ----------------------------------------------------------------------
 1/29=2,38=1,172=1/1;
 2/12=2,15=1,40=1/2;
 3/5=1,6=6,7=1,11=2,14=-4,25=1,30=1,74=-5,75=-5,116=-2,124=31/1,2,3;
 4/5=1/1;
 5/5=2,38=6/2;
 6/7=2,8=2,9=2,10=2,28=1/1;
 99/5=1,9=1/99;
 ------------------------------------------------------
 Candidate Structure: Conf:815 Charge calc in gas phase
 ------------------------------------------------------
 Structure from the checkpoint file:  "conf-815.chk"
 Charge =  1 Multiplicity = 1
 Redundant internal coordinates found in file.  (old form).
 N,0,-5.4516371134,18.4919683843,11.4829812887
 C,0,-5.8327454256,18.6472582245,12.9342713935
 C,0,-6.6743588769,17.3715495673,13.204886596
 O,0,-6.4924277711,16.406558572,12.4558027283
 C,0,-6.5137397249,20.0207790226,13.128421066
 C,0,-5.7611981591,21.1314199876,12.4221973534
 C,0,-6.1647234713,21.5592216695,11.1483884
 C,0,-4.6219093993,21.7035472716,13.0051952107
 C,0,-5.4432029283,22.5477581494,10.4755267953
 C,0,-3.9015732006,22.6911734906,12.3319789241
 C,0,-4.311621121,23.1147980424,11.0653488156
 H,0,-6.35650231,18.6160183452,10.9125003147
 H,0,-4.9040969302,18.6000669418,13.5146295329
 H,0,-7.5366457994,19.956882151,12.749589945
 H,0,-6.5573004212,20.2309026009,14.1987537572
 H,0,-7.0433400241,21.1124301629,10.6886295841
 H,0,-4.3058734682,21.3865843986,13.9973173343
 H,0,-5.7692357829,22.8779014743,9.4933969418
 H,0,-3.0265933022,23.1344647746,12.7984319277
 H,0,-3.7539359063,23.8867599971,10.5433997348
 H,0,-5.1456852258,17.5237972532,11.3283870131
 H,0,-4.7482465748,19.1778242261,11.2003038008
 N,0,-7.623295414,17.3508644224,14.1667740357
 C,0,-8.5236117197,16.1705385121,14.2161494219
 C,0,-9.2326202542,15.9395210055,12.8720068797
 O,0,-9.4286454046,14.8113553766,12.4459908948
 C,0,-9.4625770525,16.5012132265,15.390263031
 C,0,-8.5738901572,17.3362710412,16.3235888394
 C,0,-7.7892422839,18.225673184,15.3488580477
 H,0,-7.9406753646,15.2645532492,14.40241093
 H,0,-10.3111560378,17.0978412431,15.0351411079
 H,0,-9.85737091,15.5956416155,15.8551693259
 H,0,-9.1407701096,17.925298441,17.0490129989
 H,0,-7.8851095384,16.6862142596,16.8743623653
 H,0,-6.818055491,18.5367485956,15.7430776059
 H,0,-8.3652124419,19.1208453428,15.0880094402
 N,0,-9.644577442,17.0808851483,12.2196975865
 C,0,-9.7467046057,17.0352819843,10.7667497787
 C,0,-8.4541886163,17.613847759,10.1511735903
 O,0,-7.9500933418,18.6150322705,10.7274226048
 C,0,-10.9846176998,17.7506017147,10.2082662651
 C,0,-11.1923114604,17.4971020891,8.7039696813
 C,0,-11.4983724977,16.0179364237,8.3359587545
 C,0,-10.4297992142,15.2875654681,7.5169009834
 N,0,-9.1833023857,14.9831012566,8.3036963095
 O,0,-7.9807214561,17.0728708202,9.1054370281
 H,0,-9.2547740445,17.9518067067,12.5610560942
 H,0,-9.8184267337,15.973535669,10.5362322451
 H,0,-10.8913047045,18.8280975939,10.3908516111
 H,0,-11.8586413158,17.4019387398,10.771381694
 H,0,-12.0262944996,18.1221189867,8.3696296901
 H,0,-10.3141308823,17.8478942245,8.1479130045
 H,0,-12.407545721,15.9766283203,7.7261774639
 H,0,-11.728733425,15.4309417133,9.236156685
 H,0,-10.8213286515,14.3400577329,7.1346356876
 H,0,-10.1109891904,15.8946166409,6.664611959
 H,0,-9.3927270382,14.3938092513,9.1155944719
 H,0,-8.645684904,15.9420225663,8.6829613258
 H,0,-8.5109110639,14.4680631474,7.7293238635
 Recover connectivity data from disk.
                           ----------------------------
                           !    Current Parameters    !
                           ! (Angstroms and Degrees)  !
 --------------------------                            --------------------------
 ! Name  Definition              Value                                          !
 --------------------------------------------------------------------------------
 ! R1    R(1,2)                  1.5085                                         !
 ! R2    R(1,12)                 1.0769                                         !
 ! R3    R(1,21)                 1.0271                                         !
 ! R4    R(1,22)                 1.0223                                         !
 ! R5    R(2,3)                  1.5521                                         !
 ! R6    R(2,5)                  1.5453                                         !
 ! R7    R(2,13)                 1.0961                                         !
 ! R8    R(3,4)                  1.2351                                         !
 ! R9    R(3,23)                 1.3513                                         !
 ! R10   R(5,6)                  1.5161                                         !
 ! R11   R(5,14)                 1.0927                                         !
 ! R12   R(5,15)                 1.0916                                         !
 ! R13   R(6,7)                  1.403                                          !
 ! R14   R(6,8)                  1.4019                                         !
 ! R15   R(7,9)                  1.3966                                         !
 ! R16   R(7,16)                 1.0876                                         !
 ! R17   R(8,10)                 1.3955                                         !
 ! R18   R(8,17)                 1.0884                                         !
 ! R19   R(9,11)                 1.3964                                         !
 ! R20   R(9,18)                 1.0862                                         !
 ! R21   R(10,11)                1.3971                                         !
 ! R22   R(10,19)                1.0861                                         !
 ! R23   R(11,20)                1.086                                          !
 ! R24   R(23,24)                1.4853                                         !
 ! R25   R(23,29)                1.4799                                         !
 ! R26   R(24,25)                1.5371                                         !
 ! R27   R(24,27)                1.5393                                         !
 ! R28   R(24,30)                1.0933                                         !
 ! R29   R(25,26)                1.2218                                         !
 ! R30   R(25,37)                1.3777                                         !
 ! R31   R(27,28)                1.5356                                         !
 ! R32   R(27,31)                1.0964                                         !
 ! R33   R(27,32)                1.0918                                         !
 ! R34   R(28,29)                1.5352                                         !
 ! R35   R(28,33)                1.093                                          !
 ! R36   R(28,34)                1.0956                                         !
 ! R37   R(29,35)                1.0933                                         !
 ! R38   R(29,36)                1.096                                          !
 ! R39   R(37,38)                1.4572                                         !
 ! R40   R(37,47)                1.0134                                         !
 ! R41   R(38,39)                1.5441                                         !
 ! R42   R(38,41)                1.5349                                         !
 ! R43   R(38,48)                1.0888                                         !
 ! R44   R(39,40)                1.2604                                         !
 ! R45   R(39,46)                1.269                                          !
 ! R46   R(41,42)                1.5396                                         !
 ! R47   R(41,49)                1.0968                                         !
 ! R48   R(41,50)                1.0966                                         !
 ! R49   R(42,43)                1.5547                                         !
 ! R50   R(42,51)                1.0945                                         !
 ! R51   R(42,52)                1.097                                          !
 ! R52   R(43,44)                1.5317                                         !
 ! R53   R(43,53)                1.0955                                         !
 ! R54   R(43,54)                1.0991                                         !
 ! R55   R(44,45)                1.5052                                         !
 ! R56   R(44,55)                1.0942                                         !
 ! R57   R(44,56)                1.0939                                         !
 ! R58   R(45,57)                1.0248                                         !
 ! R59   R(45,58)                1.1629                                         !
 ! R60   R(45,59)                1.0234                                         !
 ! A1    A(2,1,12)             106.5902                                         !
 ! A2    A(2,1,21)             108.4882                                         !
 ! A3    A(2,1,22)             111.7645                                         !
 ! A4    A(12,1,21)            106.2102                                         !
 ! A5    A(12,1,22)            110.7561                                         !
 ! A6    A(21,1,22)            112.6964                                         !
 ! A7    A(1,2,3)              102.7162                                         !
 ! A8    A(1,2,5)              108.887                                          !
 ! A9    A(1,2,13)             106.9129                                         !
 ! A10   A(3,2,5)              118.0142                                         !
 ! A11   A(3,2,13)             109.3722                                         !
 ! A12   A(5,2,13)             110.1882                                         !
 ! A13   A(2,3,4)              117.1657                                         !
 ! A14   A(2,3,23)             121.1621                                         !
 ! A15   A(4,3,23)             121.5463                                         !
 ! A16   A(2,5,6)              111.9537                                         !
 ! A17   A(2,5,14)             108.4822                                         !
 ! A18   A(2,5,15)             108.1712                                         !
 ! A19   A(6,5,14)             110.2435                                         !
 ! A20   A(6,5,15)             109.6044                                         !
 ! A21   A(14,5,15)            108.2906                                         !
 ! A22   A(5,6,7)              120.2335                                         !
 ! A23   A(5,6,8)              120.5738                                         !
 ! A24   A(7,6,8)              119.1357                                         !
 ! A25   A(6,7,9)              120.308                                          !
 ! A26   A(6,7,16)             119.3976                                         !
 ! A27   A(9,7,16)             120.2942                                         !
 ! A28   A(6,8,10)             120.5109                                         !
 ! A29   A(6,8,17)             119.7496                                         !
 ! A30   A(10,8,17)            119.7321                                         !
 ! A31   A(7,9,11)             120.1705                                         !
 ! A32   A(7,9,18)             119.7144                                         !
 ! A33   A(11,9,18)            120.1143                                         !
 ! A34   A(8,10,11)            120.0293                                         !
 ! A35   A(8,10,19)            119.8342                                         !
 ! A36   A(11,10,19)           120.1349                                         !
 ! A37   A(9,11,10)            119.8446                                         !
 ! A38   A(9,11,20)            120.1184                                         !
 ! A39   A(10,11,20)           120.0363                                         !
 ! A40   A(3,23,24)            117.4819                                         !
 ! A41   A(3,23,29)            129.661                                          !
 ! A42   A(24,23,29)           112.0379                                         !
 ! A43   A(23,24,25)           111.7124                                         !
 ! A44   A(23,24,27)           102.9667                                         !
 ! A45   A(23,24,30)           109.9369                                         !
 ! A46   A(25,24,27)           114.7025                                         !
 ! A47   A(25,24,30)           105.6862                                         !
 ! A48   A(27,24,30)           111.9194                                         !
 ! A49   A(24,25,26)           121.178                                          !
 ! A50   A(24,25,37)           115.3064                                         !
 ! A51   A(26,25,37)           123.5003                                         !
 ! A52   A(24,27,28)           103.1434                                         !
 ! A53   A(24,27,31)           109.9953                                         !
 ! A54   A(24,27,32)           111.5416                                         !
 ! A55   A(28,27,31)           110.4163                                         !
 ! A56   A(28,27,32)           113.6711                                         !
 ! A57   A(31,27,32)           108.0226                                         !
 ! A58   A(27,28,29)           102.9987                                         !
 ! A59   A(27,28,33)           113.3474                                         !
 ! A60   A(27,28,34)           110.2864                                         !
 ! A61   A(29,28,33)           111.9802                                         !
 ! A62   A(29,28,34)           109.9748                                         !
 ! A63   A(33,28,34)           108.1904                                         !
 ! A64   A(23,29,28)           102.8264                                         !
 ! A65   A(23,29,35)           110.8905                                         !
 ! A66   A(23,29,36)           110.5879                                         !
 ! A67   A(28,29,35)           112.9488                                         !
 ! A68   A(28,29,36)           110.8373                                         !
 ! A69   A(35,29,36)           108.6782                                         !
 ! A70   A(25,37,38)           117.8479                                         !
 ! A71   A(25,37,47)           115.9438                                         !
 ! A72   A(38,37,47)           112.936                                          !
 ! A73   A(37,38,39)           109.0926                                         !
 ! A74   A(37,38,41)           113.8731                                         !
 ! A75   A(37,38,48)           104.2536                                         !
 ! A76   A(39,38,41)           110.819                                          !
 ! A77   A(39,38,48)           109.6397                                         !
 ! A78   A(41,38,48)           108.9216                                         !
 ! A79   A(38,39,40)           116.7538                                         !
 ! A80   A(38,39,46)           118.757                                          !
 ! A81   A(40,39,46)           124.4836                                         !
 ! A82   A(38,41,42)           112.8037                                         !
 ! A83   A(38,41,49)           109.1857                                         !
 ! A84   A(38,41,50)           107.9255                                         !
 ! A85   A(42,41,49)           109.6261                                         !
 ! A86   A(42,41,50)           109.9903                                         !
 ! A87   A(49,41,50)           107.1373                                         !
 ! A88   A(41,42,43)           114.4879                                         !
 ! A89   A(41,42,51)           107.8927                                         !
 ! A90   A(41,42,52)           109.5494                                         !
 ! A91   A(43,42,51)           108.7232                                         !
 ! A92   A(43,42,52)           109.9893                                         !
 ! A93   A(51,42,52)           105.8147                                         !
 ! A94   A(42,43,44)           116.2897                                         !
 ! A95   A(42,43,53)           109.3303                                         !
 ! A96   A(42,43,54)           110.8252                                         !
 ! A97   A(44,43,53)           105.2689                                         !
 ! A98   A(44,43,54)           109.2399                                         !
 ! A99   A(53,43,54)           105.1777                                         !
 ! A100  A(43,44,45)           113.2458                                         !
 ! A101  A(43,44,55)           110.4936                                         !
 ! A102  A(43,44,56)           110.8144                                         !
 ! A103  A(45,44,55)           107.6859                                         !
 ! A104  A(45,44,56)           106.1516                                         !
 ! A105  A(55,44,56)           108.2194                                         !
 ! A106  A(44,45,57)           111.1739                                         !
 ! A107  A(44,45,58)           112.739                                          !
 ! A108  A(44,45,59)           110.6429                                         !
 ! A109  A(57,45,58)           108.0737                                         !
 ! A110  A(57,45,59)           106.8289                                         !
 ! A111  A(58,45,59)           107.1148                                         !
 ! D1    D(12,1,2,3)            69.2352                                         !
 ! D2    D(12,1,2,5)           -56.6458                                         !
 ! D3    D(12,1,2,13)         -175.6754                                         !
 ! D4    D(21,1,2,3)           -44.766                                          !
 ! D5    D(21,1,2,5)          -170.647                                          !
 ! D6    D(21,1,2,13)           70.3233                                         !
 ! D7    D(22,1,2,3)          -169.6259                                         !
 ! D8    D(22,1,2,5)            64.4931                                         !
 ! D9    D(22,1,2,13)          -54.5365                                         !
 ! D10   D(1,2,3,4)             22.5277                                         !
 ! D11   D(1,2,3,23)          -153.4552                                         !
 ! D12   D(5,2,3,4)            142.2595                                         !
 ! D13   D(5,2,3,23)           -33.7234                                         !
 ! D14   D(13,2,3,4)           -90.7678                                         !
 ! D15   D(13,2,3,23)           93.2493                                         !
 ! D16   D(1,2,5,6)            -45.1263                                         !
 ! D17   D(1,2,5,14)            76.7497                                         !
 ! D18   D(1,2,5,15)          -165.9933                                         !
 ! D19   D(3,2,5,6)           -161.5846                                         !
 ! D20   D(3,2,5,14)           -39.7086                                         !
 ! D21   D(3,2,5,15)            77.5484                                         !
 ! D22   D(13,2,5,6)            71.8354                                         !
 ! D23   D(13,2,5,14)         -166.2886                                         !
 ! D24   D(13,2,5,15)          -49.0316                                         !
 ! D25   D(2,3,23,24)          170.5475                                         !
 ! D26   D(2,3,23,29)          -20.7418                                         !
 ! D27   D(4,3,23,24)           -5.2585                                         !
 ! D28   D(4,3,23,29)          163.4522                                         !
 ! D29   D(2,5,6,7)             96.8411                                         !
 ! D30   D(2,5,6,8)            -80.3903                                         !
 ! D31   D(14,5,6,7)           -24.0196                                         !
 ! D32   D(14,5,6,8)           158.749                                          !
 ! D33   D(15,5,6,7)          -143.126                                          !
 ! D34   D(15,5,6,8)            39.6426                                         !
 ! D35   D(5,6,7,9)           -177.6298                                         !
 ! D36   D(5,6,7,16)             2.234                                          !
 ! D37   D(8,6,7,9)             -0.3588                                         !
 ! D38   D(8,6,7,16)           179.505                                          !
 ! D39   D(5,6,8,10)           177.6157                                         !
 ! D40   D(5,6,8,17)            -3.375                                          !
 ! D41   D(7,6,8,10)             0.3542                                         !
 ! D42   D(7,6,8,17)           179.3635                                         !
 ! D43   D(6,7,9,11)             0.1884                                         !
 ! D44   D(6,7,9,18)          -179.4673                                         !
 ! D45   D(16,7,9,11)         -179.6742                                         !
 ! D46   D(16,7,9,18)            0.6701                                         !
 ! D47   D(6,8,10,11)           -0.1782                                         !
 ! D48   D(6,8,10,19)          179.3519                                         !
 ! D49   D(17,8,10,11)        -179.1876                                         !
 ! D50   D(17,8,10,19)           0.3425                                         !
 ! D51   D(7,9,11,10)           -0.008                                          !
 ! D52   D(7,9,11,20)         -179.7092                                         !
 ! D53   D(18,9,11,10)         179.6462                                         !
 ! D54   D(18,9,11,20)          -0.055                                          !
 ! D55   D(8,10,11,9)            0.0027                                         !
 ! D56   D(8,10,11,20)         179.7041                                         !
 ! D57   D(19,10,11,9)        -179.5259                                         !
 ! D58   D(19,10,11,20)          0.1755                                         !
 ! D59   D(3,23,24,25)         -55.4908                                         !
 ! D60   D(3,23,24,27)        -179.0829                                         !
 ! D61   D(3,23,24,30)          61.5101                                         !
 ! D62   D(29,23,24,25)        133.8662                                         !
 ! D63   D(29,23,24,27)         10.274                                          !
 ! D64   D(29,23,24,30)       -109.1329                                         !
 ! D65   D(3,23,29,28)        -154.5931                                         !
 ! D66   D(3,23,29,35)         -33.6008                                         !
 ! D67   D(3,23,29,36)          87.0324                                         !
 ! D68   D(24,23,29,28)         14.608                                          !
 ! D69   D(24,23,29,35)        135.6003                                         !
 ! D70   D(24,23,29,36)       -103.7665                                         !
 ! D71   D(23,24,25,26)        142.1843                                         !
 ! D72   D(23,24,25,37)        -39.1876                                         !
 ! D73   D(27,24,25,26)       -101.1349                                         !
 ! D74   D(27,24,25,37)         77.4932                                         !
 ! D75   D(30,24,25,26)         22.6433                                         !
 ! D76   D(30,24,25,37)       -158.7287                                         !
 ! D77   D(23,24,27,28)        -30.9653                                         !
 ! D78   D(23,24,27,31)         86.8206                                         !
 ! D79   D(23,24,27,32)       -153.3378                                         !
 ! D80   D(25,24,27,28)       -152.5517                                         !
 ! D81   D(25,24,27,31)        -34.7658                                         !
 ! D82   D(25,24,27,32)         85.0757                                         !
 ! D83   D(30,24,27,28)         87.0577                                         !
 ! D84   D(30,24,27,31)       -155.1564                                         !
 ! D85   D(30,24,27,32)        -35.3149                                         !
 ! D86   D(24,25,37,38)        152.5306                                         !
 ! D87   D(24,25,37,47)         14.1845                                         !
 ! D88   D(26,25,37,38)        -28.877                                          !
 ! D89   D(26,25,37,47)       -167.2231                                         !
 ! D90   D(24,27,28,29)         40.3852                                         !
 ! D91   D(24,27,28,33)        161.5855                                         !
 ! D92   D(24,27,28,34)        -76.9441                                         !
 ! D93   D(31,27,28,29)        -77.1048                                         !
 ! D94   D(31,27,28,33)         44.0955                                         !
 ! D95   D(31,27,28,34)        165.5659                                         !
 ! D96   D(32,27,28,29)        161.3194                                         !
 ! D97   D(32,27,28,33)        -77.4803                                         !
 ! D98   D(32,27,28,34)         43.9901                                         !
 ! D99   D(27,28,29,23)        -33.5324                                         !
 ! D100  D(27,28,29,35)       -153.1062                                         !
 ! D101  D(27,28,29,36)         84.6669                                         !
 ! D102  D(33,28,29,23)       -155.6584                                         !
 ! D103  D(33,28,29,35)         84.7678                                         !
 ! D104  D(33,28,29,36)        -37.4591                                         !
 ! D105  D(34,28,29,23)         84.0169                                         !
 ! D106  D(34,28,29,35)        -35.5569                                         !
 ! D107  D(34,28,29,36)       -157.7838                                         !
 ! D108  D(25,37,38,39)        -96.6037                                         !
 ! D109  D(25,37,38,41)        139.0296                                         !
 ! D110  D(25,37,38,48)         20.4546                                         !
 ! D111  D(47,37,38,39)         42.9334                                         !
 ! D112  D(47,37,38,41)        -81.4334                                         !
 ! D113  D(47,37,38,48)        159.9917                                         !
 ! D114  D(37,38,39,40)        -38.9772                                         !
 ! D115  D(37,38,39,46)        141.8464                                         !
 ! D116  D(41,38,39,40)         87.1659                                         !
 ! D117  D(41,38,39,46)        -92.0104                                         !
 ! D118  D(48,38,39,40)       -152.5657                                         !
 ! D119  D(48,38,39,46)         28.2579                                         !
 ! D120  D(37,38,41,42)       -170.726                                          !
 ! D121  D(37,38,41,49)         67.128                                          !
 ! D122  D(37,38,41,50)        -49.0057                                         !
 ! D123  D(39,38,41,42)         65.8402                                         !
 ! D124  D(39,38,41,49)        -56.3059                                         !
 ! D125  D(39,38,41,50)       -172.4396                                         !
 ! D126  D(48,38,41,42)        -54.8549                                         !
 ! D127  D(48,38,41,49)       -177.001                                          !
 ! D128  D(48,38,41,50)         66.8653                                         !
 ! D129  D(38,41,42,43)         64.6527                                         !
 ! D130  D(38,41,42,51)       -174.1692                                         !
 ! D131  D(38,41,42,52)        -59.4269                                         !
 ! D132  D(49,41,42,43)       -173.4493                                         !
 ! D133  D(49,41,42,51)        -52.2712                                         !
 ! D134  D(49,41,42,52)         62.4711                                         !
 ! D135  D(50,41,42,43)        -55.8932                                         !
 ! D136  D(50,41,42,51)         65.2849                                         !
 ! D137  D(50,41,42,52)       -179.9728                                         !
 ! D138  D(41,42,43,44)       -113.3427                                         !
 ! D139  D(41,42,43,53)        127.6729                                         !
 ! D140  D(41,42,43,54)         12.1877                                         !
 ! D141  D(51,42,43,44)        125.9374                                         !
 ! D142  D(51,42,43,53)          6.953                                          !
 ! D143  D(51,42,43,54)       -108.5322                                         !
 ! D144  D(52,42,43,44)         10.5021                                         !
 ! D145  D(52,42,43,53)       -108.4823                                         !
 ! D146  D(52,42,43,54)        136.0326                                         !
 ! D147  D(42,43,44,45)         70.9321                                         !
 ! D148  D(42,43,44,55)       -168.169                                          !
 ! D149  D(42,43,44,56)        -48.2239                                         !
 ! D150  D(53,43,44,45)       -167.8987                                         !
 ! D151  D(53,43,44,55)        -46.9997                                         !
 ! D152  D(53,43,44,56)         72.9453                                         !
 ! D153  D(54,43,44,45)        -55.396                                          !
 ! D154  D(54,43,44,55)         65.5029                                         !
 ! D155  D(54,43,44,56)       -174.552                                          !
 ! D156  D(43,44,45,57)         59.5228                                         !
 ! D157  D(43,44,45,58)        -62.0164                                         !
 ! D158  D(43,44,45,59)        178.0583                                         !
 ! D159  D(55,44,45,57)        -62.9505                                         !
 ! D160  D(55,44,45,58)        175.5103                                         !
 ! D161  D(55,44,45,59)         55.585                                          !
 ! D162  D(56,44,45,57)       -178.6721                                         !
 ! D163  D(56,44,45,58)         59.7887                                         !
 ! D164  D(56,44,45,59)        -60.1366                                         !
 --------------------------------------------------------------------------------
 Symmetry turned off by external request.
 Stoichiometry    C20H31N4O4(1+)
 Framework group  C1[X(C20H31N4O4)]
 Deg. of freedom   171
 Full point group                 C1      NOp   1
                          Input orientation:                          
 ---------------------------------------------------------------------
 Center     Atomic      Atomic             Coordinates (Angstroms)
 Number     Number       Type             X           Y           Z
 ---------------------------------------------------------------------
      1          7           0       -5.451637   18.491968   11.482981
      2          6           0       -5.832745   18.647258   12.934271
      3          6           0       -6.674359   17.371550   13.204887
      4          8           0       -6.492428   16.406559   12.455803
      5          6           0       -6.513740   20.020779   13.128421
      6          6           0       -5.761198   21.131420   12.422197
      7          6           0       -6.164723   21.559222   11.148388
      8          6           0       -4.621909   21.703547   13.005195
      9          6           0       -5.443203   22.547758   10.475527
     10          6           0       -3.901573   22.691173   12.331979
     11          6           0       -4.311621   23.114798   11.065349
     12          1           0       -6.356502   18.616018   10.912500
     13          1           0       -4.904097   18.600067   13.514630
     14          1           0       -7.536646   19.956882   12.749590
     15          1           0       -6.557300   20.230903   14.198754
     16          1           0       -7.043340   21.112430   10.688630
     17          1           0       -4.305873   21.386584   13.997317
     18          1           0       -5.769236   22.877901    9.493397
     19          1           0       -3.026593   23.134465   12.798432
     20          1           0       -3.753936   23.886760   10.543400
     21          1           0       -5.145685   17.523797   11.328387
     22          1           0       -4.748247   19.177824   11.200304
     23          7           0       -7.623295   17.350864   14.166774
     24          6           0       -8.523612   16.170539   14.216149
     25          6           0       -9.232620   15.939521   12.872007
     26          8           0       -9.428645   14.811355   12.445991
     27          6           0       -9.462577   16.501213   15.390263
     28          6           0       -8.573890   17.336271   16.323589
     29          6           0       -7.789242   18.225673   15.348858
     30          1           0       -7.940675   15.264553   14.402411
     31          1           0      -10.311156   17.097841   15.035141
     32          1           0       -9.857371   15.595642   15.855169
     33          1           0       -9.140770   17.925298   17.049013
     34          1           0       -7.885110   16.686214   16.874362
     35          1           0       -6.818055   18.536749   15.743078
     36          1           0       -8.365212   19.120845   15.088009
     37          7           0       -9.644577   17.080885   12.219698
     38          6           0       -9.746705   17.035282   10.766750
     39          6           0       -8.454189   17.613848   10.151174
     40          8           0       -7.950093   18.615032   10.727423
     41          6           0      -10.984618   17.750602   10.208266
     42          6           0      -11.192311   17.497102    8.703970
     43          6           0      -11.498372   16.017936    8.335959
     44          6           0      -10.429799   15.287565    7.516901
     45          7           0       -9.183302   14.983101    8.303696
     46          8           0       -7.980721   17.072871    9.105437
     47          1           0       -9.254774   17.951807   12.561056
     48          1           0       -9.818427   15.973536   10.536232
     49          1           0      -10.891305   18.828098   10.390852
     50          1           0      -11.858641   17.401939   10.771382
     51          1           0      -12.026294   18.122119    8.369630
     52          1           0      -10.314131   17.847894    8.147913
     53          1           0      -12.407546   15.976628    7.726177
     54          1           0      -11.728733   15.430942    9.236157
     55          1           0      -10.821329   14.340058    7.134636
     56          1           0      -10.110989   15.894617    6.664612
     57          1           0       -9.392727   14.393809    9.115594
     58          1           0       -8.645685   15.942023    8.682961
     59          1           0       -8.510911   14.468063    7.729324
 ---------------------------------------------------------------------
 Rotational constants (GHZ):           0.2254695           0.1250339           0.0919576
 Standard basis: 6-31G(d) (6D, 7F)
   482 basis functions,   908 primitive gaussians,   482 cartesian basis functions
   105 alpha electrons      105 beta electrons
       nuclear repulsion energy      2893.3262789681 Hartrees.
 NAtoms=   59 NActive=   59 NUniq=   59 SFac= 1.00D+00 NAtFMM=   60 NAOKFM=F Big=F
 Integral buffers will be    131072 words long.
 Raffenetti 2 integral format.
 Two-electron integral symmetry is turned off.
 Nuclear repulsion after empirical dispersion term =     2893.2471456916 Hartrees.
 One-electron integrals computed using PRISM.
 NBasis=   482 RedAO= T EigKep=  4.68D-04  NBF=   482
 NBsUse=   482 1.00D-06 EigRej= -1.00D+00 NBFU=   482
 Initial guess from the checkpoint file:  "conf-815.chk"
 B after Tr=     0.000000    0.000000    0.000000
         Rot=    1.000000    0.000000    0.000000    0.000000 Ang=   0.00 deg.
 Requested convergence on RMS density matrix=1.00D-08 within 128 cycles.
 Requested convergence on MAX density matrix=1.00D-06.
 Requested convergence on             energy=1.00D-06.
 No special actions if energy rises.
 SCF Done:  E(RB3LYP) =  -1300.63262479     A.U. after    1 cycles
            NFock=  1  Conv=0.21D-08     -V/T= 2.0095

 **********************************************************************

            Population analysis using the SCF Density.

 **********************************************************************

 Alpha  occ. eigenvalues --  -19.24037 -19.23123 -19.22334 -19.21117 -14.54376
 Alpha  occ. eigenvalues --  -14.52981 -14.48663 -14.44850 -10.41464 -10.39890
 Alpha  occ. eigenvalues --  -10.38248 -10.38059 -10.35587 -10.34084 -10.33356
 Alpha  occ. eigenvalues --  -10.32378 -10.31297 -10.30347 -10.29948 -10.29646
 Alpha  occ. eigenvalues --  -10.29483 -10.28778 -10.28775 -10.28532 -10.28452
 Alpha  occ. eigenvalues --  -10.28353 -10.28286 -10.28113  -1.16822  -1.15932
 Alpha  occ. eigenvalues --   -1.12902  -1.09751  -1.08514  -1.06619  -1.06085
 Alpha  occ. eigenvalues --   -1.01599  -0.95480  -0.91627  -0.91042  -0.89481
 Alpha  occ. eigenvalues --   -0.87260  -0.85384  -0.84050  -0.83827  -0.80037
 Alpha  occ. eigenvalues --   -0.77819  -0.75460  -0.74401  -0.71251  -0.70544
 Alpha  occ. eigenvalues --   -0.69970  -0.69358  -0.69172  -0.68536  -0.67800
 Alpha  occ. eigenvalues --   -0.67376  -0.66917  -0.66521  -0.64219  -0.61178
 Alpha  occ. eigenvalues --   -0.60766  -0.60550  -0.60078  -0.59834  -0.57997
 Alpha  occ. eigenvalues --   -0.57306  -0.57203  -0.55974  -0.55486  -0.55108
 Alpha  occ. eigenvalues --   -0.54357  -0.54003  -0.53303  -0.52838  -0.52534
 Alpha  occ. eigenvalues --   -0.52199  -0.51736  -0.51321  -0.51057  -0.50765
 Alpha  occ. eigenvalues --   -0.49973  -0.49691  -0.48990  -0.48623  -0.48202
 Alpha  occ. eigenvalues --   -0.47399  -0.46686  -0.46103  -0.45369  -0.45240
 Alpha  occ. eigenvalues --   -0.44706  -0.44535  -0.43770  -0.43698  -0.43390
 Alpha  occ. eigenvalues --   -0.42870  -0.38976  -0.38173  -0.38116  -0.37258
 Alpha  occ. eigenvalues --   -0.36695  -0.34583  -0.34501  -0.34189  -0.33883
 Alpha virt. eigenvalues --   -0.11656  -0.09947  -0.09815  -0.08141  -0.07085
 Alpha virt. eigenvalues --   -0.06409  -0.04548  -0.03343  -0.01756  -0.01700
 Alpha virt. eigenvalues --   -0.00337  -0.00170   0.00684   0.00763   0.01553
 Alpha virt. eigenvalues --    0.02004   0.02206   0.02562   0.03230   0.03692
 Alpha virt. eigenvalues --    0.03781   0.04466   0.04528   0.05482   0.05843
 Alpha virt. eigenvalues --    0.06188   0.06369   0.06667   0.07060   0.07326
 Alpha virt. eigenvalues --    0.07808   0.08012   0.08676   0.08686   0.09345
 Alpha virt. eigenvalues --    0.09632   0.10176   0.10811   0.10944   0.11336
 Alpha virt. eigenvalues --    0.11414   0.12408   0.12772   0.13603   0.14244
 Alpha virt. eigenvalues --    0.15126   0.15272   0.15411   0.16957   0.17582
 Alpha virt. eigenvalues --    0.17973   0.18351   0.19066   0.20427   0.21515
 Alpha virt. eigenvalues --    0.23262   0.23550   0.24740   0.25459   0.25870
 Alpha virt. eigenvalues --    0.28485   0.30329   0.30971   0.32570   0.35405
 Alpha virt. eigenvalues --    0.37435   0.38686   0.39556   0.40568   0.40754
 Alpha virt. eigenvalues --    0.40991   0.41628   0.42154   0.42592   0.43062
 Alpha virt. eigenvalues --    0.44374   0.44596   0.45067   0.45420   0.46052
 Alpha virt. eigenvalues --    0.46242   0.47255   0.47563   0.47782   0.48456
 Alpha virt. eigenvalues --    0.49215   0.50189   0.50422   0.50884   0.51435
 Alpha virt. eigenvalues --    0.51520   0.52050   0.52265   0.52738   0.53268
 Alpha virt. eigenvalues --    0.53483   0.54180   0.54497   0.55211   0.55536
 Alpha virt. eigenvalues --    0.55721   0.56264   0.56826   0.57200   0.59106
 Alpha virt. eigenvalues --    0.59457   0.60273   0.60411   0.61480   0.62526
 Alpha virt. eigenvalues --    0.63257   0.64386   0.64940   0.64978   0.66020
 Alpha virt. eigenvalues --    0.67323   0.68595   0.69248   0.70204   0.70804
 Alpha virt. eigenvalues --    0.71006   0.71106   0.71837   0.72320   0.73136
 Alpha virt. eigenvalues --    0.73695   0.74079   0.74559   0.74792   0.75161
 Alpha virt. eigenvalues --    0.75607   0.76335   0.76473   0.76644   0.77300
 Alpha virt. eigenvalues --    0.77446   0.77982   0.78193   0.78374   0.79255
 Alpha virt. eigenvalues --    0.79558   0.79876   0.80661   0.81398   0.81598
 Alpha virt. eigenvalues --    0.81794   0.82823   0.83012   0.83461   0.84185
 Alpha virt. eigenvalues --    0.84766   0.85038   0.85691   0.86187   0.86862
 Alpha virt. eigenvalues --    0.87517   0.87764   0.89765   0.90426   0.91022
 Alpha virt. eigenvalues --    0.91738   0.92426   0.94917   0.95362   0.96019
 Alpha virt. eigenvalues --    0.96677   0.97860   0.98384   1.00256   1.01313
 Alpha virt. eigenvalues --    1.01651   1.01809   1.03090   1.03772   1.05284
 Alpha virt. eigenvalues --    1.06298   1.07516   1.08742   1.09146   1.09824
 Alpha virt. eigenvalues --    1.11156   1.13525   1.15066   1.16129   1.16843
 Alpha virt. eigenvalues --    1.19264   1.20037   1.20404   1.23664   1.26116
 Alpha virt. eigenvalues --    1.26490   1.26768   1.27399   1.29169   1.29622
 Alpha virt. eigenvalues --    1.30855   1.32870   1.33097   1.33646   1.34596
 Alpha virt. eigenvalues --    1.35064   1.36710   1.38435   1.39010   1.39618
 Alpha virt. eigenvalues --    1.39947   1.40896   1.41630   1.41951   1.43044
 Alpha virt. eigenvalues --    1.44791   1.46958   1.49410   1.49633   1.51161
 Alpha virt. eigenvalues --    1.51872   1.52514   1.55108   1.56375   1.56792
 Alpha virt. eigenvalues --    1.58387   1.59213   1.61159   1.64347   1.64788
 Alpha virt. eigenvalues --    1.65604   1.65735   1.67384   1.68285   1.68625
 Alpha virt. eigenvalues --    1.69288   1.70286   1.70605   1.70859   1.71839
 Alpha virt. eigenvalues --    1.72393   1.73506   1.74235   1.74550   1.75534
 Alpha virt. eigenvalues --    1.76064   1.76418   1.77875   1.78472   1.78857
 Alpha virt. eigenvalues --    1.79754   1.80114   1.80955   1.81925   1.82956
 Alpha virt. eigenvalues --    1.83729   1.83827   1.84172   1.85336   1.87665
 Alpha virt. eigenvalues --    1.88127   1.88827   1.89544   1.90032   1.90851
 Alpha virt. eigenvalues --    1.91583   1.92389   1.93016   1.93320   1.94745
 Alpha virt. eigenvalues --    1.95522   1.95905   1.96579   1.96907   1.97859
 Alpha virt. eigenvalues --    1.98852   2.00611   2.01367   2.01449   2.02242
 Alpha virt. eigenvalues --    2.04220   2.04906   2.05694   2.07058   2.07273
 Alpha virt. eigenvalues --    2.08569   2.10076   2.11266   2.12084   2.12815
 Alpha virt. eigenvalues --    2.14472   2.15357   2.16641   2.16749   2.19283
 Alpha virt. eigenvalues --    2.20361   2.21585   2.22323   2.24193   2.24471
 Alpha virt. eigenvalues --    2.25130   2.26348   2.26789   2.27491   2.29174
 Alpha virt. eigenvalues --    2.30177   2.31250   2.32155   2.32868   2.36069
 Alpha virt. eigenvalues --    2.36996   2.37978   2.40289   2.40893   2.42042
 Alpha virt. eigenvalues --    2.43378   2.45663   2.46507   2.47050   2.48151
 Alpha virt. eigenvalues --    2.48886   2.51365   2.51614   2.51933   2.53709
 Alpha virt. eigenvalues --    2.54914   2.56325   2.56825   2.57251   2.57802
 Alpha virt. eigenvalues --    2.59151   2.60486   2.61887   2.63558   2.65004
 Alpha virt. eigenvalues --    2.65535   2.66115   2.67209   2.67791   2.68308
 Alpha virt. eigenvalues --    2.73286   2.74866   2.81864   2.84378   2.87420
 Alpha virt. eigenvalues --    2.89563   2.92840   2.94385   2.94689   2.97476
 Alpha virt. eigenvalues --    3.01541   3.05434   3.09902   3.31374   3.72987
 Alpha virt. eigenvalues --    3.76256   3.88405   3.92152   3.98970   4.00356
 Alpha virt. eigenvalues --    4.02660   4.03409   4.07055   4.08500   4.10980
 Alpha virt. eigenvalues --    4.13774   4.16159   4.17822   4.22159   4.25145
 Alpha virt. eigenvalues --    4.26150   4.30704   4.32803   4.37152   4.39626
 Alpha virt. eigenvalues --    4.44296   4.46815   4.48516   4.57504   4.60007
 Alpha virt. eigenvalues --    4.60977   4.67680
          Condensed to atoms (all electrons):
 Mulliken charges:
               1
     1  N   -0.759746
     2  C   -0.104843
     3  C    0.635137
     4  O   -0.532367
     5  C   -0.375451
     6  C    0.110293
     7  C   -0.208799
     8  C   -0.185854
     9  C   -0.128368
    10  C   -0.127211
    11  C   -0.125461
    12  H    0.448392
    13  H    0.207425
    14  H    0.196904
    15  H    0.179224
    16  H    0.168006
    17  H    0.134778
    18  H    0.156435
    19  H    0.157930
    20  H    0.159137
    21  H    0.408254
    22  H    0.397760
    23  N   -0.489339
    24  C   -0.019491
    25  C    0.613470
    26  O   -0.516118
    27  C   -0.314913
    28  C   -0.301710
    29  C   -0.140347
    30  H    0.199498
    31  H    0.169443
    32  H    0.191880
    33  H    0.179751
    34  H    0.174615
    35  H    0.173208
    36  H    0.173586
    37  N   -0.594092
    38  C   -0.068077
    39  C    0.667540
    40  O   -0.613642
    41  C   -0.276790
    42  C   -0.295789
    43  C   -0.290310
    44  C   -0.181436
    45  N   -0.786716
    46  O   -0.606820
    47  H    0.336391
    48  H    0.143505
    49  H    0.159747
    50  H    0.167511
    51  H    0.171182
    52  H    0.162716
    53  H    0.185206
    54  H    0.167726
    55  H    0.193360
    56  H    0.201362
    57  H    0.394400
    58  H    0.469811
    59  H    0.388109
 Sum of Mulliken charges =   1.00000
 Mulliken charges with hydrogens summed into heavy atoms:
               1
     1  N    0.494659
     2  C    0.102582
     3  C    0.635137
     4  O   -0.532367
     5  C    0.000677
     6  C    0.110293
     7  C   -0.040792
     8  C   -0.051077
     9  C    0.028068
    10  C    0.030718
    11  C    0.033675
    23  N   -0.489339
    24  C    0.180007
    25  C    0.613470
    26  O   -0.516118
    27  C    0.046411
    28  C    0.052656
    29  C    0.206447
    37  N   -0.257700
    38  C    0.075428
    39  C    0.667540
    40  O   -0.613642
    41  C    0.050468
    42  C    0.038110
    43  C    0.062621
    44  C    0.213285
    45  N    0.465604
    46  O   -0.606820
 Electronic spatial extent (au):  <R**2>=         407216.0509
 Charge=              1.0000 electrons
 Dipole moment (field-independent basis, Debye):
    X=            -36.7220    Y=             85.0824    Z=             53.6136  Tot=            107.0605
 Quadrupole moment (field-independent basis, Debye-Ang):
   XX=            158.8683   YY=           1372.2660   ZZ=            497.5149
   XY=           -624.1771   XZ=           -389.3510   YZ=            975.9074
 Traceless Quadrupole moment (field-independent basis, Debye-Ang):
   XX=           -517.3481   YY=            696.0496   ZZ=           -178.7015
   XY=           -624.1771   XZ=           -389.3510   YZ=            975.9074
 Octapole moment (field-independent basis, Debye-Ang**2):
  XXX=            770.9349  YYY=          19345.8363  ZZZ=           3066.4610  XYY=          -9475.2262
  XXY=           2379.3051  XXZ=           1326.2359  XZZ=          -3378.2458  YZZ=           9252.9149
  YYZ=          16054.0019  XYZ=          -6837.2758
 Hexadecapole moment (field-independent basis, Debye-Ang**3):
 XXXX=         -34382.1233 YYYY=         200580.0586 ZZZZ=         -16001.2741 XXXY=          17431.7213
 XXXZ=          14824.3391 YYYX=        -120095.8025 YYYZ=         230115.4351 ZZZX=         -17445.0309
 ZZZY=          59036.5978 XXYY=          23866.5530 XXZZ=           2949.5793 YYZZ=         149007.1991
 XXYZ=          20704.6080 YYXZ=        -106237.6705 ZZXY=         -61103.8013
 N-N= 2.893247145692D+03 E-N=-8.790130236122D+03  KE= 1.288400403193D+03
 Unable to Open any file for archive entry.
 1\1\GINC-QML-000\SP\RB3LYP\6-31G(d)\C20H31N4O4(1+)\KENGMITH\25-May-202
 2\0\\# B3LYP/6-31G* empiricaldispersion=gd3 guess=read geom=check nosy
 mm integral(ultrafinegrid)\\Candidate Structure: Conf:815 Charge calc 
 in gas phase\\1,1\N,0,-5.4516371134,18.4919683843,11.4829812887\C,0,-5
 .8327454256,18.6472582245,12.9342713935\C,0,-6.6743588769,17.371549567
 3,13.204886596\O,0,-6.4924277711,16.406558572,12.4558027283\C,0,-6.513
 7397249,20.0207790226,13.128421066\C,0,-5.7611981591,21.1314199876,12.
 4221973534\C,0,-6.1647234713,21.5592216695,11.1483884\C,0,-4.621909399
 3,21.7035472716,13.0051952107\C,0,-5.4432029283,22.5477581494,10.47552
 67953\C,0,-3.9015732006,22.6911734906,12.3319789241\C,0,-4.311621121,2
 3.1147980424,11.0653488156\H,0,-6.35650231,18.6160183452,10.9125003147
 \H,0,-4.9040969302,18.6000669418,13.5146295329\H,0,-7.5366457994,19.95
 6882151,12.749589945\H,0,-6.5573004212,20.2309026009,14.1987537572\H,0
 ,-7.0433400241,21.1124301629,10.6886295841\H,0,-4.3058734682,21.386584
 3986,13.9973173343\H,0,-5.7692357829,22.8779014743,9.4933969418\H,0,-3
 .0265933022,23.1344647746,12.7984319277\H,0,-3.7539359063,23.886759997
 1,10.5433997348\H,0,-5.1456852258,17.5237972532,11.3283870131\H,0,-4.7
 482465748,19.1778242261,11.2003038008\N,0,-7.623295414,17.3508644224,1
 4.1667740357\C,0,-8.5236117197,16.1705385121,14.2161494219\C,0,-9.2326
 202542,15.9395210055,12.8720068797\O,0,-9.4286454046,14.8113553766,12.
 4459908948\C,0,-9.4625770525,16.5012132265,15.390263031\C,0,-8.5738901
 572,17.3362710412,16.3235888394\C,0,-7.7892422839,18.225673184,15.3488
 580477\H,0,-7.9406753646,15.2645532492,14.40241093\H,0,-10.3111560378,
 17.0978412431,15.0351411079\H,0,-9.85737091,15.5956416155,15.855169325
 9\H,0,-9.1407701096,17.925298441,17.0490129989\H,0,-7.8851095384,16.68
 62142596,16.8743623653\H,0,-6.818055491,18.5367485956,15.7430776059\H,
 0,-8.3652124419,19.1208453428,15.0880094402\N,0,-9.644577442,17.080885
 1483,12.2196975865\C,0,-9.7467046057,17.0352819843,10.7667497787\C,0,-
 8.4541886163,17.613847759,10.1511735903\O,0,-7.9500933418,18.615032270
 5,10.7274226048\C,0,-10.9846176998,17.7506017147,10.2082662651\C,0,-11
 .1923114604,17.4971020891,8.7039696813\C,0,-11.4983724977,16.017936423
 7,8.3359587545\C,0,-10.4297992142,15.2875654681,7.5169009834\N,0,-9.18
 33023857,14.9831012566,8.3036963095\O,0,-7.9807214561,17.0728708202,9.
 1054370281\H,0,-9.2547740445,17.9518067067,12.5610560942\H,0,-9.818426
 7337,15.973535669,10.5362322451\H,0,-10.8913047045,18.8280975939,10.39
 08516111\H,0,-11.8586413158,17.4019387398,10.771381694\H,0,-12.0262944
 996,18.1221189867,8.3696296901\H,0,-10.3141308823,17.8478942245,8.1479
 130045\H,0,-12.407545721,15.9766283203,7.7261774639\H,0,-11.728733425,
 15.4309417133,9.236156685\H,0,-10.8213286515,14.3400577329,7.134635687
 6\H,0,-10.1109891904,15.8946166409,6.664611959\H,0,-9.3927270382,14.39
 38092513,9.1155944719\H,0,-8.645684904,15.9420225663,8.6829613258\H,0,
 -8.5109110639,14.4680631474,7.7293238635\\Version=ES64L-G16RevC.01\HF=
 -1300.6326248\RMSD=2.078e-09\Dipole=0.4558411,-0.6921908,-1.0902638\Qu
 adrupole=-384.6356107,517.4957877,-132.860177,-464.0603702,-289.472888
 9,725.5632326\PG=C01 [X(C20H31N4O4)]\\@
 The archive entry for this job was punched.


 THE LENGTH OF A MEETING IS PROPORTIONAL TO THE
 SQUARE OF THE PARTICIPANTS.
 Job cpu time:       0 days  0 hours  1 minutes 50.6 seconds.
 Elapsed time:       0 days  0 hours  0 minutes 28.2 seconds.
 File lengths (MBytes):  RWF=    240 Int=      0 D2E=      0 Chk=     32 Scr=     16
 Normal termination of Gaussian 16 at Wed May 25 08:35:11 2022.
