 Entering Gaussian System, Link 0=/opt/software/Gaussian/g16-AVX2-C.01/g16/g16
 Input=charge-conf-472.com
 Output=charge-conf-472.log
 Initial command:
 /opt/software/Gaussian/g16-AVX2-C.01/g16/l1.exe "/mnt/gs18/scratch/users/kengmith/Gau-10465.inp" -scrdir="/mnt/gs18/scratch/users/kengmith/"
 Entering Link 1 = /opt/software/Gaussian/g16-AVX2-C.01/g16/l1.exe PID=     10475.
  
 Copyright (c) 1988-2019, Gaussian, Inc.  All Rights Reserved.
  
 This is part of the Gaussian(R) 16 program.  It is based on
 the Gaussian(R) 09 system (copyright 2009, Gaussian, Inc.),
 the Gaussian(R) 03 system (copyright 2003, Gaussian, Inc.),
 the Gaussian(R) 98 system (copyright 1998, Gaussian, Inc.),
 the Gaussian(R) 94 system (copyright 1995, Gaussian, Inc.),
 the Gaussian 92(TM) system (copyright 1992, Gaussian, Inc.),
 the Gaussian 90(TM) system (copyright 1990, Gaussian, Inc.),
 the Gaussian 88(TM) system (copyright 1988, Gaussian, Inc.),
 the Gaussian 86(TM) system (copyright 1986, Carnegie Mellon
 University), and the Gaussian 82(TM) system (copyright 1983,
 Carnegie Mellon University). Gaussian is a federally registered
 trademark of Gaussian, Inc.
  
 This software contains proprietary and confidential information,
 including trade secrets, belonging to Gaussian, Inc.
  
 This software is provided under written license and may be
 used, copied, transmitted, or stored only in accord with that
 written license.
  
 The following legend is applicable only to US Government
 contracts under FAR:
  
                    RESTRICTED RIGHTS LEGEND
  
 Use, reproduction and disclosure by the US Government is
 subject to restrictions as set forth in subparagraphs (a)
 and (c) of the Commercial Computer Software - Restricted
 Rights clause in FAR 52.227-19.
  
 Gaussian, Inc.
 340 Quinnipiac St., Bldg. 40, Wallingford CT 06492
  
  
 ---------------------------------------------------------------
 Warning -- This program may not be used in any manner that
 competes with the business of Gaussian, Inc. or will provide
 assistance to any competitor of Gaussian, Inc.  The licensee
 of this program is prohibited from giving any competitor of
 Gaussian, Inc. access to this program.  By using this program,
 the user acknowledges that Gaussian, Inc. is engaged in the
 business of creating and licensing software in the field of
 computational chemistry and represents and warrants to the
 licensee that it is not a competitor of Gaussian, Inc. and that
 it will not use this program in any manner prohibited above.
 ---------------------------------------------------------------
  

 Cite this work as:
 Gaussian 16, Revision C.01,
 M. J. Frisch, G. W. Trucks, H. B. Schlegel, G. E. Scuseria, 
 M. A. Robb, J. R. Cheeseman, G. Scalmani, V. Barone, 
 G. A. Petersson, H. Nakatsuji, X. Li, M. Caricato, A. V. Marenich, 
 J. Bloino, B. G. Janesko, R. Gomperts, B. Mennucci, H. P. Hratchian, 
 J. V. Ortiz, A. F. Izmaylov, J. L. Sonnenberg, D. Williams-Young, 
 F. Ding, F. Lipparini, F. Egidi, J. Goings, B. Peng, A. Petrone, 
 T. Henderson, D. Ranasinghe, V. G. Zakrzewski, J. Gao, N. Rega, 
 G. Zheng, W. Liang, M. Hada, M. Ehara, K. Toyota, R. Fukuda, 
 J. Hasegawa, M. Ishida, T. Nakajima, Y. Honda, O. Kitao, H. Nakai, 
 T. Vreven, K. Throssell, J. A. Montgomery, Jr., J. E. Peralta, 
 F. Ogliaro, M. J. Bearpark, J. J. Heyd, E. N. Brothers, K. N. Kudin, 
 V. N. Staroverov, T. A. Keith, R. Kobayashi, J. Normand, 
 K. Raghavachari, A. P. Rendell, J. C. Burant, S. S. Iyengar, 
 J. Tomasi, M. Cossi, J. M. Millam, M. Klene, C. Adamo, R. Cammi, 
 J. W. Ochterski, R. L. Martin, K. Morokuma, O. Farkas, 
 J. B. Foresman, and D. J. Fox, Gaussian, Inc., Wallingford CT, 2019.
 
 ******************************************
 Gaussian 16:  ES64L-G16RevC.01  3-Jul-2019
                25-May-2022 
 ******************************************
 %mem=8gb
 %nproc=4
 Will use up to    4 processors via shared memory.
 %chk=conf-472.chk
 ----------------------------------------------------------------------
 # B3LYP/6-31G* empiricaldispersion=gd3 guess=read geom=check nosymm in
 tegral(ultrafinegrid)
 ----------------------------------------------------------------------
 1/29=2,38=1,172=1/1;
 2/12=2,15=1,40=1/2;
 3/5=1,6=6,7=1,11=2,14=-4,25=1,30=1,74=-5,75=-5,116=-2,124=31/1,2,3;
 4/5=1/1;
 5/5=2,38=6/2;
 6/7=2,8=2,9=2,10=2,28=1/1;
 99/5=1,9=1/99;
 ------------------------------------------------------
 Candidate Structure: Conf:472 Charge calc in gas phase
 ------------------------------------------------------
 Structure from the checkpoint file:  "conf-472.chk"
 Charge =  1 Multiplicity = 1
 Redundant internal coordinates found in file.  (old form).
 N,0,-9.7784958412,18.680316827,10.3608933851
 C,0,-9.3863417278,19.8817301299,11.1845160673
 C,0,-7.8507850405,19.9557775145,10.9712155077
 O,0,-7.3953156085,19.4138938579,9.9590664096
 C,0,-9.9109763029,19.6928500228,12.6257018276
 C,0,-11.3441576431,19.1987410349,12.646366422
 C,0,-11.6177428808,17.8307574296,12.7951917535
 C,0,-12.408846463,20.0912647403,12.4590906387
 C,0,-12.9351114022,17.3679754391,12.7643474673
 C,0,-13.7248076554,19.6278339831,12.4282182732
 C,0,-13.9897740761,18.2645789676,12.5808754611
 H,0,-9.3753747879,17.8177326133,10.8641248925
 H,0,-9.8600404163,20.7546819549,10.7208384451
 H,0,-9.2589324902,18.9837691992,13.1414910176
 H,0,-9.8471546055,20.6536191313,13.139987201
 H,0,-10.7944151701,17.133468467,12.9325943833
 H,0,-12.2088314598,21.1558627546,12.352917754
 H,0,-13.1364492678,16.3079101834,12.8892168447
 H,0,-14.5420403121,20.3303354463,12.292933856
 H,0,-15.0141199894,17.9044199543,12.5616235122
 H,0,-9.2967982968,18.7349929763,9.4554203299
 H,0,-10.7931233512,18.6020164335,10.2638156655
 N,0,-7.0423855166,20.5173851818,11.897081475
 C,0,-5.5769986943,20.3568281102,11.7155746234
 C,0,-5.1776594142,18.87724064,11.5975999195
 O,0,-4.298810604,18.518774253,10.8282483242
 C,0,-4.9954396031,21.084854836,12.9407826918
 C,0,-6.0274178326,22.1890346186,13.213006495
 C,0,-7.3663673972,21.4761016325,12.9770199494
 H,0,-5.2642348333,20.8230677655,10.7774149232
 H,0,-4.9372933607,20.3972415616,13.7928251837
 H,0,-3.990570577,21.4631306675,12.7427714593
 H,0,-5.9586763353,22.6073077351,14.2204149678
 H,0,-5.9070924742,23.0070124565,12.4941371587
 H,0,-8.1633164057,22.1574792534,12.6672273382
 H,0,-7.6897352685,20.94510068,13.8795538216
 N,0,-5.8557929137,18.0155959589,12.4317490051
 C,0,-6.0120078846,16.6328284861,11.9989609072
 C,0,-7.3953131953,16.4652382088,11.3338294702
 O,0,-8.3581607265,17.0825169539,11.8634471484
 C,0,-5.8174050118,15.6037333534,13.1208456077
 C,0,-5.7581839954,14.156795538,12.5980320121
 C,0,-4.539617802,13.8519950933,11.6818653341
 C,0,-4.8534550685,13.5446636423,10.2143892177
 N,0,-5.3145791035,14.7500225267,9.4397115871
 O,0,-7.4960047428,15.7158573947,10.3146400756
 H,0,-6.6889976454,18.3883020967,12.8721089476
 H,0,-5.2290397515,16.49525671,11.2550305822
 H,0,-6.6350749881,15.7006502056,13.8454383678
 H,0,-4.8877268776,15.8503080008,13.6476072414
 H,0,-5.723001017,13.4876921997,13.463495398
 H,0,-6.6912461154,13.9176058101,12.0730265678
 H,0,-4.0171993908,12.9650294155,12.056716704
 H,0,-3.8004781236,14.6638855278,11.7318343365
 H,0,-3.9693893759,13.1435380978,9.7097023281
 H,0,-5.6568650492,12.806552271,10.1351945379
 H,0,-4.6039574522,15.4884922875,9.4460894495
 H,0,-6.304302781,15.1984061811,9.8536040976
 H,0,-5.480572903,14.5069853078,8.4595827506
 Recover connectivity data from disk.
                           ----------------------------
                           !    Current Parameters    !
                           ! (Angstroms and Degrees)  !
 --------------------------                            --------------------------
 ! Name  Definition              Value                                          !
 --------------------------------------------------------------------------------
 ! R1    R(1,2)                  1.5085                                         !
 ! R2    R(1,12)                 1.0769                                         !
 ! R3    R(1,21)                 1.0271                                         !
 ! R4    R(1,22)                 1.0223                                         !
 ! R5    R(2,3)                  1.5521                                         !
 ! R6    R(2,5)                  1.5453                                         !
 ! R7    R(2,13)                 1.0961                                         !
 ! R8    R(3,4)                  1.2351                                         !
 ! R9    R(3,23)                 1.3513                                         !
 ! R10   R(5,6)                  1.5161                                         !
 ! R11   R(5,14)                 1.0927                                         !
 ! R12   R(5,15)                 1.0916                                         !
 ! R13   R(6,7)                  1.403                                          !
 ! R14   R(6,8)                  1.4019                                         !
 ! R15   R(7,9)                  1.3966                                         !
 ! R16   R(7,16)                 1.0876                                         !
 ! R17   R(8,10)                 1.3955                                         !
 ! R18   R(8,17)                 1.0884                                         !
 ! R19   R(9,11)                 1.3964                                         !
 ! R20   R(9,18)                 1.0862                                         !
 ! R21   R(10,11)                1.3971                                         !
 ! R22   R(10,19)                1.0861                                         !
 ! R23   R(11,20)                1.086                                          !
 ! R24   R(23,24)                1.4853                                         !
 ! R25   R(23,29)                1.48                                           !
 ! R26   R(24,25)                1.5371                                         !
 ! R27   R(24,27)                1.5393                                         !
 ! R28   R(24,30)                1.0933                                         !
 ! R29   R(25,26)                1.2218                                         !
 ! R30   R(25,37)                1.3777                                         !
 ! R31   R(27,28)                1.5357                                         !
 ! R32   R(27,31)                1.0964                                         !
 ! R33   R(27,32)                1.0918                                         !
 ! R34   R(28,29)                1.5352                                         !
 ! R35   R(28,33)                1.093                                          !
 ! R36   R(28,34)                1.0956                                         !
 ! R37   R(29,35)                1.0933                                         !
 ! R38   R(29,36)                1.0959                                         !
 ! R39   R(37,38)                1.4573                                         !
 ! R40   R(37,47)                1.0134                                         !
 ! R41   R(38,39)                1.544                                          !
 ! R42   R(38,41)                1.5348                                         !
 ! R43   R(38,48)                1.0888                                         !
 ! R44   R(39,40)                1.2604                                         !
 ! R45   R(39,46)                1.269                                          !
 ! R46   R(41,42)                1.5396                                         !
 ! R47   R(41,49)                1.0968                                         !
 ! R48   R(41,50)                1.0966                                         !
 ! R49   R(42,43)                1.5547                                         !
 ! R50   R(42,51)                1.0945                                         !
 ! R51   R(42,52)                1.097                                          !
 ! R52   R(43,44)                1.5318                                         !
 ! R53   R(43,53)                1.0955                                         !
 ! R54   R(43,54)                1.0991                                         !
 ! R55   R(44,45)                1.5052                                         !
 ! R56   R(44,55)                1.0942                                         !
 ! R57   R(44,56)                1.0939                                         !
 ! R58   R(45,57)                1.0249                                         !
 ! R59   R(45,58)                1.1627                                         !
 ! R60   R(45,59)                1.0234                                         !
 ! A1    A(2,1,12)             106.587                                          !
 ! A2    A(2,1,21)             108.4831                                         !
 ! A3    A(2,1,22)             111.7696                                         !
 ! A4    A(12,1,21)            106.2026                                         !
 ! A5    A(12,1,22)            110.7658                                         !
 ! A6    A(21,1,22)            112.6965                                         !
 ! A7    A(1,2,3)              102.7185                                         !
 ! A8    A(1,2,5)              108.8809                                         !
 ! A9    A(1,2,13)             106.9165                                         !
 ! A10   A(3,2,5)              118.0275                                         !
 ! A11   A(3,2,13)             109.3561                                         !
 ! A12   A(5,2,13)             110.1908                                         !
 ! A13   A(2,3,4)              117.1634                                         !
 ! A14   A(2,3,23)             121.1662                                         !
 ! A15   A(4,3,23)             121.5461                                         !
 ! A16   A(2,5,6)              111.9305                                         !
 ! A17   A(2,5,14)             108.4789                                         !
 ! A18   A(2,5,15)             108.177                                          !
 ! A19   A(6,5,14)             110.253                                          !
 ! A20   A(6,5,15)             109.6142                                         !
 ! A21   A(14,5,15)            108.2924                                         !
 ! A22   A(5,6,7)              120.2356                                         !
 ! A23   A(5,6,8)              120.5722                                         !
 ! A24   A(7,6,8)              119.134                                          !
 ! A25   A(6,7,9)              120.3102                                         !
 ! A26   A(6,7,16)             119.3994                                         !
 ! A27   A(9,7,16)             120.2903                                         !
 ! A28   A(6,8,10)             120.5113                                         !
 ! A29   A(6,8,17)             119.7489                                         !
 ! A30   A(10,8,17)            119.7324                                         !
 ! A31   A(7,9,11)             120.1695                                         !
 ! A32   A(7,9,18)             119.7144                                         !
 ! A33   A(11,9,18)            120.1152                                         !
 ! A34   A(8,10,11)            120.03                                           !
 ! A35   A(8,10,19)            119.8344                                         !
 ! A36   A(11,10,19)           120.1339                                         !
 ! A37   A(9,11,10)            119.844                                          !
 ! A38   A(9,11,20)            120.119                                          !
 ! A39   A(10,11,20)           120.0363                                         !
 ! A40   A(3,23,24)            117.4872                                         !
 ! A41   A(3,23,29)            129.658                                          !
 ! A42   A(24,23,29)           112.0348                                         !
 ! A43   A(23,24,25)           111.7009                                         !
 ! A44   A(23,24,27)           102.9649                                         !
 ! A45   A(23,24,30)           109.9377                                         !
 ! A46   A(25,24,27)           114.722                                          !
 ! A47   A(25,24,30)           105.683                                          !
 ! A48   A(27,24,30)           111.915                                          !
 ! A49   A(24,25,26)           121.1738                                         !
 ! A50   A(24,25,37)           115.3202                                         !
 ! A51   A(26,25,37)           123.4916                                         !
 ! A52   A(24,27,28)           103.1369                                         !
 ! A53   A(24,27,31)           109.9968                                         !
 ! A54   A(24,27,32)           111.5453                                         !
 ! A55   A(28,27,31)           110.4143                                         !
 ! A56   A(28,27,32)           113.6734                                         !
 ! A57   A(31,27,32)           108.0235                                         !
 ! A58   A(27,28,29)           102.9998                                         !
 ! A59   A(27,28,33)           113.3467                                         !
 ! A60   A(27,28,34)           110.286                                          !
 ! A61   A(29,28,33)           111.9792                                         !
 ! A62   A(29,28,34)           109.9773                                         !
 ! A63   A(33,28,34)           108.1891                                         !
 ! A64   A(23,29,28)           102.8308                                         !
 ! A65   A(23,29,35)           110.8865                                         !
 ! A66   A(23,29,36)           110.5881                                         !
 ! A67   A(28,29,35)           112.9474                                         !
 ! A68   A(28,29,36)           110.8401                                         !
 ! A69   A(35,29,36)           108.6765                                         !
 ! A70   A(25,37,38)           117.7996                                         !
 ! A71   A(25,37,47)           115.9609                                         !
 ! A72   A(38,37,47)           112.9461                                         !
 ! A73   A(37,38,39)           109.0841                                         !
 ! A74   A(37,38,41)           113.9253                                         !
 ! A75   A(37,38,48)           104.2247                                         !
 ! A76   A(39,38,41)           110.8368                                         !
 ! A77   A(39,38,48)           109.647                                          !
 ! A78   A(41,38,48)           108.8781                                         !
 ! A79   A(38,39,40)           116.7587                                         !
 ! A80   A(38,39,46)           118.7603                                         !
 ! A81   A(40,39,46)           124.4758                                         !
 ! A82   A(38,41,42)           112.7561                                         !
 ! A83   A(38,41,49)           109.2161                                         !
 ! A84   A(38,41,50)           107.9298                                         !
 ! A85   A(42,41,49)           109.6362                                         !
 ! A86   A(42,41,50)           109.9875                                         !
 ! A87   A(49,41,50)           107.1456                                         !
 ! A88   A(41,42,43)           114.4875                                         !
 ! A89   A(41,42,51)           107.8934                                         !
 ! A90   A(41,42,52)           109.5545                                         !
 ! A91   A(43,42,51)           108.7183                                         !
 ! A92   A(43,42,52)           109.9916                                         !
 ! A93   A(51,42,52)           105.8114                                         !
 ! A94   A(42,43,44)           116.3136                                         !
 ! A95   A(42,43,53)           109.3209                                         !
 ! A96   A(42,43,54)           110.8232                                         !
 ! A97   A(44,43,53)           105.2518                                         !
 ! A98   A(44,43,54)           109.2411                                         !
 ! A99   A(53,43,54)           105.1781                                         !
 ! A100  A(43,44,45)           113.2754                                         !
 ! A101  A(43,44,55)           110.481                                          !
 ! A102  A(43,44,56)           110.8068                                         !
 ! A103  A(45,44,55)           107.6807                                         !
 ! A104  A(45,44,56)           106.146                                          !
 ! A105  A(55,44,56)           108.2202                                         !
 ! A106  A(44,45,57)           111.1856                                         !
 ! A107  A(44,45,58)           112.7295                                         !
 ! A108  A(44,45,59)           110.6363                                         !
 ! A109  A(57,45,58)           108.0671                                         !
 ! A110  A(57,45,59)           106.8311                                         !
 ! A111  A(58,45,59)           107.1242                                         !
 ! D1    D(12,1,2,3)            69.2801                                         !
 ! D2    D(12,1,2,5)           -56.6146                                         !
 ! D3    D(12,1,2,13)         -175.6461                                         !
 ! D4    D(21,1,2,3)           -44.7083                                         !
 ! D5    D(21,1,2,5)          -170.6031                                         !
 ! D6    D(21,1,2,13)           70.3655                                         !
 ! D7    D(22,1,2,3)          -169.568                                          !
 ! D8    D(22,1,2,5)            64.5372                                         !
 ! D9    D(22,1,2,13)          -54.4942                                         !
 ! D10   D(1,2,3,4)             22.5565                                         !
 ! D11   D(1,2,3,23)          -153.4497                                         !
 ! D12   D(5,2,3,4)            142.2896                                         !
 ! D13   D(5,2,3,23)           -33.7165                                         !
 ! D14   D(13,2,3,4)           -90.7379                                         !
 ! D15   D(13,2,3,23)           93.256                                          !
 ! D16   D(1,2,5,6)            -45.1768                                         !
 ! D17   D(1,2,5,14)            76.6939                                         !
 ! D18   D(1,2,5,15)          -166.0455                                         !
 ! D19   D(3,2,5,6)           -161.6418                                         !
 ! D20   D(3,2,5,14)           -39.7711                                         !
 ! D21   D(3,2,5,15)            77.4895                                         !
 ! D22   D(13,2,5,6)            71.7872                                         !
 ! D23   D(13,2,5,14)         -166.342                                          !
 ! D24   D(13,2,5,15)          -49.0815                                         !
 ! D25   D(2,3,23,24)          170.5981                                         !
 ! D26   D(2,3,23,29)          -20.6967                                         !
 ! D27   D(4,3,23,24)           -5.232                                          !
 ! D28   D(4,3,23,29)          163.4732                                         !
 ! D29   D(2,5,6,7)             96.8973                                         !
 ! D30   D(2,5,6,8)            -80.3033                                         !
 ! D31   D(14,5,6,7)           -23.9502                                         !
 ! D32   D(14,5,6,8)           158.8492                                         !
 ! D33   D(15,5,6,7)          -143.0709                                         !
 ! D34   D(15,5,6,8)            39.7286                                         !
 ! D35   D(5,6,7,9)           -177.6007                                         !
 ! D36   D(5,6,7,16)             2.2629                                         !
 ! D37   D(8,6,7,9)             -0.36                                           !
 ! D38   D(8,6,7,16)           179.5036                                         !
 ! D39   D(5,6,8,10)           177.5822                                         !
 ! D40   D(5,6,8,17)            -3.404                                          !
 ! D41   D(7,6,8,10)             0.3511                                         !
 ! D42   D(7,6,8,17)           179.3648                                         !
 ! D43   D(6,7,9,11)             0.1942                                         !
 ! D44   D(6,7,9,18)          -179.4684                                         !
 ! D45   D(16,7,9,11)         -179.6682                                         !
 ! D46   D(16,7,9,18)            0.6692                                         !
 ! D47   D(6,8,10,11)           -0.1754                                         !
 ! D48   D(6,8,10,19)          179.3564                                         !
 ! D49   D(17,8,10,11)        -179.1893                                         !
 ! D50   D(17,8,10,19)           0.3425                                         !
 ! D51   D(7,9,11,10)           -0.0142                                         !
 ! D52   D(7,9,11,20)         -179.7166                                         !
 ! D53   D(18,9,11,10)         179.6471                                         !
 ! D54   D(18,9,11,20)          -0.0554                                         !
 ! D55   D(8,10,11,9)            0.0046                                         !
 ! D56   D(8,10,11,20)         179.7073                                         !
 ! D57   D(19,10,11,9)        -179.5258                                         !
 ! D58   D(19,10,11,20)          0.1769                                         !
 ! D59   D(3,23,24,25)         -55.4136                                         !
 ! D60   D(3,23,24,27)        -179.0219                                         !
 ! D61   D(3,23,24,30)          61.5768                                         !
 ! D62   D(29,23,24,25)        133.948                                          !
 ! D63   D(29,23,24,27)         10.3397                                         !
 ! D64   D(29,23,24,30)       -109.0616                                         !
 ! D65   D(3,23,29,28)        -154.6471                                         !
 ! D66   D(3,23,29,35)         -33.6559                                         !
 ! D67   D(3,23,29,36)          86.9727                                         !
 ! D68   D(24,23,29,28)         14.5496                                         !
 ! D69   D(24,23,29,35)        135.5408                                         !
 ! D70   D(24,23,29,36)       -103.8306                                         !
 ! D71   D(23,24,25,26)        142.0584                                         !
 ! D72   D(23,24,25,37)        -39.2765                                         !
 ! D73   D(27,24,25,26)       -101.2581                                         !
 ! D74   D(27,24,25,37)         77.4069                                         !
 ! D75   D(30,24,25,26)         22.5247                                         !
 ! D76   D(30,24,25,37)       -158.8103                                         !
 ! D77   D(23,24,27,28)        -31.0092                                         !
 ! D78   D(23,24,27,31)         86.7716                                         !
 ! D79   D(23,24,27,32)       -153.3824                                         !
 ! D80   D(25,24,27,28)       -152.5911                                         !
 ! D81   D(25,24,27,31)        -34.8103                                         !
 ! D82   D(25,24,27,32)         85.0357                                         !
 ! D83   D(30,24,27,28)         87.0116                                         !
 ! D84   D(30,24,27,31)       -155.2076                                         !
 ! D85   D(30,24,27,32)        -35.3616                                         !
 ! D86   D(24,25,37,38)        152.4371                                         !
 ! D87   D(24,25,37,47)         14.1147                                         !
 ! D88   D(26,25,37,38)        -28.9325                                         !
 ! D89   D(26,25,37,47)       -167.2549                                         !
 ! D90   D(24,27,28,29)         40.3955                                         !
 ! D91   D(24,27,28,33)        161.595                                          !
 ! D92   D(24,27,28,34)        -76.9372                                         !
 ! D93   D(31,27,28,29)        -77.0917                                         !
 ! D94   D(31,27,28,33)         44.1077                                         !
 ! D95   D(31,27,28,34)        165.5755                                         !
 ! D96   D(32,27,28,29)        161.3312                                         !
 ! D97   D(32,27,28,33)        -77.4694                                         !
 ! D98   D(32,27,28,34)         43.9985                                         !
 ! D99   D(27,28,29,23)        -33.5047                                         !
 ! D100  D(27,28,29,35)       -153.0758                                         !
 ! D101  D(27,28,29,36)         84.6984                                         !
 ! D102  D(33,28,29,23)       -155.6301                                         !
 ! D103  D(33,28,29,35)         84.7989                                         !
 ! D104  D(33,28,29,36)        -37.4269                                         !
 ! D105  D(34,28,29,23)         84.0459                                         !
 ! D106  D(34,28,29,35)        -35.5252                                         !
 ! D107  D(34,28,29,36)       -157.751                                          !
 ! D108  D(25,37,38,39)        -96.5639                                         !
 ! D109  D(25,37,38,41)        139.015                                          !
 ! D110  D(25,37,38,48)         20.4839                                         !
 ! D111  D(47,37,38,39)         42.9539                                         !
 ! D112  D(47,37,38,41)        -81.4672                                         !
 ! D113  D(47,37,38,48)        160.0017                                         !
 ! D114  D(37,38,39,40)        -39.1053                                         !
 ! D115  D(37,38,39,46)        141.6832                                         !
 ! D116  D(41,38,39,40)         87.1111                                         !
 ! D117  D(41,38,39,46)        -92.1003                                         !
 ! D118  D(48,38,39,40)       -152.6587                                         !
 ! D119  D(48,38,39,46)         28.1299                                         !
 ! D120  D(37,38,41,42)       -170.5878                                         !
 ! D121  D(37,38,41,49)         67.2635                                         !
 ! D122  D(37,38,41,50)        -48.8985                                         !
 ! D123  D(39,38,41,42)         65.9367                                         !
 ! D124  D(39,38,41,49)        -56.212                                          !
 ! D125  D(39,38,41,50)       -172.374                                          !
 ! D126  D(48,38,41,42)        -54.7504                                         !
 ! D127  D(48,38,41,49)       -176.8991                                         !
 ! D128  D(48,38,41,50)         66.9389                                         !
 ! D129  D(38,41,42,43)         64.5791                                         !
 ! D130  D(38,41,42,51)       -174.2488                                         !
 ! D131  D(38,41,42,52)        -59.5073                                         !
 ! D132  D(49,41,42,43)       -173.509                                          !
 ! D133  D(49,41,42,51)        -52.3369                                         !
 ! D134  D(49,41,42,52)         62.4046                                         !
 ! D135  D(50,41,42,43)        -55.9385                                         !
 ! D136  D(50,41,42,51)         65.2337                                         !
 ! D137  D(50,41,42,52)        179.9752                                         !
 ! D138  D(41,42,43,44)       -113.2676                                         !
 ! D139  D(41,42,43,53)        127.7613                                         !
 ! D140  D(41,42,43,54)         12.2823                                         !
 ! D141  D(51,42,43,44)        126.0154                                         !
 ! D142  D(51,42,43,53)          7.0443                                         !
 ! D143  D(51,42,43,54)       -108.4346                                         !
 ! D144  D(52,42,43,44)         10.5855                                         !
 ! D145  D(52,42,43,53)       -108.3855                                         !
 ! D146  D(52,42,43,54)        136.1355                                         !
 ! D147  D(42,43,44,45)         70.9332                                         !
 ! D148  D(42,43,44,55)       -168.1631                                         !
 ! D149  D(42,43,44,56)        -48.2302                                         !
 ! D150  D(53,43,44,45)       -167.9075                                         !
 ! D151  D(53,43,44,55)        -47.0038                                         !
 ! D152  D(53,43,44,56)         72.9291                                         !
 ! D153  D(54,43,44,45)        -55.4122                                         !
 ! D154  D(54,43,44,55)         65.4914                                         !
 ! D155  D(54,43,44,56)       -174.5756                                         !
 ! D156  D(43,44,45,57)         59.4481                                         !
 ! D157  D(43,44,45,58)        -62.0842                                         !
 ! D158  D(43,44,45,59)        177.9895                                         !
 ! D159  D(55,44,45,57)        -63.0248                                         !
 ! D160  D(55,44,45,58)        175.4429                                         !
 ! D161  D(55,44,45,59)         55.5166                                         !
 ! D162  D(56,44,45,57)       -178.7422                                         !
 ! D163  D(56,44,45,58)         59.7255                                         !
 ! D164  D(56,44,45,59)        -60.2008                                         !
 --------------------------------------------------------------------------------
 Symmetry turned off by external request.
 Stoichiometry    C20H31N4O4(1+)
 Framework group  C1[X(C20H31N4O4)]
 Deg. of freedom   171
 Full point group                 C1      NOp   1
                          Input orientation:                          
 ---------------------------------------------------------------------
 Center     Atomic      Atomic             Coordinates (Angstroms)
 Number     Number       Type             X           Y           Z
 ---------------------------------------------------------------------
      1          7           0       -9.778496   18.680317   10.360893
      2          6           0       -9.386342   19.881730   11.184516
      3          6           0       -7.850785   19.955778   10.971216
      4          8           0       -7.395316   19.413894    9.959066
      5          6           0       -9.910976   19.692850   12.625702
      6          6           0      -11.344158   19.198741   12.646366
      7          6           0      -11.617743   17.830757   12.795192
      8          6           0      -12.408846   20.091265   12.459091
      9          6           0      -12.935111   17.367975   12.764347
     10          6           0      -13.724808   19.627834   12.428218
     11          6           0      -13.989774   18.264579   12.580875
     12          1           0       -9.375375   17.817733   10.864125
     13          1           0       -9.860040   20.754682   10.720838
     14          1           0       -9.258932   18.983769   13.141491
     15          1           0       -9.847155   20.653619   13.139987
     16          1           0      -10.794415   17.133468   12.932594
     17          1           0      -12.208831   21.155863   12.352918
     18          1           0      -13.136449   16.307910   12.889217
     19          1           0      -14.542040   20.330335   12.292934
     20          1           0      -15.014120   17.904420   12.561624
     21          1           0       -9.296798   18.734993    9.455420
     22          1           0      -10.793123   18.602016   10.263816
     23          7           0       -7.042386   20.517385   11.897081
     24          6           0       -5.576999   20.356828   11.715575
     25          6           0       -5.177659   18.877241   11.597600
     26          8           0       -4.298811   18.518774   10.828248
     27          6           0       -4.995440   21.084855   12.940783
     28          6           0       -6.027418   22.189035   13.213006
     29          6           0       -7.366367   21.476102   12.977020
     30          1           0       -5.264235   20.823068   10.777415
     31          1           0       -4.937293   20.397242   13.792825
     32          1           0       -3.990571   21.463131   12.742771
     33          1           0       -5.958676   22.607308   14.220415
     34          1           0       -5.907092   23.007012   12.494137
     35          1           0       -8.163316   22.157479   12.667227
     36          1           0       -7.689735   20.945101   13.879554
     37          7           0       -5.855793   18.015596   12.431749
     38          6           0       -6.012008   16.632828   11.998961
     39          6           0       -7.395313   16.465238   11.333829
     40          8           0       -8.358161   17.082517   11.863447
     41          6           0       -5.817405   15.603733   13.120846
     42          6           0       -5.758184   14.156796   12.598032
     43          6           0       -4.539618   13.851995   11.681865
     44          6           0       -4.853455   13.544664   10.214389
     45          7           0       -5.314579   14.750023    9.439712
     46          8           0       -7.496005   15.715857   10.314640
     47          1           0       -6.688998   18.388302   12.872109
     48          1           0       -5.229040   16.495257   11.255031
     49          1           0       -6.635075   15.700650   13.845438
     50          1           0       -4.887727   15.850308   13.647607
     51          1           0       -5.723001   13.487692   13.463495
     52          1           0       -6.691246   13.917606   12.073027
     53          1           0       -4.017199   12.965029   12.056717
     54          1           0       -3.800478   14.663886   11.731834
     55          1           0       -3.969389   13.143538    9.709702
     56          1           0       -5.656865   12.806552   10.135195
     57          1           0       -4.603957   15.488492    9.446089
     58          1           0       -6.304303   15.198406    9.853604
     59          1           0       -5.480573   14.506985    8.459583
 ---------------------------------------------------------------------
 Rotational constants (GHZ):           0.2257856           0.1249815           0.0919735
 Standard basis: 6-31G(d) (6D, 7F)
   482 basis functions,   908 primitive gaussians,   482 cartesian basis functions
   105 alpha electrons      105 beta electrons
       nuclear repulsion energy      2893.6735931236 Hartrees.
 NAtoms=   59 NActive=   59 NUniq=   59 SFac= 1.00D+00 NAtFMM=   60 NAOKFM=F Big=F
 Integral buffers will be    131072 words long.
 Raffenetti 2 integral format.
 Two-electron integral symmetry is turned off.
 Nuclear repulsion after empirical dispersion term =     2893.5944395029 Hartrees.
 One-electron integrals computed using PRISM.
 NBasis=   482 RedAO= T EigKep=  4.68D-04  NBF=   482
 NBsUse=   482 1.00D-06 EigRej= -1.00D+00 NBFU=   482
 Initial guess from the checkpoint file:  "conf-472.chk"
 B after Tr=     0.000000    0.000000    0.000000
         Rot=    1.000000    0.000000    0.000000    0.000000 Ang=   0.00 deg.
 Requested convergence on RMS density matrix=1.00D-08 within 128 cycles.
 Requested convergence on MAX density matrix=1.00D-06.
 Requested convergence on             energy=1.00D-06.
 No special actions if energy rises.
 SCF Done:  E(RB3LYP) =  -1300.63263183     A.U. after    1 cycles
            NFock=  1  Conv=0.21D-08     -V/T= 2.0095

 **********************************************************************

            Population analysis using the SCF Density.

 **********************************************************************

 Alpha  occ. eigenvalues --  -19.24043 -19.23122 -19.22333 -19.21129 -14.54371
 Alpha  occ. eigenvalues --  -14.52981 -14.48670 -14.44858 -10.41470 -10.39887
 Alpha  occ. eigenvalues --  -10.38259 -10.38059 -10.35587 -10.34088 -10.33364
 Alpha  occ. eigenvalues --  -10.32374 -10.31297 -10.30347 -10.29949 -10.29652
 Alpha  occ. eigenvalues --  -10.29491 -10.28777 -10.28776 -10.28529 -10.28454
 Alpha  occ. eigenvalues --  -10.28354 -10.28287 -10.28114  -1.16827  -1.15932
 Alpha  occ. eigenvalues --   -1.12912  -1.09749  -1.08512  -1.06616  -1.06090
 Alpha  occ. eigenvalues --   -1.01604  -0.95482  -0.91631  -0.91042  -0.89485
 Alpha  occ. eigenvalues --   -0.87262  -0.85388  -0.84052  -0.83828  -0.80035
 Alpha  occ. eigenvalues --   -0.77822  -0.75463  -0.74402  -0.71254  -0.70547
 Alpha  occ. eigenvalues --   -0.69971  -0.69355  -0.69175  -0.68534  -0.67801
 Alpha  occ. eigenvalues --   -0.67375  -0.66918  -0.66521  -0.64223  -0.61179
 Alpha  occ. eigenvalues --   -0.60767  -0.60549  -0.60081  -0.59833  -0.58000
 Alpha  occ. eigenvalues --   -0.57312  -0.57203  -0.55975  -0.55485  -0.55109
 Alpha  occ. eigenvalues --   -0.54360  -0.54005  -0.53306  -0.52843  -0.52538
 Alpha  occ. eigenvalues --   -0.52203  -0.51737  -0.51324  -0.51062  -0.50770
 Alpha  occ. eigenvalues --   -0.49977  -0.49691  -0.48992  -0.48627  -0.48202
 Alpha  occ. eigenvalues --   -0.47400  -0.46687  -0.46109  -0.45371  -0.45242
 Alpha  occ. eigenvalues --   -0.44706  -0.44541  -0.43768  -0.43699  -0.43392
 Alpha  occ. eigenvalues --   -0.42870  -0.38978  -0.38177  -0.38115  -0.37263
 Alpha  occ. eigenvalues --   -0.36697  -0.34585  -0.34510  -0.34190  -0.33890
 Alpha virt. eigenvalues --   -0.11661  -0.09948  -0.09816  -0.08153  -0.07084
 Alpha virt. eigenvalues --   -0.06402  -0.04547  -0.03345  -0.01746  -0.01699
 Alpha virt. eigenvalues --   -0.00335  -0.00168   0.00686   0.00763   0.01556
 Alpha virt. eigenvalues --    0.02002   0.02205   0.02562   0.03232   0.03690
 Alpha virt. eigenvalues --    0.03773   0.04467   0.04526   0.05477   0.05839
 Alpha virt. eigenvalues --    0.06185   0.06368   0.06665   0.07059   0.07322
 Alpha virt. eigenvalues --    0.07806   0.08011   0.08676   0.08688   0.09338
 Alpha virt. eigenvalues --    0.09630   0.10172   0.10807   0.10941   0.11338
 Alpha virt. eigenvalues --    0.11416   0.12402   0.12766   0.13603   0.14249
 Alpha virt. eigenvalues --    0.15125   0.15266   0.15409   0.16953   0.17581
 Alpha virt. eigenvalues --    0.17968   0.18351   0.19060   0.20430   0.21514
 Alpha virt. eigenvalues --    0.23256   0.23547   0.24736   0.25461   0.25868
 Alpha virt. eigenvalues --    0.28477   0.30329   0.30963   0.32567   0.35407
 Alpha virt. eigenvalues --    0.37427   0.38690   0.39562   0.40568   0.40751
 Alpha virt. eigenvalues --    0.40985   0.41624   0.42154   0.42590   0.43065
 Alpha virt. eigenvalues --    0.44387   0.44600   0.45067   0.45416   0.46044
 Alpha virt. eigenvalues --    0.46241   0.47255   0.47561   0.47777   0.48451
 Alpha virt. eigenvalues --    0.49215   0.50188   0.50425   0.50887   0.51434
 Alpha virt. eigenvalues --    0.51518   0.52048   0.52258   0.52736   0.53269
 Alpha virt. eigenvalues --    0.53477   0.54183   0.54493   0.55224   0.55534
 Alpha virt. eigenvalues --    0.55718   0.56270   0.56830   0.57194   0.59105
 Alpha virt. eigenvalues --    0.59468   0.60277   0.60411   0.61479   0.62528
 Alpha virt. eigenvalues --    0.63267   0.64392   0.64936   0.64979   0.66024
 Alpha virt. eigenvalues --    0.67309   0.68603   0.69257   0.70204   0.70804
 Alpha virt. eigenvalues --    0.70992   0.71083   0.71842   0.72315   0.73144
 Alpha virt. eigenvalues --    0.73676   0.74081   0.74557   0.74796   0.75159
 Alpha virt. eigenvalues --    0.75604   0.76331   0.76470   0.76646   0.77305
 Alpha virt. eigenvalues --    0.77446   0.77986   0.78197   0.78377   0.79250
 Alpha virt. eigenvalues --    0.79572   0.79902   0.80661   0.81394   0.81607
 Alpha virt. eigenvalues --    0.81812   0.82820   0.83020   0.83456   0.84190
 Alpha virt. eigenvalues --    0.84772   0.85038   0.85693   0.86193   0.86856
 Alpha virt. eigenvalues --    0.87504   0.87776   0.89766   0.90421   0.91033
 Alpha virt. eigenvalues --    0.91737   0.92434   0.94938   0.95343   0.96014
 Alpha virt. eigenvalues --    0.96678   0.97840   0.98404   1.00233   1.01322
 Alpha virt. eigenvalues --    1.01659   1.01803   1.03081   1.03771   1.05273
 Alpha virt. eigenvalues --    1.06298   1.07506   1.08744   1.09140   1.09819
 Alpha virt. eigenvalues --    1.11165   1.13530   1.15054   1.16129   1.16838
 Alpha virt. eigenvalues --    1.19257   1.20067   1.20428   1.23668   1.26110
 Alpha virt. eigenvalues --    1.26481   1.26765   1.27378   1.29170   1.29635
 Alpha virt. eigenvalues --    1.30831   1.32873   1.33093   1.33650   1.34592
 Alpha virt. eigenvalues --    1.35065   1.36699   1.38427   1.39003   1.39619
 Alpha virt. eigenvalues --    1.39946   1.40937   1.41629   1.41953   1.43038
 Alpha virt. eigenvalues --    1.44781   1.46980   1.49421   1.49612   1.51183
 Alpha virt. eigenvalues --    1.51873   1.52513   1.55120   1.56376   1.56796
 Alpha virt. eigenvalues --    1.58425   1.59218   1.61174   1.64347   1.64791
 Alpha virt. eigenvalues --    1.65585   1.65722   1.67383   1.68275   1.68618
 Alpha virt. eigenvalues --    1.69296   1.70283   1.70600   1.70864   1.71842
 Alpha virt. eigenvalues --    1.72391   1.73499   1.74244   1.74548   1.75538
 Alpha virt. eigenvalues --    1.76060   1.76416   1.77876   1.78467   1.78868
 Alpha virt. eigenvalues --    1.79758   1.80109   1.80957   1.81923   1.82958
 Alpha virt. eigenvalues --    1.83730   1.83825   1.84173   1.85340   1.87664
 Alpha virt. eigenvalues --    1.88128   1.88826   1.89552   1.90037   1.90860
 Alpha virt. eigenvalues --    1.91570   1.92398   1.93015   1.93348   1.94766
 Alpha virt. eigenvalues --    1.95519   1.95912   1.96581   1.96907   1.97871
 Alpha virt. eigenvalues --    1.98845   2.00605   2.01380   2.01465   2.02247
 Alpha virt. eigenvalues --    2.04232   2.04905   2.05693   2.07058   2.07270
 Alpha virt. eigenvalues --    2.08574   2.10084   2.11266   2.12110   2.12814
 Alpha virt. eigenvalues --    2.14480   2.15367   2.16641   2.16755   2.19270
 Alpha virt. eigenvalues --    2.20349   2.21583   2.22318   2.24169   2.24472
 Alpha virt. eigenvalues --    2.25125   2.26353   2.26800   2.27498   2.29172
 Alpha virt. eigenvalues --    2.30165   2.31243   2.32160   2.32879   2.36068
 Alpha virt. eigenvalues --    2.36987   2.37986   2.40297   2.40890   2.42049
 Alpha virt. eigenvalues --    2.43373   2.45661   2.46512   2.47056   2.48164
 Alpha virt. eigenvalues --    2.48885   2.51367   2.51624   2.51928   2.53710
 Alpha virt. eigenvalues --    2.54924   2.56323   2.56818   2.57250   2.57791
 Alpha virt. eigenvalues --    2.59139   2.60472   2.61885   2.63557   2.65001
 Alpha virt. eigenvalues --    2.65531   2.66121   2.67206   2.67803   2.68318
 Alpha virt. eigenvalues --    2.73281   2.74853   2.81867   2.84388   2.87426
 Alpha virt. eigenvalues --    2.89573   2.92836   2.94385   2.94684   2.97458
 Alpha virt. eigenvalues --    3.01529   3.05415   3.09900   3.31373   3.72997
 Alpha virt. eigenvalues --    3.76260   3.88414   3.92145   3.98959   4.00355
 Alpha virt. eigenvalues --    4.02658   4.03413   4.07060   4.08495   4.10966
 Alpha virt. eigenvalues --    4.13785   4.16198   4.17813   4.22175   4.25143
 Alpha virt. eigenvalues --    4.26154   4.30717   4.32829   4.37147   4.39648
 Alpha virt. eigenvalues --    4.44300   4.46819   4.48538   4.57535   4.60038
 Alpha virt. eigenvalues --    4.60980   4.67652
          Condensed to atoms (all electrons):
 Mulliken charges:
               1
     1  N   -0.759795
     2  C   -0.104810
     3  C    0.635237
     4  O   -0.532483
     5  C   -0.375565
     6  C    0.110423
     7  C   -0.208763
     8  C   -0.185889
     9  C   -0.128358
    10  C   -0.127199
    11  C   -0.125478
    12  H    0.448353
    13  H    0.207426
    14  H    0.196989
    15  H    0.179233
    16  H    0.167954
    17  H    0.134763
    18  H    0.156465
    19  H    0.157930
    20  H    0.159147
    21  H    0.408267
    22  H    0.397762
    23  N   -0.489314
    24  C   -0.019501
    25  C    0.613609
    26  O   -0.516298
    27  C   -0.314930
    28  C   -0.301768
    29  C   -0.140335
    30  H    0.199459
    31  H    0.169451
    32  H    0.191889
    33  H    0.179785
    34  H    0.174629
    35  H    0.173238
    36  H    0.173649
    37  N   -0.594066
    38  C   -0.067842
    39  C    0.667643
    40  O   -0.613782
    41  C   -0.276889
    42  C   -0.295719
    43  C   -0.290435
    44  C   -0.181393
    45  N   -0.786763
    46  O   -0.606989
    47  H    0.336303
    48  H    0.143423
    49  H    0.159858
    50  H    0.167492
    51  H    0.171188
    52  H    0.162708
    53  H    0.185194
    54  H    0.167823
    55  H    0.193376
    56  H    0.201348
    57  H    0.394545
    58  H    0.469708
    59  H    0.388096
 Sum of Mulliken charges =   1.00000
 Mulliken charges with hydrogens summed into heavy atoms:
               1
     1  N    0.494587
     2  C    0.102616
     3  C    0.635237
     4  O   -0.532483
     5  C    0.000656
     6  C    0.110423
     7  C   -0.040808
     8  C   -0.051126
     9  C    0.028107
    10  C    0.030731
    11  C    0.033669
    23  N   -0.489314
    24  C    0.179958
    25  C    0.613609
    26  O   -0.516298
    27  C    0.046410
    28  C    0.052647
    29  C    0.206552
    37  N   -0.257763
    38  C    0.075580
    39  C    0.667643
    40  O   -0.613782
    41  C    0.050461
    42  C    0.038177
    43  C    0.062583
    44  C    0.213330
    45  N    0.465586
    46  O   -0.606989
 Electronic spatial extent (au):  <R**2>=         407773.4177
 Charge=              1.0000 electrons
 Dipole moment (field-independent basis, Debye):
    X=            -37.5661    Y=             84.9576    Z=             53.7134  Tot=            107.3040
 Quadrupole moment (field-independent basis, Debye-Ang):
   XX=            179.4746   YY=           1405.7778   ZZ=            454.1403
   XY=           -696.5909   XZ=           -421.2569   YZ=            970.4523
 Traceless Quadrupole moment (field-independent basis, Debye-Ang):
   XX=           -500.3230   YY=            725.9802   ZZ=           -225.6573
   XY=           -696.5909   XZ=           -421.2569   YZ=            970.4523
 Octapole moment (field-independent basis, Debye-Ang**2):
  XXX=            273.4384  YYY=          21217.9456  ZZZ=           1458.6012  XYY=         -12016.7676
  XXY=           3568.9158  XXZ=           1919.0602  XZZ=          -3527.2622  YZZ=           8395.0508
  YYZ=          16348.8987  XYZ=          -7913.6396
 Hexadecapole moment (field-independent basis, Debye-Ang**3):
 XXXX=         -27740.2672 YYYY=         267658.0739 ZZZZ=         -51854.6908 XXXY=           2051.6450
 XXXZ=           5594.2713 YYYX=        -189394.7839 YYYZ=         251170.7047 ZZZX=          -9676.4096
 ZZZY=          29821.8191 XXYY=          60492.9886 XXZZ=           9060.5160 YYZZ=         139594.0764
 XXYZ=          38640.2363 YYXZ=        -137576.5223 ZZXY=         -67724.3340
 N-N= 2.893594439503D+03 E-N=-8.790820418354D+03  KE= 1.288400385905D+03
 Unable to Open any file for archive entry.
 1\1\GINC-SKL-144\SP\RB3LYP\6-31G(d)\C20H31N4O4(1+)\KENGMITH\25-May-202
 2\0\\# B3LYP/6-31G* empiricaldispersion=gd3 guess=read geom=check nosy
 mm integral(ultrafinegrid)\\Candidate Structure: Conf:472 Charge calc 
 in gas phase\\1,1\N,0,-9.7784958412,18.680316827,10.3608933851\C,0,-9.
 3863417278,19.8817301299,11.1845160673\C,0,-7.8507850405,19.9557775145
 ,10.9712155077\O,0,-7.3953156085,19.4138938579,9.9590664096\C,0,-9.910
 9763029,19.6928500228,12.6257018276\C,0,-11.3441576431,19.1987410349,1
 2.646366422\C,0,-11.6177428808,17.8307574296,12.7951917535\C,0,-12.408
 846463,20.0912647403,12.4590906387\C,0,-12.9351114022,17.3679754391,12
 .7643474673\C,0,-13.7248076554,19.6278339831,12.4282182732\C,0,-13.989
 7740761,18.2645789676,12.5808754611\H,0,-9.3753747879,17.8177326133,10
 .8641248925\H,0,-9.8600404163,20.7546819549,10.7208384451\H,0,-9.25893
 24902,18.9837691992,13.1414910176\H,0,-9.8471546055,20.6536191313,13.1
 39987201\H,0,-10.7944151701,17.133468467,12.9325943833\H,0,-12.2088314
 598,21.1558627546,12.352917754\H,0,-13.1364492678,16.3079101834,12.889
 2168447\H,0,-14.5420403121,20.3303354463,12.292933856\H,0,-15.01411998
 94,17.9044199543,12.5616235122\H,0,-9.2967982968,18.7349929763,9.45542
 03299\H,0,-10.7931233512,18.6020164335,10.2638156655\N,0,-7.0423855166
 ,20.5173851818,11.897081475\C,0,-5.5769986943,20.3568281102,11.7155746
 234\C,0,-5.1776594142,18.87724064,11.5975999195\O,0,-4.298810604,18.51
 8774253,10.8282483242\C,0,-4.9954396031,21.084854836,12.9407826918\C,0
 ,-6.0274178326,22.1890346186,13.213006495\C,0,-7.3663673972,21.4761016
 325,12.9770199494\H,0,-5.2642348333,20.8230677655,10.7774149232\H,0,-4
 .9372933607,20.3972415616,13.7928251837\H,0,-3.990570577,21.4631306675
 ,12.7427714593\H,0,-5.9586763353,22.6073077351,14.2204149678\H,0,-5.90
 70924742,23.0070124565,12.4941371587\H,0,-8.1633164057,22.1574792534,1
 2.6672273382\H,0,-7.6897352685,20.94510068,13.8795538216\N,0,-5.855792
 9137,18.0155959589,12.4317490051\C,0,-6.0120078846,16.6328284861,11.99
 89609072\C,0,-7.3953131953,16.4652382088,11.3338294702\O,0,-8.35816072
 65,17.0825169539,11.8634471484\C,0,-5.8174050118,15.6037333534,13.1208
 456077\C,0,-5.7581839954,14.156795538,12.5980320121\C,0,-4.539617802,1
 3.8519950933,11.6818653341\C,0,-4.8534550685,13.5446636423,10.21438921
 77\N,0,-5.3145791035,14.7500225267,9.4397115871\O,0,-7.4960047428,15.7
 158573947,10.3146400756\H,0,-6.6889976454,18.3883020967,12.8721089476\
 H,0,-5.2290397515,16.49525671,11.2550305822\H,0,-6.6350749881,15.70065
 02056,13.8454383678\H,0,-4.8877268776,15.8503080008,13.6476072414\H,0,
 -5.723001017,13.4876921997,13.463495398\H,0,-6.6912461154,13.917605810
 1,12.0730265678\H,0,-4.0171993908,12.9650294155,12.056716704\H,0,-3.80
 04781236,14.6638855278,11.7318343365\H,0,-3.9693893759,13.1435380978,9
 .7097023281\H,0,-5.6568650492,12.806552271,10.1351945379\H,0,-4.603957
 4522,15.4884922875,9.4460894495\H,0,-6.304302781,15.1984061811,9.85360
 40976\H,0,-5.480572903,14.5069853078,8.4595827506\\Version=ES64L-G16Re
 vC.01\HF=-1300.6326318\RMSD=2.072e-09\Dipole=0.0173601,-0.7772458,-1.1
 273432\Quadrupole=-371.9778618,539.7485131,-167.7706512,-517.8982541,-
 313.1941645,721.507533\PG=C01 [X(C20H31N4O4)]\\@
 The archive entry for this job was punched.


 BULLDOZER: SOMEONE WHO SLEEPS THROUGH SPEECHES.
 Job cpu time:       0 days  0 hours  1 minutes  3.1 seconds.
 Elapsed time:       0 days  0 hours  0 minutes 16.2 seconds.
 File lengths (MBytes):  RWF=    240 Int=      0 D2E=      0 Chk=     32 Scr=     16
 Normal termination of Gaussian 16 at Wed May 25 08:31:57 2022.
