 Entering Gaussian System, Link 0=/opt/software/Gaussian/g16-AVX2-C.01/g16/g16
 Input=charge-conf-3.com
 Output=charge-conf-3.log
 Initial command:
 /opt/software/Gaussian/g16-AVX2-C.01/g16/l1.exe "/mnt/gs18/scratch/users/kengmith/Gau-14409.inp" -scrdir="/mnt/gs18/scratch/users/kengmith/"
 Entering Link 1 = /opt/software/Gaussian/g16-AVX2-C.01/g16/l1.exe PID=     14419.
  
 Copyright (c) 1988-2019, Gaussian, Inc.  All Rights Reserved.
  
 This is part of the Gaussian(R) 16 program.  It is based on
 the Gaussian(R) 09 system (copyright 2009, Gaussian, Inc.),
 the Gaussian(R) 03 system (copyright 2003, Gaussian, Inc.),
 the Gaussian(R) 98 system (copyright 1998, Gaussian, Inc.),
 the Gaussian(R) 94 system (copyright 1995, Gaussian, Inc.),
 the Gaussian 92(TM) system (copyright 1992, Gaussian, Inc.),
 the Gaussian 90(TM) system (copyright 1990, Gaussian, Inc.),
 the Gaussian 88(TM) system (copyright 1988, Gaussian, Inc.),
 the Gaussian 86(TM) system (copyright 1986, Carnegie Mellon
 University), and the Gaussian 82(TM) system (copyright 1983,
 Carnegie Mellon University). Gaussian is a federally registered
 trademark of Gaussian, Inc.
  
 This software contains proprietary and confidential information,
 including trade secrets, belonging to Gaussian, Inc.
  
 This software is provided under written license and may be
 used, copied, transmitted, or stored only in accord with that
 written license.
  
 The following legend is applicable only to US Government
 contracts under FAR:
  
                    RESTRICTED RIGHTS LEGEND
  
 Use, reproduction and disclosure by the US Government is
 subject to restrictions as set forth in subparagraphs (a)
 and (c) of the Commercial Computer Software - Restricted
 Rights clause in FAR 52.227-19.
  
 Gaussian, Inc.
 340 Quinnipiac St., Bldg. 40, Wallingford CT 06492
  
  
 ---------------------------------------------------------------
 Warning -- This program may not be used in any manner that
 competes with the business of Gaussian, Inc. or will provide
 assistance to any competitor of Gaussian, Inc.  The licensee
 of this program is prohibited from giving any competitor of
 Gaussian, Inc. access to this program.  By using this program,
 the user acknowledges that Gaussian, Inc. is engaged in the
 business of creating and licensing software in the field of
 computational chemistry and represents and warrants to the
 licensee that it is not a competitor of Gaussian, Inc. and that
 it will not use this program in any manner prohibited above.
 ---------------------------------------------------------------
  

 Cite this work as:
 Gaussian 16, Revision C.01,
 M. J. Frisch, G. W. Trucks, H. B. Schlegel, G. E. Scuseria, 
 M. A. Robb, J. R. Cheeseman, G. Scalmani, V. Barone, 
 G. A. Petersson, H. Nakatsuji, X. Li, M. Caricato, A. V. Marenich, 
 J. Bloino, B. G. Janesko, R. Gomperts, B. Mennucci, H. P. Hratchian, 
 J. V. Ortiz, A. F. Izmaylov, J. L. Sonnenberg, D. Williams-Young, 
 F. Ding, F. Lipparini, F. Egidi, J. Goings, B. Peng, A. Petrone, 
 T. Henderson, D. Ranasinghe, V. G. Zakrzewski, J. Gao, N. Rega, 
 G. Zheng, W. Liang, M. Hada, M. Ehara, K. Toyota, R. Fukuda, 
 J. Hasegawa, M. Ishida, T. Nakajima, Y. Honda, O. Kitao, H. Nakai, 
 T. Vreven, K. Throssell, J. A. Montgomery, Jr., J. E. Peralta, 
 F. Ogliaro, M. J. Bearpark, J. J. Heyd, E. N. Brothers, K. N. Kudin, 
 V. N. Staroverov, T. A. Keith, R. Kobayashi, J. Normand, 
 K. Raghavachari, A. P. Rendell, J. C. Burant, S. S. Iyengar, 
 J. Tomasi, M. Cossi, J. M. Millam, M. Klene, C. Adamo, R. Cammi, 
 J. W. Ochterski, R. L. Martin, K. Morokuma, O. Farkas, 
 J. B. Foresman, and D. J. Fox, Gaussian, Inc., Wallingford CT, 2019.
 
 ******************************************
 Gaussian 16:  ES64L-G16RevC.01  3-Jul-2019
                25-May-2022 
 ******************************************
 %mem=8gb
 %nproc=4
 Will use up to    4 processors via shared memory.
 %chk=conf-3.chk
 ----------------------------------------------------------------------
 # B3LYP/6-31G* empiricaldispersion=gd3 guess=read geom=check nosymm in
 tegral(ultrafinegrid)
 ----------------------------------------------------------------------
 1/29=2,38=1,172=1/1;
 2/12=2,15=1,40=1/2;
 3/5=1,6=6,7=1,11=2,14=-4,25=1,30=1,74=-5,75=-5,116=-2,124=31/1,2,3;
 4/5=1/1;
 5/5=2,38=6/2;
 6/7=2,8=2,9=2,10=2,28=1/1;
 99/5=1,9=1/99;
 ----------------------------------------------------
 Candidate Structure: Conf:3 Charge calc in gas phase
 ----------------------------------------------------
 Structure from the checkpoint file:  "conf-3.chk"
 Charge =  1 Multiplicity = 1
 Redundant internal coordinates found in file.  (old form).
 N,0,-7.2310120419,17.1340640444,13.1978321945
 C,0,-6.6522435751,18.4633679295,13.5986270331
 C,0,-6.6080476628,19.4815049398,12.4322786246
 O,0,-7.2127770003,20.5337254285,12.5939479944
 C,0,-5.3352073,18.3106870067,14.3902155848
 C,0,-5.5265522787,17.4392918932,15.6133993138
 C,0,-5.1369982867,16.0922345776,15.6007852679
 C,0,-6.1622994992,17.9480179163,16.7552722182
 C,0,-5.3726751402,15.270901554,16.7071667965
 C,0,-6.3952751986,17.1312157616,17.8607214201
 C,0,-6.0025739665,15.7897102915,17.8384338606
 H,0,-7.1144488475,16.4501164415,13.9529587636
 H,0,-7.3939512851,18.899196,14.2697056782
 H,0,-4.540245711,17.9014836942,13.7610640098
 H,0,-5.0267170417,19.3225189359,14.6759880425
 H,0,-4.6240419046,15.6887606479,14.729326045
 H,0,-6.4663692004,18.9922342482,16.7790054536
 H,0,-5.0553528035,14.2321999943,16.6859483584
 H,0,-6.8789939643,17.5420357064,18.7422706169
 H,0,-6.1817562031,15.1554703239,18.7016669567
 H,0,-6.8693110391,16.7487985865,12.3103109511
 H,0,-8.283607113,17.250091617,12.9119944088
 N,0,-5.9091290668,19.220834936,11.2885708608
 C,0,-5.9815450025,20.2100730725,10.1774962049
 C,0,-7.4296283724,20.2629569095,9.6386851142
 O,0,-8.1032028433,21.2732860646,9.6756349328
 C,0,-4.9225770878,19.7079318651,9.1673130868
 C,0,-4.0225151379,18.7612608644,9.9806335671
 C,0,-5.005900512,18.1082380236,10.9584604419
 H,0,-5.760032916,21.204652677,10.568789017
 H,0,-5.3989980407,19.1606585277,8.3464852187
 H,0,-4.375145168,20.5423401855,8.722989799
 H,0,-3.5013902727,18.0269991426,9.3599278783
 H,0,-3.2728847197,19.3320201887,10.5397880614
 H,0,-4.5103112855,17.7173229959,11.8479510107
 H,0,-5.5633915147,17.2909834742,10.482780107
 N,0,-7.9157248469,19.0409259347,9.183661761
 C,0,-9.1963680869,18.5747704444,9.7284447866
 C,0,-8.8328656322,17.5544867384,10.8407336534
 O,0,-7.8934427494,16.7527582374,10.5814684564
 C,0,-10.0885187784,17.9412370605,8.6558141056
 C,0,-11.4608472866,17.5690376846,9.2321871546
 C,0,-12.3709942514,16.9066773833,8.1863750159
 C,0,-13.7263093924,16.5774392673,8.7929773519
 N,0,-14.6441703713,15.928767764,7.7467482863
 O,0,-9.4443430213,17.6515545734,11.9496598221
 H,0,-7.2556193521,18.2705816394,9.2503289882
 H,0,-9.7033010535,19.4311917782,10.1785497353
 H,0,-9.5870279486,17.0480586392,8.2596681917
 H,0,-10.2015397165,18.6521438192,7.8282082917
 H,0,-11.3328416845,16.8994748276,10.0919168416
 H,0,-11.9474932436,18.4751490217,9.6174342986
 H,0,-11.8961581699,15.9887846394,7.8119544633
 H,0,-12.5005075943,17.5828598131,7.3293053578
 H,0,-13.653762685,15.8605802584,9.6145468275
 H,0,-14.2546662848,17.467796609,9.1426938241
 H,0,-15.5696011482,15.6946140476,8.1266160246
 H,0,-14.2257613127,15.0641519343,7.3820552685
 H,0,-14.7830465363,16.5577775784,6.9462013293
 Recover connectivity data from disk.
                           ----------------------------
                           !    Current Parameters    !
                           ! (Angstroms and Degrees)  !
 --------------------------                            --------------------------
 ! Name  Definition              Value                                          !
 --------------------------------------------------------------------------------
 ! R1    R(1,2)                  1.5042                                         !
 ! R2    R(1,12)                 1.0255                                         !
 ! R3    R(1,21)                 1.0329                                         !
 ! R4    R(1,22)                 1.0969                                         !
 ! R5    R(2,3)                  1.5488                                         !
 ! R6    R(2,5)                  1.5442                                         !
 ! R7    R(2,13)                 1.0911                                         !
 ! R8    R(3,4)                  1.2243                                         !
 ! R9    R(3,23)                 1.3655                                         !
 ! R10   R(5,6)                  1.514                                          !
 ! R11   R(5,14)                 1.0933                                         !
 ! R12   R(5,15)                 1.0957                                         !
 ! R13   R(6,7)                  1.4023                                         !
 ! R14   R(6,8)                  1.4024                                         !
 ! R15   R(7,9)                  1.3979                                         !
 ! R16   R(7,16)                 1.0887                                         !
 ! R17   R(8,10)                 1.3941                                         !
 ! R18   R(8,17)                 1.0878                                         !
 ! R19   R(9,11)                 1.3949                                         !
 ! R20   R(9,18)                 1.0863                                         !
 ! R21   R(10,11)                1.398                                          !
 ! R22   R(10,19)                1.0862                                         !
 ! R23   R(11,20)                1.0861                                         !
 ! R24   R(23,24)                1.4894                                         !
 ! R25   R(23,29)                1.4706                                         !
 ! R26   R(24,25)                1.546                                          !
 ! R27   R(24,27)                1.5473                                         !
 ! R28   R(24,30)                1.0915                                         !
 ! R29   R(25,26)                1.2148                                         !
 ! R30   R(25,37)                1.3917                                         !
 ! R31   R(27,28)                1.5388                                         !
 ! R32   R(27,31)                1.0956                                         !
 ! R33   R(27,32)                1.0924                                         !
 ! R34   R(28,29)                1.5329                                         !
 ! R35   R(28,33)                1.0936                                         !
 ! R36   R(28,34)                1.0956                                         !
 ! R37   R(29,35)                1.0907                                         !
 ! R38   R(29,36)                1.0977                                         !
 ! R39   R(37,38)                1.4677                                         !
 ! R40   R(37,47)                1.0167                                         !
 ! R41   R(38,39)                1.5525                                         !
 ! R42   R(38,41)                1.5323                                         !
 ! R43   R(38,48)                1.0923                                         !
 ! R44   R(39,40)                1.2619                                         !
 ! R45   R(39,46)                1.2701                                         !
 ! R46   R(41,42)                1.5343                                         !
 ! R47   R(41,49)                1.0983                                         !
 ! R48   R(41,50)                1.0969                                         !
 ! R49   R(42,43)                1.5365                                         !
 ! R50   R(42,51)                1.0972                                         !
 ! R51   R(42,52)                1.0983                                         !
 ! R52   R(43,44)                1.5209                                         !
 ! R53   R(43,53)                1.0992                                         !
 ! R54   R(43,54)                1.0993                                         !
 ! R55   R(44,45)                1.5355                                         !
 ! R56   R(44,55)                1.0928                                         !
 ! R57   R(44,56)                1.0928                                         !
 ! R58   R(45,57)                1.0274                                         !
 ! R59   R(45,58)                1.0274                                         !
 ! R60   R(45,59)                1.0275                                         !
 ! A1    A(2,1,12)             110.4547                                         !
 ! A2    A(2,1,21)             115.0759                                         !
 ! A3    A(2,1,22)             110.1933                                         !
 ! A4    A(12,1,21)            110.1294                                         !
 ! A5    A(12,1,22)            111.8097                                         !
 ! A6    A(21,1,22)             98.7185                                         !
 ! A7    A(1,2,3)              113.0321                                         !
 ! A8    A(1,2,5)              112.1713                                         !
 ! A9    A(1,2,13)             104.7928                                         !
 ! A10   A(3,2,5)              115.2575                                         !
 ! A11   A(3,2,13)             102.7084                                         !
 ! A12   A(5,2,13)             107.698                                          !
 ! A13   A(2,3,4)              116.8342                                         !
 ! A14   A(2,3,23)             121.3229                                         !
 ! A15   A(4,3,23)             121.8355                                         !
 ! A16   A(2,5,6)              111.3017                                         !
 ! A17   A(2,5,14)             111.2343                                         !
 ! A18   A(2,5,15)             106.4103                                         !
 ! A19   A(6,5,14)             109.963                                          !
 ! A20   A(6,5,15)             110.8772                                         !
 ! A21   A(14,5,15)            106.9179                                         !
 ! A22   A(5,6,7)              120.698                                          !
 ! A23   A(5,6,8)              120.4195                                         !
 ! A24   A(7,6,8)              118.7966                                         !
 ! A25   A(6,7,9)              120.6926                                         !
 ! A26   A(6,7,16)             119.6083                                         !
 ! A27   A(9,7,16)             119.6823                                         !
 ! A28   A(6,8,10)             120.5874                                         !
 ! A29   A(6,8,17)             119.5159                                         !
 ! A30   A(10,8,17)            119.894                                          !
 ! A31   A(7,9,11)             119.9652                                         !
 ! A32   A(7,9,18)             119.8073                                         !
 ! A33   A(11,9,18)            120.2248                                         !
 ! A34   A(8,10,11)            120.1756                                         !
 ! A35   A(8,10,19)            119.76                                           !
 ! A36   A(11,10,19)           120.0637                                         !
 ! A37   A(9,11,10)            119.7814                                         !
 ! A38   A(9,11,20)            120.1266                                         !
 ! A39   A(10,11,20)           120.0908                                         !
 ! A40   A(3,23,24)            118.2392                                         !
 ! A41   A(3,23,29)            130.3023                                         !
 ! A42   A(24,23,29)           111.4016                                         !
 ! A43   A(23,24,25)           109.1629                                         !
 ! A44   A(23,24,27)           103.7812                                         !
 ! A45   A(23,24,30)           109.1421                                         !
 ! A46   A(25,24,27)           115.1272                                         !
 ! A47   A(25,24,30)           106.491                                          !
 ! A48   A(27,24,30)           113.0089                                         !
 ! A49   A(24,25,26)           122.4928                                         !
 ! A50   A(24,25,37)           114.2735                                         !
 ! A51   A(26,25,37)           123.1318                                         !
 ! A52   A(24,27,28)           104.768                                          !
 ! A53   A(24,27,31)           110.7108                                         !
 ! A54   A(24,27,32)           111.1396                                         !
 ! A55   A(28,27,31)           110.0629                                         !
 ! A56   A(28,27,32)           113.0654                                         !
 ! A57   A(31,27,32)           107.1421                                         !
 ! A58   A(27,28,29)           102.9448                                         !
 ! A59   A(27,28,33)           113.0663                                         !
 ! A60   A(27,28,34)           110.4548                                         !
 ! A61   A(29,28,33)           112.4412                                         !
 ! A62   A(29,28,34)           109.5919                                         !
 ! A63   A(33,28,34)           108.2642                                         !
 ! A64   A(23,29,28)           102.4105                                         !
 ! A65   A(23,29,35)           111.5411                                         !
 ! A66   A(23,29,36)           110.4023                                         !
 ! A67   A(28,29,35)           112.4218                                         !
 ! A68   A(28,29,36)           111.5035                                         !
 ! A69   A(35,29,36)           108.5012                                         !
 ! A70   A(25,37,38)           117.5364                                         !
 ! A71   A(25,37,47)           114.6535                                         !
 ! A72   A(38,37,47)           107.5499                                         !
 ! A73   A(37,38,39)           105.6857                                         !
 ! A74   A(37,38,41)           112.3039                                         !
 ! A75   A(37,38,48)           107.9924                                         !
 ! A76   A(39,38,41)           111.4776                                         !
 ! A77   A(39,38,48)           109.1908                                         !
 ! A78   A(41,38,48)           110.0252                                         !
 ! A79   A(38,39,40)           116.3991                                         !
 ! A80   A(38,39,46)           117.5547                                         !
 ! A81   A(40,39,46)           125.8983                                         !
 ! A82   A(38,41,42)           110.9841                                         !
 ! A83   A(38,41,49)           108.8378                                         !
 ! A84   A(38,41,50)           108.6755                                         !
 ! A85   A(42,41,49)           110.2816                                         !
 ! A86   A(42,41,50)           110.3963                                         !
 ! A87   A(49,41,50)           107.5773                                         !
 ! A88   A(41,42,43)           112.2537                                         !
 ! A89   A(41,42,51)           109.7579                                         !
 ! A90   A(41,42,52)           109.1443                                         !
 ! A91   A(43,42,51)           109.8388                                         !
 ! A92   A(43,42,52)           109.3861                                         !
 ! A93   A(51,42,52)           106.2784                                         !
 ! A94   A(42,43,44)           110.469                                          !
 ! A95   A(42,43,53)           109.6303                                         !
 ! A96   A(42,43,54)           109.5895                                         !
 ! A97   A(44,43,53)           109.8794                                         !
 ! A98   A(44,43,54)           109.8223                                         !
 ! A99   A(53,43,54)           107.3951                                         !
 ! A100  A(43,44,45)           110.6317                                         !
 ! A101  A(43,44,55)           112.5012                                         !
 ! A102  A(43,44,56)           112.4643                                         !
 ! A103  A(45,44,55)           105.9511                                         !
 ! A104  A(45,44,56)           105.8563                                         !
 ! A105  A(55,44,56)           109.025                                          !
 ! A106  A(44,45,57)           112.5061                                         !
 ! A107  A(44,45,58)           110.7272                                         !
 ! A108  A(44,45,59)           110.6725                                         !
 ! A109  A(57,45,58)           107.8343                                         !
 ! A110  A(57,45,59)           107.8085                                         !
 ! A111  A(58,45,59)           107.0762                                         !
 ! D1    D(12,1,2,3)           171.5844                                         !
 ! D2    D(12,1,2,5)            39.2147                                         !
 ! D3    D(12,1,2,13)          -77.3456                                         !
 ! D4    D(21,1,2,3)            46.1306                                         !
 ! D5    D(21,1,2,5)           -86.2392                                         !
 ! D6    D(21,1,2,13)          157.2006                                         !
 ! D7    D(22,1,2,3)           -64.382                                          !
 ! D8    D(22,1,2,5)           163.2482                                         !
 ! D9    D(22,1,2,13)           46.688                                          !
 ! D10   D(1,2,3,4)            121.4137                                         !
 ! D11   D(1,2,3,23)           -59.557                                          !
 ! D12   D(5,2,3,4)           -107.7435                                         !
 ! D13   D(5,2,3,23)            71.2859                                         !
 ! D14   D(13,2,3,4)             9.0625                                         !
 ! D15   D(13,2,3,23)         -171.9081                                         !
 ! D16   D(1,2,5,6)            -56.27                                           !
 ! D17   D(1,2,5,14)            66.7307                                         !
 ! D18   D(1,2,5,15)          -177.1724                                         !
 ! D19   D(3,2,5,6)            172.4756                                         !
 ! D20   D(3,2,5,14)           -64.5238                                         !
 ! D21   D(3,2,5,15)            51.5732                                         !
 ! D22   D(13,2,5,6)            58.5295                                         !
 ! D23   D(13,2,5,14)         -178.4699                                         !
 ! D24   D(13,2,5,15)          -62.3729                                         !
 ! D25   D(2,3,23,24)          176.2905                                         !
 ! D26   D(2,3,23,29)           -6.7152                                         !
 ! D27   D(4,3,23,24)           -4.729                                          !
 ! D28   D(4,3,23,29)          172.2653                                         !
 ! D29   D(2,5,6,7)            100.1981                                         !
 ! D30   D(2,5,6,8)            -76.3901                                         !
 ! D31   D(14,5,6,7)           -23.5282                                         !
 ! D32   D(14,5,6,8)           159.8836                                         !
 ! D33   D(15,5,6,7)          -141.5561                                         !
 ! D34   D(15,5,6,8)            41.8558                                         !
 ! D35   D(5,6,7,9)           -176.877                                          !
 ! D36   D(5,6,7,16)             4.6175                                         !
 ! D37   D(8,6,7,9)             -0.2344                                         !
 ! D38   D(8,6,7,16)          -178.7398                                         !
 ! D39   D(5,6,8,10)           177.0395                                         !
 ! D40   D(5,6,8,17)            -3.5576                                         !
 ! D41   D(7,6,8,10)             0.3872                                         !
 ! D42   D(7,6,8,17)           179.7901                                         !
 ! D43   D(6,7,9,11)             0.0603                                         !
 ! D44   D(6,7,9,18)          -179.3473                                         !
 ! D45   D(16,7,9,11)          178.5646                                         !
 ! D46   D(16,7,9,18)           -0.843                                          !
 ! D47   D(6,8,10,11)           -0.3667                                         !
 ! D48   D(6,8,10,19)          179.3323                                         !
 ! D49   D(17,8,10,11)        -179.7673                                         !
 ! D50   D(17,8,10,19)          -0.0683                                         !
 ! D51   D(7,9,11,10)           -0.0339                                         !
 ! D52   D(7,9,11,20)         -179.6425                                         !
 ! D53   D(18,9,11,10)         179.3713                                         !
 ! D54   D(18,9,11,20)          -0.2374                                         !
 ! D55   D(8,10,11,9)            0.1862                                         !
 ! D56   D(8,10,11,20)         179.7951                                         !
 ! D57   D(19,10,11,9)        -179.5118                                         !
 ! D58   D(19,10,11,20)          0.097                                          !
 ! D59   D(3,23,24,25)         -65.1764                                         !
 ! D60   D(3,23,24,27)         171.5869                                         !
 ! D61   D(3,23,24,30)          50.8464                                         !
 ! D62   D(29,23,24,25)        117.2853                                         !
 ! D63   D(29,23,24,27)         -5.9514                                         !
 ! D64   D(29,23,24,30)       -126.692                                          !
 ! D65   D(3,23,29,28)        -149.5893                                         !
 ! D66   D(3,23,29,35)         -29.1425                                         !
 ! D67   D(3,23,29,36)          91.5751                                         !
 ! D68   D(24,23,29,28)         27.5667                                         !
 ! D69   D(24,23,29,35)        148.0136                                         !
 ! D70   D(24,23,29,36)        -91.2689                                         !
 ! D71   D(23,24,25,26)        118.5116                                         !
 ! D72   D(23,24,25,37)        -57.9235                                         !
 ! D73   D(27,24,25,26)       -125.2865                                         !
 ! D74   D(27,24,25,37)         58.2784                                         !
 ! D75   D(30,24,25,26)          0.8067                                         !
 ! D76   D(30,24,25,37)       -175.6284                                         !
 ! D77   D(23,24,27,28)        -18.2144                                         !
 ! D78   D(23,24,27,31)        100.4025                                         !
 ! D79   D(23,24,27,32)       -140.6485                                         !
 ! D80   D(25,24,27,28)       -137.4466                                         !
 ! D81   D(25,24,27,31)        -18.8297                                         !
 ! D82   D(25,24,27,32)        100.1193                                         !
 ! D83   D(30,24,27,28)         99.883                                          !
 ! D84   D(30,24,27,31)       -141.5002                                         !
 ! D85   D(30,24,27,32)        -22.5511                                         !
 ! D86   D(24,25,37,38)        127.0491                                         !
 ! D87   D(24,25,37,47)         -0.7909                                         !
 ! D88   D(26,25,37,38)        -49.3603                                         !
 ! D89   D(26,25,37,47)       -177.2002                                         !
 ! D90   D(24,27,28,29)         34.7401                                         !
 ! D91   D(24,27,28,33)        156.3146                                         !
 ! D92   D(24,27,28,34)        -82.1929                                         !
 ! D93   D(31,27,28,29)        -84.314                                          !
 ! D94   D(31,27,28,33)         37.2604                                         !
 ! D95   D(31,27,28,34)        158.7529                                         !
 ! D96   D(32,27,28,29)        155.913                                          !
 ! D97   D(32,27,28,33)        -82.5126                                         !
 ! D98   D(32,27,28,34)         38.9799                                         !
 ! D99   D(27,28,29,23)        -37.5912                                         !
 ! D100  D(27,28,29,35)       -157.4259                                         !
 ! D101  D(27,28,29,36)         80.466                                          !
 ! D102  D(33,28,29,23)       -159.5888                                         !
 ! D103  D(33,28,29,35)         80.5766                                         !
 ! D104  D(33,28,29,36)        -41.5315                                         !
 ! D105  D(34,28,29,23)         79.9527                                         !
 ! D106  D(34,28,29,35)        -39.882                                          !
 ! D107  D(34,28,29,36)       -161.9901                                         !
 ! D108  D(25,37,38,39)        -99.1704                                         !
 ! D109  D(25,37,38,41)        139.0773                                         !
 ! D110  D(25,37,38,48)         17.5853                                         !
 ! D111  D(47,37,38,39)         31.9978                                         !
 ! D112  D(47,37,38,41)        -89.7545                                         !
 ! D113  D(47,37,38,48)        148.7535                                         !
 ! D114  D(37,38,39,40)        -41.6637                                         !
 ! D115  D(37,38,39,46)        134.1792                                         !
 ! D116  D(41,38,39,40)         80.6196                                         !
 ! D117  D(41,38,39,46)       -103.5375                                         !
 ! D118  D(48,38,39,40)       -157.6054                                         !
 ! D119  D(48,38,39,46)         18.2374                                         !
 ! D120  D(37,38,41,42)       -175.3868                                         !
 ! D121  D(37,38,41,49)         63.0715                                         !
 ! D122  D(37,38,41,50)        -53.8092                                         !
 ! D123  D(39,38,41,42)         66.2258                                         !
 ! D124  D(39,38,41,49)        -55.3159                                         !
 ! D125  D(39,38,41,50)       -172.1965                                         !
 ! D126  D(48,38,41,42)        -55.0647                                         !
 ! D127  D(48,38,41,49)       -176.6064                                         !
 ! D128  D(48,38,41,50)         66.513                                          !
 ! D129  D(38,41,42,43)       -178.9369                                         !
 ! D130  D(38,41,42,51)        -56.4844                                         !
 ! D131  D(38,41,42,52)         59.6174                                         !
 ! D132  D(49,41,42,43)        -58.245                                          !
 ! D133  D(49,41,42,51)         64.2075                                         !
 ! D134  D(49,41,42,52)       -179.6906                                         !
 ! D135  D(50,41,42,43)         60.4989                                         !
 ! D136  D(50,41,42,51)       -177.0486                                         !
 ! D137  D(50,41,42,52)        -60.9468                                         !
 ! D138  D(41,42,43,44)       -179.0077                                         !
 ! D139  D(41,42,43,53)         59.7611                                         !
 ! D140  D(41,42,43,54)        -57.8743                                         !
 ! D141  D(51,42,43,44)         58.5856                                         !
 ! D142  D(51,42,43,53)        -62.6456                                         !
 ! D143  D(51,42,43,54)        179.719                                          !
 ! D144  D(52,42,43,44)        -57.7007                                         !
 ! D145  D(52,42,43,53)       -178.9318                                         !
 ! D146  D(52,42,43,54)         63.4328                                         !
 ! D147  D(42,43,44,45)        179.3997                                         !
 ! D148  D(42,43,44,55)        -62.3184                                         !
 ! D149  D(42,43,44,56)         61.2614                                         !
 ! D150  D(53,43,44,45)        -59.5171                                         !
 ! D151  D(53,43,44,55)         58.7649                                         !
 ! D152  D(53,43,44,56)       -177.6554                                         !
 ! D153  D(54,43,44,45)         58.4046                                         !
 ! D154  D(54,43,44,55)        176.6866                                         !
 ! D155  D(54,43,44,56)        -59.7337                                         !
 ! D156  D(43,44,45,57)       -179.9626                                         !
 ! D157  D(43,44,45,58)         59.2905                                         !
 ! D158  D(43,44,45,59)        -59.2874                                         !
 ! D159  D(55,44,45,57)         57.8345                                         !
 ! D160  D(55,44,45,58)        -62.9125                                         !
 ! D161  D(55,44,45,59)        178.5097                                         !
 ! D162  D(56,44,45,57)        -57.8636                                         !
 ! D163  D(56,44,45,58)       -178.6105                                         !
 ! D164  D(56,44,45,59)         62.8116                                         !
 --------------------------------------------------------------------------------
 Symmetry turned off by external request.
 Stoichiometry    C20H31N4O4(1+)
 Framework group  C1[X(C20H31N4O4)]
 Deg. of freedom   171
 Full point group                 C1      NOp   1
                          Input orientation:                          
 ---------------------------------------------------------------------
 Center     Atomic      Atomic             Coordinates (Angstroms)
 Number     Number       Type             X           Y           Z
 ---------------------------------------------------------------------
      1          7           0       -7.231012   17.134064   13.197832
      2          6           0       -6.652244   18.463368   13.598627
      3          6           0       -6.608048   19.481505   12.432279
      4          8           0       -7.212777   20.533725   12.593948
      5          6           0       -5.335207   18.310687   14.390216
      6          6           0       -5.526552   17.439292   15.613399
      7          6           0       -5.136998   16.092235   15.600785
      8          6           0       -6.162299   17.948018   16.755272
      9          6           0       -5.372675   15.270902   16.707167
     10          6           0       -6.395275   17.131216   17.860721
     11          6           0       -6.002574   15.789710   17.838434
     12          1           0       -7.114449   16.450116   13.952959
     13          1           0       -7.393951   18.899196   14.269706
     14          1           0       -4.540246   17.901484   13.761064
     15          1           0       -5.026717   19.322519   14.675988
     16          1           0       -4.624042   15.688761   14.729326
     17          1           0       -6.466369   18.992234   16.779005
     18          1           0       -5.055353   14.232200   16.685948
     19          1           0       -6.878994   17.542036   18.742271
     20          1           0       -6.181756   15.155470   18.701667
     21          1           0       -6.869311   16.748799   12.310311
     22          1           0       -8.283607   17.250092   12.911994
     23          7           0       -5.909129   19.220835   11.288571
     24          6           0       -5.981545   20.210073   10.177496
     25          6           0       -7.429628   20.262957    9.638685
     26          8           0       -8.103203   21.273286    9.675635
     27          6           0       -4.922577   19.707932    9.167313
     28          6           0       -4.022515   18.761261    9.980634
     29          6           0       -5.005901   18.108238   10.958460
     30          1           0       -5.760033   21.204653   10.568789
     31          1           0       -5.398998   19.160659    8.346485
     32          1           0       -4.375145   20.542340    8.722990
     33          1           0       -3.501390   18.026999    9.359928
     34          1           0       -3.272885   19.332020   10.539788
     35          1           0       -4.510311   17.717323   11.847951
     36          1           0       -5.563392   17.290983   10.482780
     37          7           0       -7.915725   19.040926    9.183662
     38          6           0       -9.196368   18.574770    9.728445
     39          6           0       -8.832866   17.554487   10.840734
     40          8           0       -7.893443   16.752758   10.581468
     41          6           0      -10.088519   17.941237    8.655814
     42          6           0      -11.460847   17.569038    9.232187
     43          6           0      -12.370994   16.906677    8.186375
     44          6           0      -13.726309   16.577439    8.792977
     45          7           0      -14.644170   15.928768    7.746748
     46          8           0       -9.444343   17.651555   11.949660
     47          1           0       -7.255619   18.270582    9.250329
     48          1           0       -9.703301   19.431192   10.178550
     49          1           0       -9.587028   17.048059    8.259668
     50          1           0      -10.201540   18.652144    7.828208
     51          1           0      -11.332842   16.899475   10.091917
     52          1           0      -11.947493   18.475149    9.617434
     53          1           0      -11.896158   15.988785    7.811954
     54          1           0      -12.500508   17.582860    7.329305
     55          1           0      -13.653763   15.860580    9.614547
     56          1           0      -14.254666   17.467797    9.142694
     57          1           0      -15.569601   15.694614    8.126616
     58          1           0      -14.225761   15.064152    7.382055
     59          1           0      -14.783047   16.557778    6.946201
 ---------------------------------------------------------------------
 Rotational constants (GHZ):           0.2201157           0.0919940           0.0723507
 Standard basis: 6-31G(d) (6D, 7F)
   482 basis functions,   908 primitive gaussians,   482 cartesian basis functions
   105 alpha electrons      105 beta electrons
       nuclear repulsion energy      2776.1403498476 Hartrees.
 NAtoms=   59 NActive=   59 NUniq=   59 SFac= 1.00D+00 NAtFMM=   60 NAOKFM=F Big=F
 Integral buffers will be    131072 words long.
 Raffenetti 2 integral format.
 Two-electron integral symmetry is turned off.
 Nuclear repulsion after empirical dispersion term =     2776.0663388403 Hartrees.
 One-electron integrals computed using PRISM.
 NBasis=   482 RedAO= T EigKep=  4.72D-04  NBF=   482
 NBsUse=   482 1.00D-06 EigRej= -1.00D+00 NBFU=   482
 Initial guess from the checkpoint file:  "conf-3.chk"
 B after Tr=     0.000000    0.000000    0.000000
         Rot=    1.000000    0.000000    0.000000    0.000000 Ang=   0.00 deg.
 Requested convergence on RMS density matrix=1.00D-08 within 128 cycles.
 Requested convergence on MAX density matrix=1.00D-06.
 Requested convergence on             energy=1.00D-06.
 No special actions if energy rises.
 SCF Done:  E(RB3LYP) =  -1300.56305397     A.U. after    1 cycles
            NFock=  1  Conv=0.90D-08     -V/T= 2.0095

 **********************************************************************

            Population analysis using the SCF Density.

 **********************************************************************

 Alpha  occ. eigenvalues --  -19.18522 -19.17351 -19.17293 -19.16808 -14.65077
 Alpha  occ. eigenvalues --  -14.49753 -14.44150 -14.40145 -10.41787 -10.36460
 Alpha  occ. eigenvalues --  -10.34485 -10.34035 -10.34025 -10.33429 -10.30256
 Alpha  occ. eigenvalues --  -10.29772 -10.29501 -10.28816 -10.28520 -10.28037
 Alpha  occ. eigenvalues --  -10.27114 -10.27059 -10.26753 -10.26716 -10.26656
 Alpha  occ. eigenvalues --  -10.26578 -10.26451 -10.26438  -1.18900  -1.11335
 Alpha  occ. eigenvalues --   -1.10520  -1.08827  -1.05117  -1.01813  -1.01212
 Alpha  occ. eigenvalues --   -0.97220  -0.95164  -0.93591  -0.87996  -0.87505
 Alpha  occ. eigenvalues --   -0.86496  -0.82949  -0.82191  -0.81320  -0.80819
 Alpha  occ. eigenvalues --   -0.77552  -0.77515  -0.74893  -0.73399  -0.71615
 Alpha  occ. eigenvalues --   -0.69489  -0.68411  -0.67691  -0.66468  -0.66112
 Alpha  occ. eigenvalues --   -0.65788  -0.64413  -0.62797  -0.62268  -0.61217
 Alpha  occ. eigenvalues --   -0.60026  -0.59543  -0.58476  -0.57682  -0.56374
 Alpha  occ. eigenvalues --   -0.55585  -0.54913  -0.53837  -0.53361  -0.52940
 Alpha  occ. eigenvalues --   -0.52224  -0.51376  -0.51173  -0.50582  -0.49913
 Alpha  occ. eigenvalues --   -0.49717  -0.49496  -0.49098  -0.48400  -0.47717
 Alpha  occ. eigenvalues --   -0.47511  -0.47389  -0.46441  -0.45951  -0.45235
 Alpha  occ. eigenvalues --   -0.44597  -0.44386  -0.43894  -0.43237  -0.43067
 Alpha  occ. eigenvalues --   -0.42669  -0.42045  -0.41690  -0.41587  -0.41284
 Alpha  occ. eigenvalues --   -0.40289  -0.33975  -0.33064  -0.32876  -0.32850
 Alpha  occ. eigenvalues --   -0.32621  -0.31763  -0.31323  -0.29593  -0.29250
 Alpha virt. eigenvalues --   -0.15504  -0.08800  -0.08752  -0.08534  -0.08149
 Alpha virt. eigenvalues --   -0.06344  -0.06284  -0.05116  -0.03112  -0.02647
 Alpha virt. eigenvalues --   -0.01308  -0.00608   0.00201   0.00846   0.01960
 Alpha virt. eigenvalues --    0.03230   0.03418   0.03734   0.04240   0.04497
 Alpha virt. eigenvalues --    0.05197   0.05595   0.06621   0.06747   0.07012
 Alpha virt. eigenvalues --    0.07711   0.08014   0.08157   0.08654   0.08679
 Alpha virt. eigenvalues --    0.09060   0.09648   0.10394   0.10425   0.10805
 Alpha virt. eigenvalues --    0.11231   0.11460   0.11649   0.12266   0.12302
 Alpha virt. eigenvalues --    0.13800   0.13942   0.14602   0.15386   0.16604
 Alpha virt. eigenvalues --    0.16869   0.17921   0.18082   0.19170   0.19908
 Alpha virt. eigenvalues --    0.20684   0.21415   0.22068   0.23156   0.23697
 Alpha virt. eigenvalues --    0.24817   0.25642   0.27395   0.27939   0.29017
 Alpha virt. eigenvalues --    0.31067   0.33267   0.33989   0.34744   0.36483
 Alpha virt. eigenvalues --    0.36548   0.37389   0.38437   0.38951   0.39250
 Alpha virt. eigenvalues --    0.41596   0.42748   0.43572   0.45227   0.45758
 Alpha virt. eigenvalues --    0.46153   0.46430   0.47421   0.47636   0.47976
 Alpha virt. eigenvalues --    0.48186   0.48802   0.49387   0.50220   0.50989
 Alpha virt. eigenvalues --    0.51423   0.51607   0.52126   0.52668   0.52996
 Alpha virt. eigenvalues --    0.53560   0.53856   0.54408   0.54519   0.55251
 Alpha virt. eigenvalues --    0.55664   0.55999   0.56582   0.56925   0.57332
 Alpha virt. eigenvalues --    0.57957   0.58541   0.59556   0.60018   0.60369
 Alpha virt. eigenvalues --    0.60738   0.62351   0.62931   0.63367   0.63672
 Alpha virt. eigenvalues --    0.63823   0.64698   0.65412   0.65742   0.66326
 Alpha virt. eigenvalues --    0.67433   0.68372   0.68795   0.69828   0.71097
 Alpha virt. eigenvalues --    0.71635   0.72203   0.72917   0.73972   0.74417
 Alpha virt. eigenvalues --    0.74812   0.74993   0.75746   0.76102   0.76435
 Alpha virt. eigenvalues --    0.76944   0.77486   0.78037   0.78108   0.78752
 Alpha virt. eigenvalues --    0.79113   0.79288   0.79552   0.80673   0.80997
 Alpha virt. eigenvalues --    0.81328   0.81587   0.81988   0.82504   0.83580
 Alpha virt. eigenvalues --    0.84268   0.84635   0.85415   0.85620   0.86325
 Alpha virt. eigenvalues --    0.86683   0.87080   0.87948   0.88207   0.89733
 Alpha virt. eigenvalues --    0.89925   0.90320   0.91002   0.92110   0.92508
 Alpha virt. eigenvalues --    0.94092   0.94659   0.95407   0.96192   0.98097
 Alpha virt. eigenvalues --    0.98933   0.99707   1.01525   1.02797   1.03325
 Alpha virt. eigenvalues --    1.03912   1.04903   1.05496   1.07367   1.07639
 Alpha virt. eigenvalues --    1.08965   1.09268   1.09990   1.10756   1.10823
 Alpha virt. eigenvalues --    1.12766   1.13396   1.15978   1.16372   1.17976
 Alpha virt. eigenvalues --    1.18619   1.18889   1.23164   1.23252   1.25588
 Alpha virt. eigenvalues --    1.25769   1.26243   1.27102   1.28771   1.30762
 Alpha virt. eigenvalues --    1.31320   1.33183   1.33775   1.34775   1.35433
 Alpha virt. eigenvalues --    1.37043   1.38080   1.38898   1.39388   1.40839
 Alpha virt. eigenvalues --    1.40898   1.41644   1.43532   1.44274   1.45489
 Alpha virt. eigenvalues --    1.45799   1.46700   1.48174   1.48839   1.49796
 Alpha virt. eigenvalues --    1.53354   1.55258   1.57216   1.58721   1.59356
 Alpha virt. eigenvalues --    1.61808   1.62137   1.63800   1.65320   1.66136
 Alpha virt. eigenvalues --    1.67158   1.67379   1.68491   1.70536   1.71037
 Alpha virt. eigenvalues --    1.71744   1.72261   1.73134   1.74047   1.74729
 Alpha virt. eigenvalues --    1.75500   1.76423   1.77158   1.77705   1.78287
 Alpha virt. eigenvalues --    1.78457   1.79174   1.80508   1.81009   1.81158
 Alpha virt. eigenvalues --    1.82246   1.82532   1.83059   1.83464   1.84832
 Alpha virt. eigenvalues --    1.84872   1.85252   1.85629   1.87453   1.88440
 Alpha virt. eigenvalues --    1.89478   1.89627   1.89904   1.90858   1.91139
 Alpha virt. eigenvalues --    1.92290   1.93659   1.94074   1.95794   1.96325
 Alpha virt. eigenvalues --    1.96881   1.97783   1.98242   1.98999   1.99878
 Alpha virt. eigenvalues --    2.01145   2.01619   2.02777   2.04198   2.05405
 Alpha virt. eigenvalues --    2.06390   2.06539   2.06727   2.07329   2.08217
 Alpha virt. eigenvalues --    2.09149   2.11275   2.12111   2.12593   2.14530
 Alpha virt. eigenvalues --    2.15014   2.16066   2.17087   2.17794   2.19696
 Alpha virt. eigenvalues --    2.20376   2.21538   2.21851   2.23148   2.25099
 Alpha virt. eigenvalues --    2.27248   2.28843   2.29341   2.29870   2.30704
 Alpha virt. eigenvalues --    2.31236   2.32563   2.34080   2.36365   2.37651
 Alpha virt. eigenvalues --    2.38152   2.39458   2.40566   2.41618   2.42981
 Alpha virt. eigenvalues --    2.45586   2.47419   2.48385   2.49463   2.50343
 Alpha virt. eigenvalues --    2.50825   2.52144   2.52663   2.54668   2.56977
 Alpha virt. eigenvalues --    2.58096   2.58630   2.59752   2.60984   2.62579
 Alpha virt. eigenvalues --    2.63451   2.64482   2.64837   2.65024   2.66571
 Alpha virt. eigenvalues --    2.67527   2.69796   2.70028   2.73281   2.75355
 Alpha virt. eigenvalues --    2.78008   2.78344   2.84263   2.88937   2.91389
 Alpha virt. eigenvalues --    2.93730   2.94480   2.94891   2.96625   2.97470
 Alpha virt. eigenvalues --    3.03057   3.09356   3.12455   3.32948   3.54057
 Alpha virt. eigenvalues --    3.78696   3.90009   3.96534   4.00504   4.01894
 Alpha virt. eigenvalues --    4.03360   4.04614   4.07056   4.10617   4.13312
 Alpha virt. eigenvalues --    4.14190   4.18582   4.19931   4.22741   4.26202
 Alpha virt. eigenvalues --    4.27241   4.29051   4.33612   4.34589   4.40047
 Alpha virt. eigenvalues --    4.47666   4.49522   4.56332   4.61835   4.62489
 Alpha virt. eigenvalues --    4.63174   4.67124
          Condensed to atoms (all electrons):
 Mulliken charges:
               1
     1  N   -0.793224
     2  C   -0.086373
     3  C    0.595381
     4  O   -0.483122
     5  C   -0.382173
     6  C    0.140944
     7  C   -0.212015
     8  C   -0.177894
     9  C   -0.123810
    10  C   -0.125715
    11  C   -0.126772
    12  H    0.379003
    13  H    0.215956
    14  H    0.171695
    15  H    0.197216
    16  H    0.132169
    17  H    0.149302
    18  H    0.150290
    19  H    0.154181
    20  H    0.152627
    21  H    0.408237
    22  H    0.431971
    23  N   -0.453681
    24  C   -0.031566
    25  C    0.583119
    26  O   -0.471375
    27  C   -0.328731
    28  C   -0.284507
    29  C   -0.183569
    30  H    0.194196
    31  H    0.164714
    32  H    0.180212
    33  H    0.163260
    34  H    0.164593
    35  H    0.152631
    36  H    0.190030
    37  N   -0.601124
    38  C   -0.034813
    39  C    0.581696
    40  O   -0.608634
    41  C   -0.270375
    42  C   -0.281897
    43  C   -0.291012
    44  C   -0.207397
    45  N   -0.732075
    46  O   -0.616502
    47  H    0.335473
    48  H    0.184504
    49  H    0.149363
    50  H    0.157432
    51  H    0.179337
    52  H    0.164413
    53  H    0.167896
    54  H    0.167614
    55  H    0.231789
    56  H    0.231747
    57  H    0.430820
    58  H    0.426949
    59  H    0.427598
 Sum of Mulliken charges =   1.00000
 Mulliken charges with hydrogens summed into heavy atoms:
               1
     1  N    0.425986
     2  C    0.129583
     3  C    0.595381
     4  O   -0.483122
     5  C   -0.013262
     6  C    0.140944
     7  C   -0.079846
     8  C   -0.028592
     9  C    0.026479
    10  C    0.028466
    11  C    0.025855
    23  N   -0.453681
    24  C    0.162630
    25  C    0.583119
    26  O   -0.471375
    27  C    0.016195
    28  C    0.043346
    29  C    0.159092
    37  N   -0.265651
    38  C    0.149691
    39  C    0.581696
    40  O   -0.608634
    41  C    0.036420
    42  C    0.061853
    43  C    0.044498
    44  C    0.256139
    45  N    0.553291
    46  O   -0.616502
 Electronic spatial extent (au):  <R**2>=         407437.5481
 Charge=              1.0000 electrons
 Dipole moment (field-independent basis, Debye):
    X=            -58.4299    Y=             73.1111    Z=             45.0792  Tot=            103.8818
 Quadrupole moment (field-independent basis, Debye-Ang):
   XX=            667.8729   YY=            919.2108   ZZ=            326.5896
   XY=           -887.4753   XZ=           -483.0206   YZ=            681.7369
 Traceless Quadrupole moment (field-independent basis, Debye-Ang):
   XX=             29.9818   YY=            281.3197   ZZ=           -311.3015
   XY=           -887.4753   XZ=           -483.0206   YZ=            681.7369
 Octapole moment (field-independent basis, Debye-Ang**2):
  XXX=          -8633.6982  YYY=           6443.9321  ZZZ=            470.1515  XYY=         -11912.7935
  XXY=           9878.5431  XXZ=           4540.9974  XZZ=          -3191.4241  YZZ=           4486.7898
  YYZ=           8059.3922  XYZ=          -7233.8124
 Hexadecapole moment (field-independent basis, Debye-Ang**3):
 XXXX=         120833.9038 YYYY=        -124119.7733 ZZZZ=         -54510.1422 XXXY=        -126630.7085
 XXXZ=         -52829.1905 YYYX=        -120535.2549 YYYZ=          34685.5574 ZZZX=          -6285.6766
 ZZZY=          -7443.8047 XXYY=         130852.3001 XXZZ=          17653.0542 YYZZ=          31703.2039
 XXYZ=          64007.9014 YYXZ=         -90842.1371 ZZXY=         -43631.6426
 N-N= 2.776066338840D+03 E-N=-8.560133612717D+03  KE= 1.288370564787D+03
 Unable to Open any file for archive entry.
 1\1\GINC-SKL-150\SP\RB3LYP\6-31G(d)\C20H31N4O4(1+)\KENGMITH\25-May-202
 2\0\\# B3LYP/6-31G* empiricaldispersion=gd3 guess=read geom=check nosy
 mm integral(ultrafinegrid)\\Candidate Structure: Conf:3 Charge calc in
  gas phase\\1,1\N,0,-7.2310120419,17.1340640444,13.1978321945\C,0,-6.6
 522435751,18.4633679295,13.5986270331\C,0,-6.6080476628,19.4815049398,
 12.4322786246\O,0,-7.2127770003,20.5337254285,12.5939479944\C,0,-5.335
 2073,18.3106870067,14.3902155848\C,0,-5.5265522787,17.4392918932,15.61
 33993138\C,0,-5.1369982867,16.0922345776,15.6007852679\C,0,-6.16229949
 92,17.9480179163,16.7552722182\C,0,-5.3726751402,15.270901554,16.70716
 67965\C,0,-6.3952751986,17.1312157616,17.8607214201\C,0,-6.0025739665,
 15.7897102915,17.8384338606\H,0,-7.1144488475,16.4501164415,13.9529587
 636\H,0,-7.3939512851,18.899196,14.2697056782\H,0,-4.540245711,17.9014
 836942,13.7610640098\H,0,-5.0267170417,19.3225189359,14.6759880425\H,0
 ,-4.6240419046,15.6887606479,14.729326045\H,0,-6.4663692004,18.9922342
 482,16.7790054536\H,0,-5.0553528035,14.2321999943,16.6859483584\H,0,-6
 .8789939643,17.5420357064,18.7422706169\H,0,-6.1817562031,15.155470323
 9,18.7016669567\H,0,-6.8693110391,16.7487985865,12.3103109511\H,0,-8.2
 83607113,17.250091617,12.9119944088\N,0,-5.9091290668,19.220834936,11.
 2885708608\C,0,-5.9815450025,20.2100730725,10.1774962049\C,0,-7.429628
 3724,20.2629569095,9.6386851142\O,0,-8.1032028433,21.2732860646,9.6756
 349328\C,0,-4.9225770878,19.7079318651,9.1673130868\C,0,-4.0225151379,
 18.7612608644,9.9806335671\C,0,-5.005900512,18.1082380236,10.958460441
 9\H,0,-5.760032916,21.204652677,10.568789017\H,0,-5.3989980407,19.1606
 585277,8.3464852187\H,0,-4.375145168,20.5423401855,8.722989799\H,0,-3.
 5013902727,18.0269991426,9.3599278783\H,0,-3.2728847197,19.3320201887,
 10.5397880614\H,0,-4.5103112855,17.7173229959,11.8479510107\H,0,-5.563
 3915147,17.2909834742,10.482780107\N,0,-7.9157248469,19.0409259347,9.1
 83661761\C,0,-9.1963680869,18.5747704444,9.7284447866\C,0,-8.832865632
 2,17.5544867384,10.8407336534\O,0,-7.8934427494,16.7527582374,10.58146
 84564\C,0,-10.0885187784,17.9412370605,8.6558141056\C,0,-11.4608472866
 ,17.5690376846,9.2321871546\C,0,-12.3709942514,16.9066773833,8.1863750
 159\C,0,-13.7263093924,16.5774392673,8.7929773519\N,0,-14.6441703713,1
 5.928767764,7.7467482863\O,0,-9.4443430213,17.6515545734,11.9496598221
 \H,0,-7.2556193521,18.2705816394,9.2503289882\H,0,-9.7033010535,19.431
 1917782,10.1785497353\H,0,-9.5870279486,17.0480586392,8.2596681917\H,0
 ,-10.2015397165,18.6521438192,7.8282082917\H,0,-11.3328416845,16.89947
 48276,10.0919168416\H,0,-11.9474932436,18.4751490217,9.6174342986\H,0,
 -11.8961581699,15.9887846394,7.8119544633\H,0,-12.5005075943,17.582859
 8131,7.3293053578\H,0,-13.653762685,15.8605802584,9.6145468275\H,0,-14
 .2546662848,17.467796609,9.1426938241\H,0,-15.5696011482,15.6946140476
 ,8.1266160246\H,0,-14.2257613127,15.0641519343,7.3820552685\H,0,-14.78
 30465363,16.5577775784,6.9462013293\\Version=ES64L-G16RevC.01\HF=-1300
 .563054\RMSD=9.047e-09\Dipole=-8.2443127,-5.2869567,-4.4237883\Quadrup
 ole=22.2907284,209.1542883,-231.4450167,-659.8161596,-359.1139908,506.
 854705\PG=C01 [X(C20H31N4O4)]\\@
 The archive entry for this job was punched.


 THAT'S WHAT MAKES US A GREAT COUNTRY.
 THE LITTLE THINGS ARE SERIOUS AND THE BIG ONES ARE NOT.
           WILL ROGERS
 Job cpu time:       0 days  0 hours  0 minutes 55.2 seconds.
 Elapsed time:       0 days  0 hours  0 minutes 14.2 seconds.
 File lengths (MBytes):  RWF=    240 Int=      0 D2E=      0 Chk=     32 Scr=     16
 Normal termination of Gaussian 16 at Wed May 25 08:31:55 2022.
