 Entering Gaussian System, Link 0=/opt/software/Gaussian/g16-AVX-C.01/g16/g16
 Input=charge-conf-684.com
 Output=charge-conf-684.log
 Initial command:
 /opt/software/Gaussian/g16-AVX-C.01/g16/l1.exe "/mnt/gs18/scratch/users/kengmith/Gau-36165.inp" -scrdir="/mnt/gs18/scratch/users/kengmith/"
 Entering Link 1 = /opt/software/Gaussian/g16-AVX-C.01/g16/l1.exe PID=     36179.
  
 Copyright (c) 1988-2019, Gaussian, Inc.  All Rights Reserved.
  
 This is part of the Gaussian(R) 16 program.  It is based on
 the Gaussian(R) 09 system (copyright 2009, Gaussian, Inc.),
 the Gaussian(R) 03 system (copyright 2003, Gaussian, Inc.),
 the Gaussian(R) 98 system (copyright 1998, Gaussian, Inc.),
 the Gaussian(R) 94 system (copyright 1995, Gaussian, Inc.),
 the Gaussian 92(TM) system (copyright 1992, Gaussian, Inc.),
 the Gaussian 90(TM) system (copyright 1990, Gaussian, Inc.),
 the Gaussian 88(TM) system (copyright 1988, Gaussian, Inc.),
 the Gaussian 86(TM) system (copyright 1986, Carnegie Mellon
 University), and the Gaussian 82(TM) system (copyright 1983,
 Carnegie Mellon University). Gaussian is a federally registered
 trademark of Gaussian, Inc.
  
 This software contains proprietary and confidential information,
 including trade secrets, belonging to Gaussian, Inc.
  
 This software is provided under written license and may be
 used, copied, transmitted, or stored only in accord with that
 written license.
  
 The following legend is applicable only to US Government
 contracts under FAR:
  
                    RESTRICTED RIGHTS LEGEND
  
 Use, reproduction and disclosure by the US Government is
 subject to restrictions as set forth in subparagraphs (a)
 and (c) of the Commercial Computer Software - Restricted
 Rights clause in FAR 52.227-19.
  
 Gaussian, Inc.
 340 Quinnipiac St., Bldg. 40, Wallingford CT 06492
  
  
 ---------------------------------------------------------------
 Warning -- This program may not be used in any manner that
 competes with the business of Gaussian, Inc. or will provide
 assistance to any competitor of Gaussian, Inc.  The licensee
 of this program is prohibited from giving any competitor of
 Gaussian, Inc. access to this program.  By using this program,
 the user acknowledges that Gaussian, Inc. is engaged in the
 business of creating and licensing software in the field of
 computational chemistry and represents and warrants to the
 licensee that it is not a competitor of Gaussian, Inc. and that
 it will not use this program in any manner prohibited above.
 ---------------------------------------------------------------
  

 Cite this work as:
 Gaussian 16, Revision C.01,
 M. J. Frisch, G. W. Trucks, H. B. Schlegel, G. E. Scuseria, 
 M. A. Robb, J. R. Cheeseman, G. Scalmani, V. Barone, 
 G. A. Petersson, H. Nakatsuji, X. Li, M. Caricato, A. V. Marenich, 
 J. Bloino, B. G. Janesko, R. Gomperts, B. Mennucci, H. P. Hratchian, 
 J. V. Ortiz, A. F. Izmaylov, J. L. Sonnenberg, D. Williams-Young, 
 F. Ding, F. Lipparini, F. Egidi, J. Goings, B. Peng, A. Petrone, 
 T. Henderson, D. Ranasinghe, V. G. Zakrzewski, J. Gao, N. Rega, 
 G. Zheng, W. Liang, M. Hada, M. Ehara, K. Toyota, R. Fukuda, 
 J. Hasegawa, M. Ishida, T. Nakajima, Y. Honda, O. Kitao, H. Nakai, 
 T. Vreven, K. Throssell, J. A. Montgomery, Jr., J. E. Peralta, 
 F. Ogliaro, M. J. Bearpark, J. J. Heyd, E. N. Brothers, K. N. Kudin, 
 V. N. Staroverov, T. A. Keith, R. Kobayashi, J. Normand, 
 K. Raghavachari, A. P. Rendell, J. C. Burant, S. S. Iyengar, 
 J. Tomasi, M. Cossi, J. M. Millam, M. Klene, C. Adamo, R. Cammi, 
 J. W. Ochterski, R. L. Martin, K. Morokuma, O. Farkas, 
 J. B. Foresman, and D. J. Fox, Gaussian, Inc., Wallingford CT, 2019.
 
 ******************************************
 Gaussian 16:  ES64L-G16RevC.01  3-Jul-2019
                24-May-2022 
 ******************************************
 %mem=8gb
 %nproc=4
 Will use up to    4 processors via shared memory.
 %chk=conf-684.chk
 ----------------------------------------------------------------------
 # B3LYP/6-31G* empiricaldispersion=gd3 guess=read geom=check nosymm in
 tegral(ultrafinegrid)
 ----------------------------------------------------------------------
 1/29=2,38=1,172=1/1;
 2/12=2,15=1,40=1/2;
 3/5=1,6=6,7=1,11=2,14=-4,25=1,30=1,74=-5,75=-5,116=-2,124=31/1,2,3;
 4/5=1/1;
 5/5=2,38=6/2;
 6/7=2,8=2,9=2,10=2,28=1/1;
 99/5=1,9=1/99;
 ------------------------------------------------------
 Candidate Structure: Conf:684 Charge calc in gas phase
 ------------------------------------------------------
 Structure from the checkpoint file:  "conf-684.chk"
 Charge =  1 Multiplicity = 1
 Redundant internal coordinates found in file.  (old form).
 N,0,-96.0940200581,-15.6418456168,6.2365939911
 C,0,-96.2860754944,-15.8159225274,4.7503676016
 C,0,-94.8858765252,-15.5398148122,4.1664407622
 O,0,-93.9654702066,-16.2480425394,4.5648598914
 C,0,-97.5082737962,-15.0091526491,4.2891546402
 C,0,-98.7412399681,-15.4214026803,5.038876759
 C,0,-99.4361989668,-14.6593526974,5.951024452
 C,0,-99.3996268496,-16.7057704457,4.986076479
 C,0,-100.4920900189,-16.6495054251,5.8921315837
 C,0,-99.1794996506,-17.8874367384,4.2549261451
 N,0,-100.4837809885,-15.3918914464,6.4674786383
 C,0,-101.3555018835,-17.7317497865,6.0909889816
 C,0,-100.0333522958,-18.9645784793,4.4492452116
 C,0,-101.1086921514,-18.8870667609,5.3596829149
 H,0,-96.4674556335,-16.8831832547,4.5974043765
 H,0,-97.3216578982,-13.9387040815,4.4256026534
 H,0,-97.6268661534,-15.1936575852,3.2133922568
 H,0,-99.2703456468,-13.6337787884,6.2524025171
 H,0,-101.184521056,-15.0393585888,7.101314122
 H,0,-98.3675625341,-17.9541426076,3.5348151418
 H,0,-102.1881317999,-17.6707558685,6.7859158604
 H,0,-99.8782411608,-19.881448454,3.8887057009
 H,0,-101.7600546032,-19.7463397991,5.4871667428
 H,0,-96.9597225556,-15.8830251813,6.7310746325
 H,0,-95.3158382033,-16.2399881617,6.5366113527
 N,0,-94.7550622911,-14.5205228418,3.2966233117
 C,0,-93.4658906645,-14.1556284337,2.6954432445
 C,0,-92.3781625143,-13.9616777252,3.7887263302
 O,0,-91.3187846971,-14.5635627544,3.742467622
 C,0,-92.9924154041,-15.1517064839,1.6076764968
 C,0,-91.9013641944,-14.4875300659,0.7383194445
 C,0,-94.1692281744,-15.6304734814,0.746314545
 C,0,-91.0887031823,-15.4861580258,-0.0917931437
 H,0,-95.5432767836,-13.9116521525,3.1266603795
 H,0,-93.6480829721,-13.1913720902,2.2103202001
 H,0,-92.5523718171,-16.0074473188,2.1293316608
 H,0,-92.380292668,-13.7509735505,0.074755366
 H,0,-91.2102452668,-13.9360941927,1.3823357533
 H,0,-94.6915153947,-14.7845265465,0.2791103278
 H,0,-93.8138482864,-16.2815024519,-0.0570360495
 H,0,-94.9009220898,-16.2010207876,1.3265404388
 H,0,-91.7134312667,-16.0489132588,-0.7938868155
 H,0,-90.5828676882,-16.205181815,0.5624290775
 H,0,-90.3214158975,-14.9691309602,-0.677821873
 N,0,-92.6221411946,-13.1138421079,4.8533171065
 C,0,-93.5708270433,-12.0143299788,5.0570921937
 C,0,-94.9994629124,-12.5209026828,5.3871900978
 O,0,-95.9637832715,-12.1811063342,4.6694225048
 C,0,-93.4673995886,-10.9197894623,3.9718372475
 C,0,-94.3980018786,-9.6921306085,4.0759354545
 C,0,-94.5034564978,-9.0150636443,5.4497574158
 N,0,-95.329603635,-9.833838658,6.3578840252
 C,0,-95.1429219673,-9.9711549289,7.6711361884
 N,0,-94.5381995302,-8.9890567442,8.3652224921
 N,0,-95.5517055941,-11.0933617158,8.2787965081
 O,0,-95.0852120557,-13.1975057248,6.4771820328
 H,0,-95.8173929614,-14.6198881322,6.4354924506
 H,0,-91.8297806301,-13.1296000081,5.4832761789
 H,0,-93.2396841698,-11.5728219831,6.0042546904
 H,0,-92.4230277353,-10.5833457491,3.9755298857
 H,0,-93.641259486,-11.3606281692,2.9871960999
 H,0,-95.4035895224,-9.9660231685,3.7446094997
 H,0,-94.0316103011,-8.9343555814,3.3741016421
 H,0,-93.5132304965,-8.8866569446,5.9035786097
 H,0,-94.957419363,-8.023173722,5.3388789375
 H,0,-95.9368640618,-10.5158914056,5.904175751
 H,0,-94.2450942013,-9.128054177,9.320967732
 H,0,-94.50355557,-8.0480233021,8.0004390962
 H,0,-95.5357683818,-11.9736894995,7.7353933992
 H,0,-95.5559693785,-11.1492728147,9.2874301241
 Recover connectivity data from disk.
                           ----------------------------
                           !    Current Parameters    !
                           ! (Angstroms and Degrees)  !
 --------------------------                            --------------------------
 ! Name  Definition              Value                                          !
 --------------------------------------------------------------------------------
 ! R1    R(1,2)                  1.5087                                         !
 ! R2    R(1,24)                 1.0257                                         !
 ! R3    R(1,25)                 1.0263                                         !
 ! R4    R(2,3)                  1.542                                          !
 ! R5    R(2,5)                  1.5354                                         !
 ! R6    R(2,15)                 1.0933                                         !
 ! R7    R(3,4)                  1.2278                                         !
 ! R8    R(3,26)                 1.3463                                         !
 ! R9    R(5,6)                  1.5007                                         !
 ! R10   R(5,16)                 1.0951                                         !
 ! R11   R(5,17)                 1.0979                                         !
 ! R12   R(6,7)                  1.3768                                         !
 ! R13   R(6,8)                  1.4443                                         !
 ! R14   R(7,11)                 1.3787                                         !
 ! R15   R(7,18)                 1.0817                                         !
 ! R16   R(8,9)                  1.4204                                         !
 ! R17   R(8,10)                 1.4069                                         !
 ! R18   R(9,11)                 1.383                                          !
 ! R19   R(9,12)                 1.3987                                         !
 ! R20   R(10,13)                1.3882                                         !
 ! R21   R(10,20)                1.0873                                         !
 ! R22   R(11,19)                1.0085                                         !
 ! R23   R(12,14)                1.3894                                         !
 ! R24   R(12,21)                1.0862                                         !
 ! R25   R(13,14)                1.4111                                         !
 ! R26   R(13,22)                1.0858                                         !
 ! R27   R(14,23)                1.0858                                         !
 ! R28   R(26,27)                1.4685                                         !
 ! R29   R(26,34)                1.0104                                         !
 ! R30   R(27,28)                1.5544                                         !
 ! R31   R(27,30)                1.5491                                         !
 ! R32   R(27,35)                1.0947                                         !
 ! R33   R(28,29)                1.2193                                         !
 ! R34   R(28,45)                1.3826                                         !
 ! R35   R(30,31)                1.5451                                         !
 ! R36   R(30,32)                1.5349                                         !
 ! R37   R(30,36)                1.0946                                         !
 ! R38   R(31,33)                1.5319                                         !
 ! R39   R(31,37)                1.101                                          !
 ! R40   R(31,38)                1.0938                                         !
 ! R41   R(32,39)                1.0985                                         !
 ! R42   R(32,40)                1.0934                                         !
 ! R43   R(32,41)                1.0943                                         !
 ! R44   R(33,42)                1.0954                                         !
 ! R45   R(33,43)                1.0958                                         !
 ! R46   R(33,44)                1.0952                                         !
 ! R47   R(45,46)                1.4664                                         !
 ! R48   R(45,58)                1.0124                                         !
 ! R49   R(46,47)                1.5513                                         !
 ! R50   R(46,49)                1.5448                                         !
 ! R51   R(46,59)                1.0962                                         !
 ! R52   R(47,48)                1.2492                                         !
 ! R53   R(47,56)                1.2858                                         !
 ! R54   R(49,50)                1.544                                          !
 ! R55   R(49,60)                1.0972                                         !
 ! R56   R(49,61)                1.0927                                         !
 ! R57   R(50,51)                1.5352                                         !
 ! R58   R(50,62)                1.0936                                         !
 ! R59   R(50,63)                1.0959                                         !
 ! R60   R(51,52)                1.4757                                         !
 ! R61   R(51,64)                1.0968                                         !
 ! R62   R(51,65)                1.0965                                         !
 ! R63   R(52,53)                1.3335                                         !
 ! R64   R(52,66)                1.0197                                         !
 ! R65   R(53,54)                1.3461                                         !
 ! R66   R(53,55)                1.34                                           !
 ! R67   R(54,67)                1.0093                                         !
 ! R68   R(54,68)                1.0099                                         !
 ! R69   R(55,69)                1.0347                                         !
 ! R70   R(55,70)                1.0102                                         !
 ! R71   R(56,57)                1.6003                                         !
 ! A1    A(2,1,24)             109.8974                                         !
 ! A2    A(2,1,25)             108.4967                                         !
 ! A3    A(24,1,25)            111.2214                                         !
 ! A4    A(1,2,3)              103.6974                                         !
 ! A5    A(1,2,5)              109.6718                                         !
 ! A6    A(1,2,15)             105.7584                                         !
 ! A7    A(3,2,5)              120.9965                                         !
 ! A8    A(3,2,15)             105.8103                                         !
 ! A9    A(5,2,15)             109.8066                                         !
 ! A10   A(2,3,4)              117.0353                                         !
 ! A11   A(2,3,26)             117.933                                          !
 ! A12   A(4,3,26)             124.9957                                         !
 ! A13   A(2,5,6)              111.0747                                         !
 ! A14   A(2,5,16)             109.9098                                         !
 ! A15   A(2,5,17)             106.9788                                         !
 ! A16   A(6,5,16)             110.2589                                         !
 ! A17   A(6,5,17)             110.7682                                         !
 ! A18   A(16,5,17)            107.7436                                         !
 ! A19   A(5,6,7)              126.4133                                         !
 ! A20   A(5,6,8)              126.9093                                         !
 ! A21   A(7,6,8)              106.6381                                         !
 ! A22   A(6,7,11)             109.7318                                         !
 ! A23   A(6,7,18)             129.1926                                         !
 ! A24   A(11,7,18)            121.0566                                         !
 ! A25   A(6,8,9)              106.9818                                         !
 ! A26   A(6,8,10)             133.9953                                         !
 ! A27   A(9,8,10)             119.0195                                         !
 ! A28   A(8,9,11)             107.2635                                         !
 ! A29   A(8,9,12)             122.3319                                         !
 ! A30   A(11,9,12)            130.4043                                         !
 ! A31   A(8,10,13)            118.8638                                         !
 ! A32   A(8,10,20)            120.8335                                         !
 ! A33   A(13,10,20)           120.2923                                         !
 ! A34   A(7,11,9)             109.3834                                         !
 ! A35   A(7,11,19)            125.2866                                         !
 ! A36   A(9,11,19)            125.1108                                         !
 ! A37   A(9,12,14)            117.3166                                         !
 ! A38   A(9,12,21)            121.3787                                         !
 ! A39   A(14,12,21)           121.3042                                         !
 ! A40   A(10,13,14)           121.0922                                         !
 ! A41   A(10,13,22)           119.6758                                         !
 ! A42   A(14,13,22)           119.2309                                         !
 ! A43   A(12,14,13)           121.3745                                         !
 ! A44   A(12,14,23)           119.3205                                         !
 ! A45   A(13,14,23)           119.3041                                         !
 ! A46   A(3,26,27)            122.5407                                         !
 ! A47   A(3,26,34)            119.2815                                         !
 ! A48   A(27,26,34)           117.7904                                         !
 ! A49   A(26,27,28)           110.94                                           !
 ! A50   A(26,27,30)           113.3296                                         !
 ! A51   A(26,27,35)           104.7255                                         !
 ! A52   A(28,27,30)           111.1157                                         !
 ! A53   A(28,27,35)           108.5579                                         !
 ! A54   A(30,27,35)           107.8235                                         !
 ! A55   A(27,28,29)           121.3141                                         !
 ! A56   A(27,28,45)           119.6433                                         !
 ! A57   A(29,28,45)           119.0269                                         !
 ! A58   A(27,30,31)           109.5438                                         !
 ! A59   A(27,30,32)           111.1178                                         !
 ! A60   A(27,30,36)           106.9141                                         !
 ! A61   A(31,30,32)           111.0829                                         !
 ! A62   A(31,30,36)           108.6836                                         !
 ! A63   A(32,30,36)           109.3792                                         !
 ! A64   A(30,31,33)           113.5326                                         !
 ! A65   A(30,31,37)           108.6336                                         !
 ! A66   A(30,31,38)           109.3654                                         !
 ! A67   A(33,31,37)           109.8935                                         !
 ! A68   A(33,31,38)           108.2097                                         !
 ! A69   A(37,31,38)           107.0035                                         !
 ! A70   A(30,32,39)           111.2842                                         !
 ! A71   A(30,32,40)           110.4162                                         !
 ! A72   A(30,32,41)           112.1915                                         !
 ! A73   A(39,32,40)           107.4922                                         !
 ! A74   A(39,32,41)           108.0054                                         !
 ! A75   A(40,32,41)           107.2445                                         !
 ! A76   A(31,33,42)           112.3131                                         !
 ! A77   A(31,33,43)           110.4317                                         !
 ! A78   A(31,33,44)           110.7237                                         !
 ! A79   A(42,33,43)           107.9879                                         !
 ! A80   A(42,33,44)           107.405                                          !
 ! A81   A(43,33,44)           107.807                                          !
 ! A82   A(28,45,46)           132.9152                                         !
 ! A83   A(28,45,58)           109.3574                                         !
 ! A84   A(46,45,58)           115.5648                                         !
 ! A85   A(45,46,47)           112.3648                                         !
 ! A86   A(45,46,49)           112.9733                                         !
 ! A87   A(45,46,59)           103.0981                                         !
 ! A88   A(47,46,49)           116.2637                                         !
 ! A89   A(47,46,59)           103.053                                          !
 ! A90   A(49,46,59)           107.5418                                         !
 ! A91   A(46,47,48)           119.9872                                         !
 ! A92   A(46,47,56)           114.4334                                         !
 ! A93   A(48,47,56)           125.3615                                         !
 ! A94   A(46,49,50)           118.4005                                         !
 ! A95   A(46,49,60)           106.1775                                         !
 ! A96   A(46,49,61)           109.6654                                         !
 ! A97   A(50,49,60)           109.2474                                         !
 ! A98   A(50,49,61)           106.596                                          !
 ! A99   A(60,49,61)           106.1512                                         !
 ! A100  A(49,50,51)           116.8971                                         !
 ! A101  A(49,50,62)           109.5507                                         !
 ! A102  A(49,50,63)           107.7641                                         !
 ! A103  A(51,50,62)           108.5663                                         !
 ! A104  A(51,50,63)           106.9237                                         !
 ! A105  A(62,50,63)           106.6524                                         !
 ! A106  A(50,51,52)           110.1485                                         !
 ! A107  A(50,51,64)           111.0929                                         !
 ! A108  A(50,51,65)           109.6886                                         !
 ! A109  A(52,51,64)           108.4072                                         !
 ! A110  A(52,51,65)           109.413                                          !
 ! A111  A(64,51,65)           108.0428                                         !
 ! A112  A(51,52,53)           125.7886                                         !
 ! A113  A(51,52,66)           115.5124                                         !
 ! A114  A(53,52,66)           116.9145                                         !
 ! A115  A(52,53,54)           119.7059                                         !
 ! A116  A(52,53,55)           119.3467                                         !
 ! A117  A(54,53,55)           120.945                                          !
 ! A118  A(53,54,67)           121.2155                                         !
 ! A119  A(53,54,68)           120.5988                                         !
 ! A120  A(67,54,68)           117.4146                                         !
 ! A121  A(53,55,69)           118.0129                                         !
 ! A122  A(53,55,70)           120.0267                                         !
 ! A123  A(69,55,70)           118.5134                                         !
 ! A124  A(47,56,57)           118.4337                                         !
 ! D1    D(24,1,2,3)          -175.2635                                         !
 ! D2    D(24,1,2,5)            54.1914                                         !
 ! D3    D(24,1,2,15)          -64.1537                                         !
 ! D4    D(25,1,2,3)           -53.4603                                         !
 ! D5    D(25,1,2,5)           175.9946                                         !
 ! D6    D(25,1,2,15)           57.6495                                         !
 ! D7    D(1,2,3,4)             58.1878                                         !
 ! D8    D(1,2,3,26)          -119.7396                                         !
 ! D9    D(5,2,3,4)           -178.4018                                         !
 ! D10   D(5,2,3,26)             3.6707                                         !
 ! D11   D(15,2,3,4)           -52.8839                                         !
 ! D12   D(15,2,3,26)          129.1886                                         !
 ! D13   D(1,2,5,6)            -57.1279                                         !
 ! D14   D(1,2,5,16)            65.1649                                         !
 ! D15   D(1,2,5,17)          -178.1243                                         !
 ! D16   D(3,2,5,6)           -177.6679                                         !
 ! D17   D(3,2,5,16)           -55.3751                                         !
 ! D18   D(3,2,5,17)            61.3357                                         !
 ! D19   D(15,2,5,6)            58.6766                                         !
 ! D20   D(15,2,5,16)         -179.0306                                         !
 ! D21   D(15,2,5,17)          -62.3198                                         !
 ! D22   D(2,3,26,27)          179.0428                                         !
 ! D23   D(2,3,26,34)            6.3496                                         !
 ! D24   D(4,3,26,27)            1.2964                                         !
 ! D25   D(4,3,26,34)         -171.3968                                         !
 ! D26   D(2,5,6,7)            111.9061                                         !
 ! D27   D(2,5,6,8)            -65.5029                                         !
 ! D28   D(16,5,6,7)           -10.1839                                         !
 ! D29   D(16,5,6,8)           172.407                                          !
 ! D30   D(17,5,6,7)          -129.3537                                         !
 ! D31   D(17,5,6,8)            53.2372                                         !
 ! D32   D(5,6,7,11)          -177.797                                          !
 ! D33   D(5,6,7,18)             3.8012                                         !
 ! D34   D(8,6,7,11)             0.0411                                         !
 ! D35   D(8,6,7,18)          -178.3607                                         !
 ! D36   D(5,6,8,9)            178.0108                                         !
 ! D37   D(5,6,8,10)            -2.6934                                         !
 ! D38   D(7,6,8,9)              0.1867                                         !
 ! D39   D(7,6,8,10)           179.4826                                         !
 ! D40   D(6,7,11,9)            -0.2628                                         !
 ! D41   D(6,7,11,19)         -175.0988                                         !
 ! D42   D(18,7,11,9)          178.2913                                         !
 ! D43   D(18,7,11,19)           3.4553                                         !
 ! D44   D(6,8,9,11)            -0.3425                                         !
 ! D45   D(6,8,9,12)           179.8077                                         !
 ! D46   D(10,8,9,11)         -179.7632                                         !
 ! D47   D(10,8,9,12)            0.387                                          !
 ! D48   D(6,8,10,13)         -179.6325                                         !
 ! D49   D(6,8,10,20)           -0.8038                                         !
 ! D50   D(9,8,10,13)           -0.4026                                         !
 ! D51   D(9,8,10,20)          178.4261                                         !
 ! D52   D(8,9,11,7)             0.3751                                         !
 ! D53   D(8,9,11,19)          175.2223                                         !
 ! D54   D(12,9,11,7)         -179.7915                                         !
 ! D55   D(12,9,11,19)          -4.9443                                         !
 ! D56   D(8,9,12,14)           -0.0709                                         !
 ! D57   D(8,9,12,21)         -179.8213                                         !
 ! D58   D(11,9,12,14)        -179.8826                                         !
 ! D59   D(11,9,12,21)           0.367                                          !
 ! D60   D(8,10,13,14)           0.1221                                         !
 ! D61   D(8,10,13,22)         179.7329                                         !
 ! D62   D(20,10,13,14)       -178.7131                                         !
 ! D63   D(20,10,13,22)          0.8976                                         !
 ! D64   D(9,12,14,13)          -0.2228                                         !
 ! D65   D(9,12,14,23)        -179.8752                                         !
 ! D66   D(21,12,14,13)        179.5277                                         !
 ! D67   D(21,12,14,23)         -0.1246                                         !
 ! D68   D(10,13,14,12)          0.2014                                         !
 ! D69   D(10,13,14,23)        179.8538                                         !
 ! D70   D(22,13,14,12)       -179.411                                          !
 ! D71   D(22,13,14,23)          0.2413                                         !
 ! D72   D(3,26,27,28)         -52.0496                                         !
 ! D73   D(3,26,27,30)          73.761                                          !
 ! D74   D(3,26,27,35)        -168.9804                                         !
 ! D75   D(34,26,27,28)        120.7468                                         !
 ! D76   D(34,26,27,30)       -113.4426                                         !
 ! D77   D(34,26,27,35)          3.816                                          !
 ! D78   D(26,27,28,29)        126.0769                                         !
 ! D79   D(26,27,28,45)        -52.4669                                         !
 ! D80   D(30,27,28,29)         -0.9596                                         !
 ! D81   D(30,27,28,45)       -179.5034                                         !
 ! D82   D(35,27,28,29)       -119.3686                                         !
 ! D83   D(35,27,28,45)         62.0876                                         !
 ! D84   D(26,27,30,31)        162.3441                                         !
 ! D85   D(26,27,30,32)         39.2311                                         !
 ! D86   D(26,27,30,36)        -80.0594                                         !
 ! D87   D(28,27,30,31)        -71.939                                          !
 ! D88   D(28,27,30,32)        164.9479                                         !
 ! D89   D(28,27,30,36)         45.6575                                         !
 ! D90   D(35,27,30,31)         46.9121                                         !
 ! D91   D(35,27,30,32)        -76.2009                                         !
 ! D92   D(35,27,30,36)        164.5086                                         !
 ! D93   D(27,28,45,46)        -19.9805                                         !
 ! D94   D(27,28,45,58)        177.9968                                         !
 ! D95   D(29,28,45,46)        161.4423                                         !
 ! D96   D(29,28,45,58)         -0.5805                                         !
 ! D97   D(27,30,31,33)        163.4615                                         !
 ! D98   D(27,30,31,37)        -73.9559                                         !
 ! D99   D(27,30,31,38)         42.5076                                         !
 ! D100  D(32,30,31,33)        -73.4048                                         !
 ! D101  D(32,30,31,37)         49.1777                                         !
 ! D102  D(32,30,31,38)        165.6413                                         !
 ! D103  D(36,30,31,33)         46.9781                                         !
 ! D104  D(36,30,31,37)        169.5606                                         !
 ! D105  D(36,30,31,38)        -73.9758                                         !
 ! D106  D(27,30,32,39)         57.0607                                         !
 ! D107  D(27,30,32,40)        176.349                                          !
 ! D108  D(27,30,32,41)        -64.0828                                         !
 ! D109  D(31,30,32,39)        -65.1638                                         !
 ! D110  D(31,30,32,40)         54.1245                                         !
 ! D111  D(31,30,32,41)        173.6927                                         !
 ! D112  D(36,30,32,39)        174.866                                          !
 ! D113  D(36,30,32,40)        -65.8458                                         !
 ! D114  D(36,30,32,41)         53.7224                                         !
 ! D115  D(30,31,33,42)         60.7438                                         !
 ! D116  D(30,31,33,43)        -59.8604                                         !
 ! D117  D(30,31,33,44)       -179.1918                                         !
 ! D118  D(37,31,33,42)        -61.1404                                         !
 ! D119  D(37,31,33,43)        178.2554                                         !
 ! D120  D(37,31,33,44)         58.924                                          !
 ! D121  D(38,31,33,42)       -177.6551                                         !
 ! D122  D(38,31,33,43)         61.7407                                         !
 ! D123  D(38,31,33,44)        -57.5907                                         !
 ! D124  D(28,45,46,47)         78.6763                                         !
 ! D125  D(28,45,46,49)        -55.2824                                         !
 ! D126  D(28,45,46,59)       -171.0515                                         !
 ! D127  D(58,45,46,47)       -120.1557                                         !
 ! D128  D(58,45,46,49)        105.8856                                         !
 ! D129  D(58,45,46,59)         -9.8835                                         !
 ! D130  D(45,46,47,48)       -122.75                                           !
 ! D131  D(45,46,47,56)         62.3294                                         !
 ! D132  D(49,46,47,48)          9.6002                                         !
 ! D133  D(49,46,47,56)       -165.3204                                         !
 ! D134  D(59,46,47,48)        126.9495                                         !
 ! D135  D(59,46,47,56)        -47.9711                                         !
 ! D136  D(45,46,49,50)       -179.1908                                         !
 ! D137  D(45,46,49,60)        -56.0251                                         !
 ! D138  D(45,46,49,61)         58.2586                                         !
 ! D139  D(47,46,49,50)         48.7392                                         !
 ! D140  D(47,46,49,60)        171.9048                                         !
 ! D141  D(47,46,49,61)        -73.8114                                         !
 ! D142  D(59,46,49,50)        -66.1025                                         !
 ! D143  D(59,46,49,60)         57.0632                                         !
 ! D144  D(59,46,49,61)        171.3469                                         !
 ! D145  D(46,47,56,57)       -129.4846                                         !
 ! D146  D(48,47,56,57)         55.911                                          !
 ! D147  D(46,49,50,51)         46.907                                          !
 ! D148  D(46,49,50,62)        -77.0801                                         !
 ! D149  D(46,49,50,63)        167.256                                          !
 ! D150  D(60,49,50,51)        -74.713                                          !
 ! D151  D(60,49,50,62)        161.2999                                         !
 ! D152  D(60,49,50,63)         45.636                                          !
 ! D153  D(61,49,50,51)        170.9871                                         !
 ! D154  D(61,49,50,62)         47.0                                            !
 ! D155  D(61,49,50,63)        -68.664                                          !
 ! D156  D(49,50,51,52)        -74.9022                                         !
 ! D157  D(49,50,51,64)         45.2324                                         !
 ! D158  D(49,50,51,65)        164.6127                                         !
 ! D159  D(62,50,51,52)         49.5846                                         !
 ! D160  D(62,50,51,64)        169.7192                                         !
 ! D161  D(62,50,51,65)        -70.9005                                         !
 ! D162  D(63,50,51,52)        164.3045                                         !
 ! D163  D(63,50,51,64)        -75.5609                                         !
 ! D164  D(63,50,51,65)         43.8194                                         !
 ! D165  D(50,51,52,53)        145.1273                                         !
 ! D166  D(50,51,52,66)        -19.1048                                         !
 ! D167  D(64,51,52,53)         23.3839                                         !
 ! D168  D(64,51,52,66)       -140.8483                                         !
 ! D169  D(65,51,52,53)        -94.2219                                         !
 ! D170  D(65,51,52,66)        101.5459                                         !
 ! D171  D(51,52,53,54)         26.8177                                         !
 ! D172  D(51,52,53,55)       -152.6241                                         !
 ! D173  D(66,52,53,54)       -169.1464                                         !
 ! D174  D(66,52,53,55)         11.4118                                         !
 ! D175  D(52,53,54,67)       -169.5652                                         !
 ! D176  D(52,53,54,68)         20.7533                                         !
 ! D177  D(55,53,54,67)          9.8675                                         !
 ! D178  D(55,53,54,68)       -159.814                                          !
 ! D179  D(52,53,55,69)         31.2888                                         !
 ! D180  D(52,53,55,70)       -169.9607                                         !
 ! D181  D(54,53,55,69)       -148.1459                                         !
 ! D182  D(54,53,55,70)         10.6046                                         !
 --------------------------------------------------------------------------------
 Symmetry turned off by external request.
 Stoichiometry    C23H36N7O4(1+)
 Framework group  C1[X(C23H36N7O4)]
 Deg. of freedom   204
 Full point group                 C1      NOp   1
                          Input orientation:                          
 ---------------------------------------------------------------------
 Center     Atomic      Atomic             Coordinates (Angstroms)
 Number     Number       Type             X           Y           Z
 ---------------------------------------------------------------------
      1          7           0      -96.094020  -15.641846    6.236594
      2          6           0      -96.286075  -15.815923    4.750368
      3          6           0      -94.885877  -15.539815    4.166441
      4          8           0      -93.965470  -16.248043    4.564860
      5          6           0      -97.508274  -15.009153    4.289155
      6          6           0      -98.741240  -15.421403    5.038877
      7          6           0      -99.436199  -14.659353    5.951024
      8          6           0      -99.399627  -16.705770    4.986076
      9          6           0     -100.492090  -16.649505    5.892132
     10          6           0      -99.179500  -17.887437    4.254926
     11          7           0     -100.483781  -15.391891    6.467479
     12          6           0     -101.355502  -17.731750    6.090989
     13          6           0     -100.033352  -18.964578    4.449245
     14          6           0     -101.108692  -18.887067    5.359683
     15          1           0      -96.467456  -16.883183    4.597404
     16          1           0      -97.321658  -13.938704    4.425603
     17          1           0      -97.626866  -15.193658    3.213392
     18          1           0      -99.270346  -13.633779    6.252403
     19          1           0     -101.184521  -15.039359    7.101314
     20          1           0      -98.367563  -17.954143    3.534815
     21          1           0     -102.188132  -17.670756    6.785916
     22          1           0      -99.878241  -19.881448    3.888706
     23          1           0     -101.760055  -19.746340    5.487167
     24          1           0      -96.959723  -15.883025    6.731075
     25          1           0      -95.315838  -16.239988    6.536611
     26          7           0      -94.755062  -14.520523    3.296623
     27          6           0      -93.465891  -14.155628    2.695443
     28          6           0      -92.378163  -13.961678    3.788726
     29          8           0      -91.318785  -14.563563    3.742468
     30          6           0      -92.992415  -15.151706    1.607676
     31          6           0      -91.901364  -14.487530    0.738319
     32          6           0      -94.169228  -15.630473    0.746315
     33          6           0      -91.088703  -15.486158   -0.091793
     34          1           0      -95.543277  -13.911652    3.126660
     35          1           0      -93.648083  -13.191372    2.210320
     36          1           0      -92.552372  -16.007447    2.129332
     37          1           0      -92.380293  -13.750974    0.074755
     38          1           0      -91.210245  -13.936094    1.382336
     39          1           0      -94.691515  -14.784527    0.279110
     40          1           0      -93.813848  -16.281502   -0.057036
     41          1           0      -94.900922  -16.201021    1.326540
     42          1           0      -91.713431  -16.048913   -0.793887
     43          1           0      -90.582868  -16.205182    0.562429
     44          1           0      -90.321416  -14.969131   -0.677822
     45          7           0      -92.622141  -13.113842    4.853317
     46          6           0      -93.570827  -12.014330    5.057092
     47          6           0      -94.999463  -12.520903    5.387190
     48          8           0      -95.963783  -12.181106    4.669423
     49          6           0      -93.467400  -10.919789    3.971837
     50          6           0      -94.398002   -9.692131    4.075935
     51          6           0      -94.503456   -9.015064    5.449757
     52          7           0      -95.329604   -9.833839    6.357884
     53          6           0      -95.142922   -9.971155    7.671136
     54          7           0      -94.538200   -8.989057    8.365222
     55          7           0      -95.551706  -11.093362    8.278797
     56          8           0      -95.085212  -13.197506    6.477182
     57          1           0      -95.817393  -14.619888    6.435492
     58          1           0      -91.829781  -13.129600    5.483276
     59          1           0      -93.239684  -11.572822    6.004255
     60          1           0      -92.423028  -10.583346    3.975530
     61          1           0      -93.641259  -11.360628    2.987196
     62          1           0      -95.403590   -9.966023    3.744609
     63          1           0      -94.031610   -8.934356    3.374102
     64          1           0      -93.513230   -8.886657    5.903579
     65          1           0      -94.957419   -8.023174    5.338879
     66          1           0      -95.936864  -10.515891    5.904176
     67          1           0      -94.245094   -9.128054    9.320968
     68          1           0      -94.503556   -8.048023    8.000439
     69          1           0      -95.535768  -11.973689    7.735393
     70          1           0      -95.555969  -11.149273    9.287430
 ---------------------------------------------------------------------
 Rotational constants (GHZ):           0.1338762           0.0840204           0.0569847
 Standard basis: 6-31G(d) (6D, 7F)
   582 basis functions,  1096 primitive gaussians,   582 cartesian basis functions
   127 alpha electrons      127 beta electrons
       nuclear repulsion energy      3848.1951765514 Hartrees.
 NAtoms=   70 NActive=   70 NUniq=   70 SFac= 1.00D+00 NAtFMM=   60 NAOKFM=T Big=T
 Integral buffers will be    131072 words long.
 Raffenetti 2 integral format.
 Two-electron integral symmetry is turned off.
 Nuclear repulsion after empirical dispersion term =     3848.1002138422 Hartrees.
 One-electron integrals computed using PRISM.
 NBasis=   582 RedAO= T EigKep=  3.76D-04  NBF=   582
 NBsUse=   582 1.00D-06 EigRej= -1.00D+00 NBFU=   582
 Initial guess from the checkpoint file:  "conf-684.chk"
 B after Tr=     0.000000    0.000000    0.000000
         Rot=    1.000000    0.000000    0.000000    0.000000 Ang=   0.00 deg.
 Requested convergence on RMS density matrix=1.00D-08 within 128 cycles.
 Requested convergence on MAX density matrix=1.00D-06.
 Requested convergence on             energy=1.00D-06.
 No special actions if energy rises.
 SCF Done:  E(RB3LYP) =  -1582.24237445     A.U. after    1 cycles
            NFock=  1  Conv=0.61D-08     -V/T= 2.0095

 **********************************************************************

            Population analysis using the SCF Density.

 **********************************************************************

 Alpha  occ. eigenvalues --  -19.22031 -19.21581 -19.21505 -19.18999 -14.54108
 Alpha  occ. eigenvalues --  -14.52316 -14.50717 -14.50229 -14.46956 -14.46333
 Alpha  occ. eigenvalues --  -14.44031 -10.47621 -10.39515 -10.39144 -10.36806
 Alpha  occ. eigenvalues --  -10.35910 -10.35561 -10.33226 -10.32048 -10.31444
 Alpha  occ. eigenvalues --  -10.30400 -10.29933 -10.29878 -10.28993 -10.27920
 Alpha  occ. eigenvalues --  -10.27098 -10.26903 -10.26842 -10.26285 -10.25961
 Alpha  occ. eigenvalues --  -10.25560 -10.24085 -10.23768 -10.22417  -1.16290
 Alpha  occ. eigenvalues --   -1.15056  -1.14099  -1.11232  -1.09060  -1.06821
 Alpha  occ. eigenvalues --   -1.06121  -1.05329  -1.04072  -1.02743  -1.00006
 Alpha  occ. eigenvalues --   -0.92241  -0.90727  -0.90601  -0.88041  -0.85511
 Alpha  occ. eigenvalues --   -0.84830  -0.81782  -0.81291  -0.80244  -0.79379
 Alpha  occ. eigenvalues --   -0.77740  -0.77326  -0.76470  -0.73514  -0.71523
 Alpha  occ. eigenvalues --   -0.70627  -0.70599  -0.69563  -0.69380  -0.68795
 Alpha  occ. eigenvalues --   -0.68142  -0.67266  -0.66385  -0.65438  -0.64958
 Alpha  occ. eigenvalues --   -0.64555  -0.62856  -0.62451  -0.62000  -0.61180
 Alpha  occ. eigenvalues --   -0.60088  -0.59869  -0.59678  -0.57676  -0.57134
 Alpha  occ. eigenvalues --   -0.56345  -0.55332  -0.55101  -0.54800  -0.54283
 Alpha  occ. eigenvalues --   -0.53438  -0.53181  -0.52704  -0.52098  -0.51716
 Alpha  occ. eigenvalues --   -0.51374  -0.51110  -0.50774  -0.50698  -0.49922
 Alpha  occ. eigenvalues --   -0.49185  -0.48867  -0.48635  -0.48330  -0.47553
 Alpha  occ. eigenvalues --   -0.47163  -0.46403  -0.46195  -0.45597  -0.45294
 Alpha  occ. eigenvalues --   -0.44485  -0.43996  -0.43485  -0.43396  -0.42976
 Alpha  occ. eigenvalues --   -0.41732  -0.41578  -0.41511  -0.40267  -0.39927
 Alpha  occ. eigenvalues --   -0.38668  -0.38374  -0.38253  -0.36944  -0.36424
 Alpha  occ. eigenvalues --   -0.35633  -0.35447  -0.35008  -0.32744  -0.31993
 Alpha  occ. eigenvalues --   -0.30691  -0.29201
 Alpha virt. eigenvalues --   -0.12538  -0.09672  -0.09449  -0.08852  -0.07489
 Alpha virt. eigenvalues --   -0.06217  -0.05696  -0.04092  -0.04058  -0.02806
 Alpha virt. eigenvalues --   -0.02383  -0.01370  -0.00771  -0.00643   0.00101
 Alpha virt. eigenvalues --    0.00651   0.00999   0.01807   0.03172   0.03380
 Alpha virt. eigenvalues --    0.03510   0.04067   0.04393   0.04705   0.04891
 Alpha virt. eigenvalues --    0.05409   0.06254   0.06715   0.07029   0.07261
 Alpha virt. eigenvalues --    0.07593   0.07823   0.07918   0.08497   0.09096
 Alpha virt. eigenvalues --    0.09201   0.09641   0.10322   0.10580   0.10800
 Alpha virt. eigenvalues --    0.11092   0.11432   0.11653   0.12554   0.12734
 Alpha virt. eigenvalues --    0.13067   0.13497   0.13738   0.14072   0.14786
 Alpha virt. eigenvalues --    0.14950   0.15536   0.16043   0.16557   0.16837
 Alpha virt. eigenvalues --    0.17601   0.18083   0.18748   0.19303   0.19467
 Alpha virt. eigenvalues --    0.20831   0.21453   0.22117   0.23564   0.23804
 Alpha virt. eigenvalues --    0.23842   0.25368   0.26111   0.26606   0.27253
 Alpha virt. eigenvalues --    0.28702   0.29078   0.29736   0.31440   0.32525
 Alpha virt. eigenvalues --    0.34481   0.35352   0.37013   0.37839   0.38595
 Alpha virt. eigenvalues --    0.40483   0.41123   0.41382   0.41684   0.41826
 Alpha virt. eigenvalues --    0.42490   0.43386   0.43528   0.44167   0.45008
 Alpha virt. eigenvalues --    0.45344   0.45790   0.46094   0.46806   0.47102
 Alpha virt. eigenvalues --    0.47580   0.47912   0.48321   0.48766   0.49104
 Alpha virt. eigenvalues --    0.49775   0.50079   0.50495   0.50906   0.51458
 Alpha virt. eigenvalues --    0.52004   0.52571   0.52811   0.53177   0.53566
 Alpha virt. eigenvalues --    0.53665   0.54151   0.54534   0.54811   0.54914
 Alpha virt. eigenvalues --    0.55409   0.55783   0.56582   0.56946   0.57130
 Alpha virt. eigenvalues --    0.57573   0.58136   0.59152   0.59745   0.60174
 Alpha virt. eigenvalues --    0.60799   0.61049   0.61312   0.61810   0.63167
 Alpha virt. eigenvalues --    0.63920   0.64483   0.65079   0.65640   0.66328
 Alpha virt. eigenvalues --    0.67042   0.67826   0.68654   0.69150   0.70487
 Alpha virt. eigenvalues --    0.70782   0.71455   0.71609   0.72319   0.72475
 Alpha virt. eigenvalues --    0.73245   0.73991   0.74113   0.74690   0.74976
 Alpha virt. eigenvalues --    0.75404   0.75731   0.76097   0.76238   0.77348
 Alpha virt. eigenvalues --    0.77480   0.77808   0.78043   0.78248   0.78642
 Alpha virt. eigenvalues --    0.78816   0.78951   0.79385   0.79943   0.80401
 Alpha virt. eigenvalues --    0.81058   0.81452   0.81887   0.82454   0.82961
 Alpha virt. eigenvalues --    0.83506   0.83977   0.84417   0.84624   0.84980
 Alpha virt. eigenvalues --    0.85065   0.86113   0.86399   0.86826   0.87022
 Alpha virt. eigenvalues --    0.87578   0.88062   0.88511   0.89104   0.89789
 Alpha virt. eigenvalues --    0.90235   0.90781   0.91445   0.91802   0.92719
 Alpha virt. eigenvalues --    0.93318   0.93709   0.94274   0.95356   0.95473
 Alpha virt. eigenvalues --    0.96048   0.96921   0.97594   0.98364   0.98476
 Alpha virt. eigenvalues --    0.99824   0.99954   1.00763   1.02549   1.02878
 Alpha virt. eigenvalues --    1.03854   1.04704   1.05456   1.06291   1.07569
 Alpha virt. eigenvalues --    1.08605   1.09826   1.10508   1.11172   1.12045
 Alpha virt. eigenvalues --    1.13706   1.14267   1.14650   1.15768   1.16554
 Alpha virt. eigenvalues --    1.17041   1.17515   1.18562   1.19321   1.21068
 Alpha virt. eigenvalues --    1.21782   1.22355   1.23659   1.25023   1.25195
 Alpha virt. eigenvalues --    1.26127   1.27021   1.27194   1.29369   1.30211
 Alpha virt. eigenvalues --    1.30351   1.31555   1.32832   1.33307   1.34828
 Alpha virt. eigenvalues --    1.35286   1.36692   1.37617   1.38532   1.39319
 Alpha virt. eigenvalues --    1.39830   1.41006   1.41777   1.41953   1.42681
 Alpha virt. eigenvalues --    1.44031   1.44738   1.45054   1.46304   1.47003
 Alpha virt. eigenvalues --    1.48448   1.49318   1.50250   1.52206   1.53140
 Alpha virt. eigenvalues --    1.53739   1.53887   1.54339   1.55435   1.57733
 Alpha virt. eigenvalues --    1.58728   1.60574   1.61558   1.61960   1.63222
 Alpha virt. eigenvalues --    1.63801   1.64926   1.66694   1.66999   1.67283
 Alpha virt. eigenvalues --    1.67814   1.68263   1.69528   1.69849   1.70522
 Alpha virt. eigenvalues --    1.71255   1.71910   1.73069   1.73466   1.74747
 Alpha virt. eigenvalues --    1.74901   1.76379   1.77153   1.77681   1.78497
 Alpha virt. eigenvalues --    1.79549   1.80150   1.80849   1.81165   1.81599
 Alpha virt. eigenvalues --    1.82176   1.82779   1.83098   1.83424   1.84081
 Alpha virt. eigenvalues --    1.84319   1.85633   1.86159   1.86538   1.87160
 Alpha virt. eigenvalues --    1.87484   1.87984   1.89032   1.89737   1.90085
 Alpha virt. eigenvalues --    1.91171   1.91522   1.92124   1.92564   1.93307
 Alpha virt. eigenvalues --    1.94100   1.94490   1.95311   1.95648   1.95952
 Alpha virt. eigenvalues --    1.97049   1.97788   1.98232   1.98840   1.99588
 Alpha virt. eigenvalues --    2.00073   2.01668   2.02830   2.03500   2.04687
 Alpha virt. eigenvalues --    2.05163   2.06060   2.06273   2.07148   2.08277
 Alpha virt. eigenvalues --    2.08526   2.09755   2.10276   2.11867   2.12711
 Alpha virt. eigenvalues --    2.14877   2.15918   2.16473   2.16849   2.17714
 Alpha virt. eigenvalues --    2.18966   2.19604   2.20923   2.21358   2.22315
 Alpha virt. eigenvalues --    2.22667   2.24118   2.24661   2.25372   2.25841
 Alpha virt. eigenvalues --    2.26712   2.27279   2.29349   2.29964   2.30497
 Alpha virt. eigenvalues --    2.31077   2.31808   2.32433   2.32659   2.35222
 Alpha virt. eigenvalues --    2.36559   2.38170   2.39908   2.39916   2.41405
 Alpha virt. eigenvalues --    2.41632   2.42999   2.43729   2.44522   2.45184
 Alpha virt. eigenvalues --    2.45858   2.46687   2.47297   2.48397   2.49619
 Alpha virt. eigenvalues --    2.51260   2.51408   2.52328   2.52903   2.54125
 Alpha virt. eigenvalues --    2.55384   2.57351   2.57562   2.58327   2.59245
 Alpha virt. eigenvalues --    2.59817   2.59943   2.60244   2.60893   2.62472
 Alpha virt. eigenvalues --    2.64854   2.66047   2.67784   2.69444   2.69581
 Alpha virt. eigenvalues --    2.72379   2.73806   2.76285   2.77755   2.81017
 Alpha virt. eigenvalues --    2.83930   2.87423   2.88145   2.90503   2.91623
 Alpha virt. eigenvalues --    2.92701   2.93858   2.95921   2.96820   2.98015
 Alpha virt. eigenvalues --    3.04643   3.05830   3.08516   3.09227   3.16352
 Alpha virt. eigenvalues --    3.36007   3.66150   3.74127   3.78037   3.82886
 Alpha virt. eigenvalues --    3.88640   3.94062   3.97436   4.00012   4.01665
 Alpha virt. eigenvalues --    4.04299   4.05657   4.09628   4.10729   4.12339
 Alpha virt. eigenvalues --    4.13311   4.15572   4.18207   4.19554   4.22856
 Alpha virt. eigenvalues --    4.25076   4.28034   4.29870   4.32315   4.34248
 Alpha virt. eigenvalues --    4.37195   4.38076   4.44089   4.47783   4.50531
 Alpha virt. eigenvalues --    4.51962   4.60811   4.63031   4.67533   4.71532
          Condensed to atoms (all electrons):
 Mulliken charges:
               1
     1  N   -0.762977
     2  C   -0.108162
     3  C    0.626959
     4  O   -0.515592
     5  C   -0.411048
     6  C    0.012933
     7  C   -0.009310
     8  C    0.086639
     9  C    0.309242
    10  C   -0.215739
    11  N   -0.682709
    12  C   -0.157459
    13  C   -0.136606
    14  C   -0.147968
    15  H    0.217189
    16  H    0.211690
    17  H    0.183460
    18  H    0.161477
    19  H    0.341144
    20  H    0.129697
    21  H    0.143184
    22  H    0.145677
    23  H    0.149458
    24  H    0.390648
    25  H    0.405927
    26  N   -0.622933
    27  C   -0.063508
    28  C    0.621381
    29  O   -0.480529
    30  C   -0.066612
    31  C   -0.265473
    32  C   -0.458743
    33  C   -0.452693
    34  H    0.368279
    35  H    0.161648
    36  H    0.178829
    37  H    0.119898
    38  H    0.156620
    39  H    0.131540
    40  H    0.168417
    41  H    0.134346
    42  H    0.146707
    43  H    0.162252
    44  H    0.151962
    45  N   -0.611259
    46  C   -0.017066
    47  C    0.592059
    48  O   -0.565196
    49  C   -0.271157
    50  C   -0.309281
    51  C   -0.156716
    52  N   -0.604800
    53  C    0.772139
    54  N   -0.750766
    55  N   -0.778523
    56  O   -0.642980
    57  H    0.438462
    58  H    0.338343
    59  H    0.138150
    60  H    0.156556
    61  H    0.163371
    62  H    0.188644
    63  H    0.172594
    64  H    0.174616
    65  H    0.182587
    66  H    0.389685
    67  H    0.377807
    68  H    0.385524
    69  H    0.418063
    70  H    0.360004
 Sum of Mulliken charges =   1.00000
 Mulliken charges with hydrogens summed into heavy atoms:
               1
     1  N    0.472060
     2  C    0.109027
     3  C    0.626959
     4  O   -0.515592
     5  C   -0.015898
     6  C    0.012933
     7  C    0.152167
     8  C    0.086639
     9  C    0.309242
    10  C   -0.086042
    11  N   -0.341565
    12  C   -0.014275
    13  C    0.009070
    14  C    0.001490
    26  N   -0.254654
    27  C    0.098140
    28  C    0.621381
    29  O   -0.480529
    30  C    0.112216
    31  C    0.011044
    32  C   -0.024440
    33  C    0.008227
    45  N   -0.272916
    46  C    0.121085
    47  C    0.592059
    48  O   -0.565196
    49  C    0.048770
    50  C    0.051957
    51  C    0.200487
    52  N   -0.215115
    53  C    0.772139
    54  N    0.012565
    55  N   -0.000455
    56  O   -0.642980
 Electronic spatial extent (au):  <R**2>=        8513544.6138
 Charge=              1.0000 electrons
 Dipole moment (field-independent basis, Debye):
    X=           -463.3980    Y=            -55.5087    Z=             34.6661  Tot=            467.9965
 Quadrupole moment (field-independent basis, Debye-Ang):
   XX=          44523.9743   YY=            500.6193   ZZ=             83.2242
   XY=           5404.1402   XZ=          -3342.1007   YZ=           -392.7194
 Traceless Quadrupole moment (field-independent basis, Debye-Ang):
   XX=          29488.0350   YY=         -14535.3200   ZZ=         -14952.7150
   XY=           5404.1402   XZ=          -3342.1007   YZ=           -392.7194
 Octapole moment (field-independent basis, Debye-Ang**2):
  XXX=       -4260831.7010  YYY=          -1174.0808  ZZZ=           -374.5618  XYY=         -49720.3954
  XXY=        -523433.7438  XXZ=         321468.2660  XZZ=          -8084.2906  YZZ=           -370.6643
  YYZ=           3897.2832  XYZ=          38180.2583
 Hexadecapole moment (field-independent basis, Debye-Ang**3):
 XXXX=      406132808.5156 YYYY=        -104874.3270 ZZZZ=         -10147.2011 XXXY=       50449532.4436
 XXXZ=      -30851438.3523 YYYX=         143166.2746 YYYZ=         -26000.8264 ZZZX=          37078.6007
 ZZZY=          11279.1889 XXYY=        4892903.1013 XXZZ=         780055.6405 YYZZ=          -7829.3476
 XXYZ=       -3701252.6134 YYXZ=        -383937.1029 ZZXY=          38094.9279
 N-N= 3.848100213842D+03 E-N=-1.135245791121D+04  KE= 1.567331258981D+03
 Unable to Open any file for archive entry.
 1\1\GINC-QML-002\SP\RB3LYP\6-31G(d)\C23H36N7O4(1+)\KENGMITH\24-May-202
 2\0\\# B3LYP/6-31G* empiricaldispersion=gd3 guess=read geom=check nosy
 mm integral(ultrafinegrid)\\Candidate Structure: Conf:684 Charge calc 
 in gas phase\\1,1\N,0,-96.0940200581,-15.6418456168,6.2365939911\C,0,-
 96.2860754944,-15.8159225274,4.7503676016\C,0,-94.8858765252,-15.53981
 48122,4.1664407622\O,0,-93.9654702066,-16.2480425394,4.5648598914\C,0,
 -97.5082737962,-15.0091526491,4.2891546402\C,0,-98.7412399681,-15.4214
 026803,5.038876759\C,0,-99.4361989668,-14.6593526974,5.951024452\C,0,-
 99.3996268496,-16.7057704457,4.986076479\C,0,-100.4920900189,-16.64950
 54251,5.8921315837\C,0,-99.1794996506,-17.8874367384,4.2549261451\N,0,
 -100.4837809885,-15.3918914464,6.4674786383\C,0,-101.3555018835,-17.73
 17497865,6.0909889816\C,0,-100.0333522958,-18.9645784793,4.4492452116\
 C,0,-101.1086921514,-18.8870667609,5.3596829149\H,0,-96.4674556335,-16
 .8831832547,4.5974043765\H,0,-97.3216578982,-13.9387040815,4.425602653
 4\H,0,-97.6268661534,-15.1936575852,3.2133922568\H,0,-99.2703456468,-1
 3.6337787884,6.2524025171\H,0,-101.184521056,-15.0393585888,7.10131412
 2\H,0,-98.3675625341,-17.9541426076,3.5348151418\H,0,-102.1881317999,-
 17.6707558685,6.7859158604\H,0,-99.8782411608,-19.881448454,3.88870570
 09\H,0,-101.7600546032,-19.7463397991,5.4871667428\H,0,-96.9597225556,
 -15.8830251813,6.7310746325\H,0,-95.3158382033,-16.2399881617,6.536611
 3527\N,0,-94.7550622911,-14.5205228418,3.2966233117\C,0,-93.4658906645
 ,-14.1556284337,2.6954432445\C,0,-92.3781625143,-13.9616777252,3.78872
 63302\O,0,-91.3187846971,-14.5635627544,3.742467622\C,0,-92.9924154041
 ,-15.1517064839,1.6076764968\C,0,-91.9013641944,-14.4875300659,0.73831
 94445\C,0,-94.1692281744,-15.6304734814,0.746314545\C,0,-91.0887031823
 ,-15.4861580258,-0.0917931437\H,0,-95.5432767836,-13.9116521525,3.1266
 603795\H,0,-93.6480829721,-13.1913720902,2.2103202001\H,0,-92.55237181
 71,-16.0074473188,2.1293316608\H,0,-92.380292668,-13.7509735505,0.0747
 55366\H,0,-91.2102452668,-13.9360941927,1.3823357533\H,0,-94.691515394
 7,-14.7845265465,0.2791103278\H,0,-93.8138482864,-16.2815024519,-0.057
 0360495\H,0,-94.9009220898,-16.2010207876,1.3265404388\H,0,-91.7134312
 667,-16.0489132588,-0.7938868155\H,0,-90.5828676882,-16.205181815,0.56
 24290775\H,0,-90.3214158975,-14.9691309602,-0.677821873\N,0,-92.622141
 1946,-13.1138421079,4.8533171065\C,0,-93.5708270433,-12.0143299788,5.0
 570921937\C,0,-94.9994629124,-12.5209026828,5.3871900978\O,0,-95.96378
 32715,-12.1811063342,4.6694225048\C,0,-93.4673995886,-10.9197894623,3.
 9718372475\C,0,-94.3980018786,-9.6921306085,4.0759354545\C,0,-94.50345
 64978,-9.0150636443,5.4497574158\N,0,-95.329603635,-9.833838658,6.3578
 840252\C,0,-95.1429219673,-9.9711549289,7.6711361884\N,0,-94.538199530
 2,-8.9890567442,8.3652224921\N,0,-95.5517055941,-11.0933617158,8.27879
 65081\O,0,-95.0852120557,-13.1975057248,6.4771820328\H,0,-95.817392961
 4,-14.6198881322,6.4354924506\H,0,-91.8297806301,-13.1296000081,5.4832
 761789\H,0,-93.2396841698,-11.5728219831,6.0042546904\H,0,-92.42302773
 53,-10.5833457491,3.9755298857\H,0,-93.641259486,-11.3606281692,2.9871
 960999\H,0,-95.4035895224,-9.9660231685,3.7446094997\H,0,-94.031610301
 1,-8.9343555814,3.3741016421\H,0,-93.5132304965,-8.8866569446,5.903578
 6097\H,0,-94.957419363,-8.023173722,5.3388789375\H,0,-95.9368640618,-1
 0.5158914056,5.904175751\H,0,-94.2450942013,-9.128054177,9.320967732\H
 ,0,-94.50355557,-8.0480233021,8.0004390962\H,0,-95.5357683818,-11.9736
 894995,7.7353933992\H,0,-95.5559693785,-11.1492728147,9.2874301241\\Ve
 rsion=ES64L-G16RevC.01\HF=-1582.2423744\RMSD=6.143e-09\Dipole=-1.58551
 5,4.7101671,4.8037258\Quadrupole=21923.631308,-10806.6541668,-11116.97
 71413,4017.8457706,-2484.7699673,-291.9772822\PG=C01 [X(C23H36N7O4)]\\
 @
 The archive entry for this job was punched.


 IF YOU GIVE EVERYONE A PIECE OF YOUR MIND,
 PRETTY SOON IT WILL BE ALL GONE.
 Job cpu time:       0 days  0 hours  2 minutes 24.3 seconds.
 Elapsed time:       0 days  0 hours  0 minutes 36.6 seconds.
 File lengths (MBytes):  RWF=    296 Int=      0 D2E=      0 Chk=     40 Scr=     16
 Normal termination of Gaussian 16 at Tue May 24 23:10:42 2022.
