 Entering Gaussian System, Link 0=/opt/software/Gaussian/g16-AVX-C.01/g16/g16
 Input=charge-conf-652.com
 Output=charge-conf-652.log
 Initial command:
 /opt/software/Gaussian/g16-AVX-C.01/g16/l1.exe "/mnt/gs18/scratch/users/kengmith/Gau-36110.inp" -scrdir="/mnt/gs18/scratch/users/kengmith/"
 Entering Link 1 = /opt/software/Gaussian/g16-AVX-C.01/g16/l1.exe PID=     36129.
  
 Copyright (c) 1988-2019, Gaussian, Inc.  All Rights Reserved.
  
 This is part of the Gaussian(R) 16 program.  It is based on
 the Gaussian(R) 09 system (copyright 2009, Gaussian, Inc.),
 the Gaussian(R) 03 system (copyright 2003, Gaussian, Inc.),
 the Gaussian(R) 98 system (copyright 1998, Gaussian, Inc.),
 the Gaussian(R) 94 system (copyright 1995, Gaussian, Inc.),
 the Gaussian 92(TM) system (copyright 1992, Gaussian, Inc.),
 the Gaussian 90(TM) system (copyright 1990, Gaussian, Inc.),
 the Gaussian 88(TM) system (copyright 1988, Gaussian, Inc.),
 the Gaussian 86(TM) system (copyright 1986, Carnegie Mellon
 University), and the Gaussian 82(TM) system (copyright 1983,
 Carnegie Mellon University). Gaussian is a federally registered
 trademark of Gaussian, Inc.
  
 This software contains proprietary and confidential information,
 including trade secrets, belonging to Gaussian, Inc.
  
 This software is provided under written license and may be
 used, copied, transmitted, or stored only in accord with that
 written license.
  
 The following legend is applicable only to US Government
 contracts under FAR:
  
                    RESTRICTED RIGHTS LEGEND
  
 Use, reproduction and disclosure by the US Government is
 subject to restrictions as set forth in subparagraphs (a)
 and (c) of the Commercial Computer Software - Restricted
 Rights clause in FAR 52.227-19.
  
 Gaussian, Inc.
 340 Quinnipiac St., Bldg. 40, Wallingford CT 06492
  
  
 ---------------------------------------------------------------
 Warning -- This program may not be used in any manner that
 competes with the business of Gaussian, Inc. or will provide
 assistance to any competitor of Gaussian, Inc.  The licensee
 of this program is prohibited from giving any competitor of
 Gaussian, Inc. access to this program.  By using this program,
 the user acknowledges that Gaussian, Inc. is engaged in the
 business of creating and licensing software in the field of
 computational chemistry and represents and warrants to the
 licensee that it is not a competitor of Gaussian, Inc. and that
 it will not use this program in any manner prohibited above.
 ---------------------------------------------------------------
  

 Cite this work as:
 Gaussian 16, Revision C.01,
 M. J. Frisch, G. W. Trucks, H. B. Schlegel, G. E. Scuseria, 
 M. A. Robb, J. R. Cheeseman, G. Scalmani, V. Barone, 
 G. A. Petersson, H. Nakatsuji, X. Li, M. Caricato, A. V. Marenich, 
 J. Bloino, B. G. Janesko, R. Gomperts, B. Mennucci, H. P. Hratchian, 
 J. V. Ortiz, A. F. Izmaylov, J. L. Sonnenberg, D. Williams-Young, 
 F. Ding, F. Lipparini, F. Egidi, J. Goings, B. Peng, A. Petrone, 
 T. Henderson, D. Ranasinghe, V. G. Zakrzewski, J. Gao, N. Rega, 
 G. Zheng, W. Liang, M. Hada, M. Ehara, K. Toyota, R. Fukuda, 
 J. Hasegawa, M. Ishida, T. Nakajima, Y. Honda, O. Kitao, H. Nakai, 
 T. Vreven, K. Throssell, J. A. Montgomery, Jr., J. E. Peralta, 
 F. Ogliaro, M. J. Bearpark, J. J. Heyd, E. N. Brothers, K. N. Kudin, 
 V. N. Staroverov, T. A. Keith, R. Kobayashi, J. Normand, 
 K. Raghavachari, A. P. Rendell, J. C. Burant, S. S. Iyengar, 
 J. Tomasi, M. Cossi, J. M. Millam, M. Klene, C. Adamo, R. Cammi, 
 J. W. Ochterski, R. L. Martin, K. Morokuma, O. Farkas, 
 J. B. Foresman, and D. J. Fox, Gaussian, Inc., Wallingford CT, 2019.
 
 ******************************************
 Gaussian 16:  ES64L-G16RevC.01  3-Jul-2019
                24-May-2022 
 ******************************************
 %mem=8gb
 %nproc=4
 Will use up to    4 processors via shared memory.
 %chk=conf-652.chk
 ----------------------------------------------------------------------
 # B3LYP/6-31G* empiricaldispersion=gd3 guess=read geom=check nosymm in
 tegral(ultrafinegrid)
 ----------------------------------------------------------------------
 1/29=2,38=1,172=1/1;
 2/12=2,15=1,40=1/2;
 3/5=1,6=6,7=1,11=2,14=-4,25=1,30=1,74=-5,75=-5,116=-2,124=31/1,2,3;
 4/5=1/1;
 5/5=2,38=6/2;
 6/7=2,8=2,9=2,10=2,28=1/1;
 99/5=1,9=1/99;
 ------------------------------------------------------
 Candidate Structure: Conf:652 Charge calc in gas phase
 ------------------------------------------------------
 Structure from the checkpoint file:  "conf-652.chk"
 Charge =  1 Multiplicity = 1
 Redundant internal coordinates found in file.  (old form).
 N,0,-94.8696546396,-16.0630895539,4.0452686183
 C,0,-94.5784324654,-14.7747025436,3.3121572985
 C,0,-93.7857385284,-13.9675786158,4.3621444939
 O,0,-92.7963345424,-14.5090607392,4.8510490293
 C,0,-95.8782208501,-14.2115153154,2.7109781527
 C,0,-96.6608313215,-15.2733604885,1.9962565504
 C,0,-97.8812962911,-15.7704099673,2.3913738162
 C,0,-96.2607132355,-16.0309246711,0.8336126914
 C,0,-97.2978026166,-16.9685409584,0.5734227874
 C,0,-95.1364045225,-16.0051392508,-0.0131507772
 N,0,-98.2672993361,-16.7881045571,1.5434944995
 C,0,-97.2403246884,-17.869468628,-0.4950553043
 C,0,-95.0742167444,-16.8999264096,-1.0728144948
 C,0,-96.1155875486,-17.8226120791,-1.3097729342
 H,0,-93.8707596345,-15.0360051363,2.5212951386
 H,0,-96.5036268889,-13.7792265737,3.4981665339
 H,0,-95.5900431502,-13.403147485,2.0263167086
 H,0,-98.5041432301,-15.4590435779,3.2191134262
 H,0,-99.1601214157,-17.2570199623,1.5627985786
 H,0,-94.3380690574,-15.2838623634,0.1434934063
 H,0,-98.0438423463,-18.5759287595,-0.6831470109
 H,0,-94.2153783479,-16.8877091383,-1.7371184721
 H,0,-96.0385006638,-18.5066850801,-2.1494850036
 H,0,-95.2761889377,-16.7538742881,3.40634144
 H,0,-93.9911477951,-16.3981109276,4.4600950792
 N,0,-94.2681407785,-12.7684535248,4.7275622367
 C,0,-93.6842350077,-11.9700937016,5.812479937
 C,0,-93.4318038367,-12.8491467095,7.0713264009
 O,0,-92.3355290878,-12.9014682467,7.5991035965
 C,0,-92.4045943475,-11.2010945213,5.4020978763
 C,0,-92.1386319597,-10.068377775,6.4187505866
 C,0,-92.524168715,-10.6509233413,3.9742882674
 C,0,-90.7193570263,-9.4960945478,6.3439174055
 H,0,-95.1438180384,-12.4476949381,4.3402391965
 H,0,-94.4605938665,-11.2354699263,6.0528099171
 H,0,-91.5752051067,-11.9143119502,5.4478257008
 H,0,-92.8749745863,-9.2666445273,6.2523406817
 H,0,-92.3016505868,-10.446302964,7.4326101187
 H,0,-93.398036809,-9.9929353914,3.8723471928
 H,0,-91.6387522936,-10.0642948695,3.7147345076
 H,0,-92.6140987246,-11.4503023414,3.2324409162
 H,0,-90.4996121776,-9.0559018255,5.365241599
 H,0,-89.9788526049,-10.2808799667,6.5359017755
 H,0,-90.5778817163,-8.7115120024,7.0950141697
 N,0,-94.4658658532,-13.6307891158,7.5693732346
 C,0,-95.918670355,-13.410135895,7.5434648197
 C,0,-96.5419568923,-13.7937233244,6.1769487626
 O,0,-97.1130160076,-12.919084296,5.4895035444
 C,0,-96.3120674359,-12.0281739065,8.1204817499
 C,0,-97.7929582495,-11.5924375514,8.0932761452
 C,0,-98.8389533085,-12.6157367802,8.5586791506
 N,0,-99.0484409039,-13.6347702346,7.5135443896
 C,0,-99.372997472,-14.91111797,7.718076466
 N,0,-100.0318303845,-15.264745958,8.836624908
 N,0,-99.0407705493,-15.826524567,6.7968435289
 O,0,-96.513318541,-15.0488688504,5.900266939
 H,0,-95.5641840092,-15.8282062258,4.8147875082
 H,0,-94.1277151472,-14.139852038,8.3782076378
 H,0,-96.3107694883,-14.1793992356,8.2184370307
 H,0,-95.9543267549,-12.0247381986,9.1582337727
 H,0,-95.7482570101,-11.2441048001,7.6083828897
 H,0,-98.0568032761,-11.2642631418,7.0834464995
 H,0,-97.8932066998,-10.7163377193,8.7437776684
 H,0,-98.5187450396,-13.1207862122,9.4786019993
 H,0,-99.7867274143,-12.1032823229,8.7641836577
 H,0,-98.7157580304,-13.3855393977,6.5799258986
 H,0,-100.1094795292,-16.2305082338,9.1187771996
 H,0,-100.5018795973,-14.5726617386,9.4017774831
 H,0,-98.1654935297,-15.6727362931,6.2656593087
 H,0,-99.406836243,-16.7651959627,6.8693112032
 Recover connectivity data from disk.
                           ----------------------------
                           !    Current Parameters    !
                           ! (Angstroms and Degrees)  !
 --------------------------                            --------------------------
 ! Name  Definition              Value                                          !
 --------------------------------------------------------------------------------
 ! R1    R(1,2)                  1.5107                                         !
 ! R2    R(1,24)                 1.025                                          !
 ! R3    R(1,25)                 1.0277                                         !
 ! R4    R(2,3)                  1.5435                                         !
 ! R5    R(2,5)                  1.5388                                         !
 ! R6    R(2,15)                 1.093                                          !
 ! R7    R(3,4)                  1.2293                                         !
 ! R8    R(3,26)                 1.3432                                         !
 ! R9    R(5,6)                  1.5003                                         !
 ! R10   R(5,16)                 1.0944                                         !
 ! R11   R(5,17)                 1.0978                                         !
 ! R12   R(6,7)                  1.3758                                         !
 ! R13   R(6,8)                  1.4442                                         !
 ! R14   R(7,11)                 1.3797                                         !
 ! R15   R(7,18)                 1.0817                                         !
 ! R16   R(8,9)                  1.4221                                         !
 ! R17   R(8,10)                 1.4077                                         !
 ! R18   R(9,11)                 1.3833                                         !
 ! R19   R(9,12)                 1.3988                                         !
 ! R20   R(10,13)                1.3883                                         !
 ! R21   R(10,20)                1.0873                                         !
 ! R22   R(11,19)                1.0087                                         !
 ! R23   R(12,14)                1.3896                                         !
 ! R24   R(12,21)                1.0863                                         !
 ! R25   R(13,14)                1.4114                                         !
 ! R26   R(13,22)                1.0858                                         !
 ! R27   R(14,23)                1.0858                                         !
 ! R28   R(26,27)                1.4681                                         !
 ! R29   R(26,34)                1.0098                                         !
 ! R30   R(27,28)                1.556                                          !
 ! R31   R(27,30)                1.5483                                         !
 ! R32   R(27,35)                1.0955                                         !
 ! R33   R(28,29)                1.2178                                         !
 ! R34   R(28,45)                1.3886                                         !
 ! R35   R(30,31)                1.5451                                         !
 ! R36   R(30,32)                1.5348                                         !
 ! R37   R(30,36)                1.0948                                         !
 ! R38   R(31,33)                1.5321                                         !
 ! R39   R(31,37)                1.1012                                         !
 ! R40   R(31,38)                1.0942                                         !
 ! R41   R(32,39)                1.0986                                         !
 ! R42   R(32,40)                1.0934                                         !
 ! R43   R(32,41)                1.0943                                         !
 ! R44   R(33,42)                1.0954                                         !
 ! R45   R(33,43)                1.0959                                         !
 ! R46   R(33,44)                1.0953                                         !
 ! R47   R(45,46)                1.4697                                         !
 ! R48   R(45,58)                1.0138                                         !
 ! R49   R(46,47)                1.5502                                         !
 ! R50   R(46,49)                1.5484                                         !
 ! R51   R(46,59)                1.0959                                         !
 ! R52   R(47,48)                1.2505                                         !
 ! R53   R(47,56)                1.2856                                         !
 ! R54   R(49,50)                1.5439                                         !
 ! R55   R(49,60)                1.0977                                         !
 ! R56   R(49,61)                1.0931                                         !
 ! R57   R(50,51)                1.5355                                         !
 ! R58   R(50,62)                1.0941                                         !
 ! R59   R(50,63)                1.0958                                         !
 ! R60   R(51,52)                1.4747                                         !
 ! R61   R(51,64)                1.0972                                         !
 ! R62   R(51,65)                1.0969                                         !
 ! R63   R(52,53)                1.3328                                         !
 ! R64   R(52,66)                1.022                                          !
 ! R65   R(53,54)                1.3455                                         !
 ! R66   R(53,55)                1.3405                                         !
 ! R67   R(54,67)                1.0091                                         !
 ! R68   R(54,68)                1.0096                                         !
 ! R69   R(55,69)                1.0353                                         !
 ! R70   R(55,70)                1.0101                                         !
 ! R71   R(56,57)                1.6391                                         !
 ! A1    A(2,1,24)             110.4087                                         !
 ! A2    A(2,1,25)             108.0064                                         !
 ! A3    A(24,1,25)            111.7746                                         !
 ! A4    A(1,2,3)              102.4071                                         !
 ! A5    A(1,2,5)              109.8087                                         !
 ! A6    A(1,2,15)             105.7875                                         !
 ! A7    A(3,2,5)              120.5426                                         !
 ! A8    A(3,2,15)             106.5431                                         !
 ! A9    A(5,2,15)             110.592                                          !
 ! A10   A(2,3,4)              116.9732                                         !
 ! A11   A(2,3,26)             117.8699                                         !
 ! A12   A(4,3,26)             125.037                                          !
 ! A13   A(2,5,6)              111.5733                                         !
 ! A14   A(2,5,16)             110.2581                                         !
 ! A15   A(2,5,17)             106.9418                                         !
 ! A16   A(6,5,16)             108.9134                                         !
 ! A17   A(6,5,17)             111.16                                           !
 ! A18   A(16,5,17)            107.923                                          !
 ! A19   A(5,6,7)              125.5669                                         !
 ! A20   A(5,6,8)              127.608                                          !
 ! A21   A(7,6,8)              106.7064                                         !
 ! A22   A(6,7,11)             109.7667                                         !
 ! A23   A(6,7,18)             128.7991                                         !
 ! A24   A(11,7,18)            121.4323                                         !
 ! A25   A(6,8,9)              106.9235                                         !
 ! A26   A(6,8,10)             134.0985                                         !
 ! A27   A(9,8,10)             118.977                                          !
 ! A28   A(8,9,11)             107.2657                                         !
 ! A29   A(8,9,12)             122.3059                                         !
 ! A30   A(11,9,12)            130.4274                                         !
 ! A31   A(8,10,13)            118.887                                          !
 ! A32   A(8,10,20)            120.7919                                         !
 ! A33   A(13,10,20)           120.3078                                         !
 ! A34   A(7,11,9)             109.335                                          !
 ! A35   A(7,11,19)            125.3656                                         !
 ! A36   A(9,11,19)            124.9704                                         !
 ! A37   A(9,12,14)            117.3476                                         !
 ! A38   A(9,12,21)            121.3805                                         !
 ! A39   A(14,12,21)           121.2716                                         !
 ! A40   A(10,13,14)           121.0946                                         !
 ! A41   A(10,13,22)           119.679                                          !
 ! A42   A(14,13,22)           119.2246                                         !
 ! A43   A(12,14,13)           121.3872                                         !
 ! A44   A(12,14,23)           119.3159                                         !
 ! A45   A(13,14,23)           119.2961                                         !
 ! A46   A(3,26,27)            122.9343                                         !
 ! A47   A(3,26,34)            119.3845                                         !
 ! A48   A(27,26,34)           117.104                                          !
 ! A49   A(26,27,28)           110.8036                                         !
 ! A50   A(26,27,30)           113.7614                                         !
 ! A51   A(26,27,35)           104.1769                                         !
 ! A52   A(28,27,30)           111.1582                                         !
 ! A53   A(28,27,35)           108.4406                                         !
 ! A54   A(30,27,35)           108.1069                                         !
 ! A55   A(27,28,29)           121.3941                                         !
 ! A56   A(27,28,45)           119.167                                          !
 ! A57   A(29,28,45)           119.3878                                         !
 ! A58   A(27,30,31)           109.3885                                         !
 ! A59   A(27,30,32)           111.1139                                         !
 ! A60   A(27,30,36)           106.9463                                         !
 ! A61   A(31,30,32)           111.2681                                         !
 ! A62   A(31,30,36)           108.6441                                         !
 ! A63   A(32,30,36)           109.3533                                         !
 ! A64   A(30,31,33)           113.6495                                         !
 ! A65   A(30,31,37)           108.6145                                         !
 ! A66   A(30,31,38)           109.3182                                         !
 ! A67   A(33,31,37)           109.8823                                         !
 ! A68   A(33,31,38)           108.1961                                         !
 ! A69   A(37,31,38)           106.969                                          !
 ! A70   A(30,32,39)           111.2833                                         !
 ! A71   A(30,32,40)           110.4919                                         !
 ! A72   A(30,32,41)           112.0377                                         !
 ! A73   A(39,32,40)           107.5036                                         !
 ! A74   A(39,32,41)           108.0135                                         !
 ! A75   A(40,32,41)           107.3111                                         !
 ! A76   A(31,33,42)           112.3073                                         !
 ! A77   A(31,33,43)           110.4798                                         !
 ! A78   A(31,33,44)           110.7143                                         !
 ! A79   A(42,33,43)           107.9828                                         !
 ! A80   A(42,33,44)           107.3918                                         !
 ! A81   A(43,33,44)           107.7903                                         !
 ! A82   A(28,45,46)           130.1861                                         !
 ! A83   A(28,45,58)           108.6886                                         !
 ! A84   A(46,45,58)           114.7831                                         !
 ! A85   A(45,46,47)           112.0767                                         !
 ! A86   A(45,46,49)           112.2455                                         !
 ! A87   A(45,46,59)           103.7344                                         !
 ! A88   A(47,46,49)           116.5645                                         !
 ! A89   A(47,46,59)           103.0251                                         !
 ! A90   A(49,46,59)           107.822                                          !
 ! A91   A(46,47,48)           119.6804                                         !
 ! A92   A(46,47,56)           114.9832                                         !
 ! A93   A(48,47,56)           125.0812                                         !
 ! A94   A(46,49,50)           119.2765                                         !
 ! A95   A(46,49,60)           105.8011                                         !
 ! A96   A(46,49,61)           109.5457                                         !
 ! A97   A(50,49,60)           109.1703                                         !
 ! A98   A(50,49,61)           106.5014                                         !
 ! A99   A(60,49,61)           105.8165                                         !
 ! A100  A(49,50,51)           117.3851                                         !
 ! A101  A(49,50,62)           109.404                                          !
 ! A102  A(49,50,63)           107.6341                                         !
 ! A103  A(51,50,62)           108.3827                                         !
 ! A104  A(51,50,63)           106.8917                                         !
 ! A105  A(62,50,63)           106.6208                                         !
 ! A106  A(50,51,52)           110.0276                                         !
 ! A107  A(50,51,64)           111.2274                                         !
 ! A108  A(50,51,65)           109.5142                                         !
 ! A109  A(52,51,64)           108.5171                                         !
 ! A110  A(52,51,65)           109.4439                                         !
 ! A111  A(64,51,65)           108.0677                                         !
 ! A112  A(51,52,53)           125.9877                                         !
 ! A113  A(51,52,66)           115.6382                                         !
 ! A114  A(53,52,66)           116.9377                                         !
 ! A115  A(52,53,54)           119.9032                                         !
 ! A116  A(52,53,55)           119.2192                                         !
 ! A117  A(54,53,55)           120.8769                                         !
 ! A118  A(53,54,67)           121.4437                                         !
 ! A119  A(53,54,68)           120.8754                                         !
 ! A120  A(67,54,68)           117.6261                                         !
 ! A121  A(53,55,69)           117.4301                                         !
 ! A122  A(53,55,70)           119.6993                                         !
 ! A123  A(69,55,70)           118.7644                                         !
 ! A124  A(47,56,57)           128.2903                                         !
 ! D1    D(24,1,2,3)          -171.4697                                         !
 ! D2    D(24,1,2,5)            59.3106                                         !
 ! D3    D(24,1,2,15)          -60.0514                                         !
 ! D4    D(25,1,2,3)           -48.9817                                         !
 ! D5    D(25,1,2,5)          -178.2013                                         !
 ! D6    D(25,1,2,15)           62.4366                                         !
 ! D7    D(1,2,3,4)             54.0527                                         !
 ! D8    D(1,2,3,26)          -122.1696                                         !
 ! D9    D(5,2,3,4)            176.2401                                         !
 ! D10   D(5,2,3,26)             0.0178                                         !
 ! D11   D(15,2,3,4)           -56.7991                                         !
 ! D12   D(15,2,3,26)          126.9786                                         !
 ! D13   D(1,2,5,6)            -46.9195                                         !
 ! D14   D(1,2,5,16)            74.2431                                         !
 ! D15   D(1,2,5,17)          -168.67                                           !
 ! D16   D(3,2,5,6)           -165.4542                                         !
 ! D17   D(3,2,5,16)           -44.2916                                         !
 ! D18   D(3,2,5,17)            72.7954                                         !
 ! D19   D(15,2,5,6)            69.4558                                         !
 ! D20   D(15,2,5,16)         -169.3815                                         !
 ! D21   D(15,2,5,17)          -52.2946                                         !
 ! D22   D(2,3,26,27)          173.5142                                         !
 ! D23   D(2,3,26,34)            2.4847                                         !
 ! D24   D(4,3,26,27)           -2.3733                                         !
 ! D25   D(4,3,26,34)         -173.4028                                         !
 ! D26   D(2,5,6,7)            112.6256                                         !
 ! D27   D(2,5,6,8)            -62.8768                                         !
 ! D28   D(16,5,6,7)            -9.3162                                         !
 ! D29   D(16,5,6,8)           175.1814                                         !
 ! D30   D(17,5,6,7)          -128.0961                                         !
 ! D31   D(17,5,6,8)            56.4014                                         !
 ! D32   D(5,6,7,11)          -176.4663                                         !
 ! D33   D(5,6,7,18)             4.0414                                         !
 ! D34   D(8,6,7,11)            -0.1851                                         !
 ! D35   D(8,6,7,18)          -179.6773                                         !
 ! D36   D(5,6,8,9)            176.6207                                         !
 ! D37   D(5,6,8,10)            -3.7457                                         !
 ! D38   D(7,6,8,9)              0.4393                                         !
 ! D39   D(7,6,8,10)          -179.9271                                         !
 ! D40   D(6,7,11,9)            -0.15                                           !
 ! D41   D(6,7,11,19)         -173.8169                                         !
 ! D42   D(18,7,11,9)          179.3862                                         !
 ! D43   D(18,7,11,19)           5.7193                                         !
 ! D44   D(6,8,9,11)            -0.529                                          !
 ! D45   D(6,8,9,12)           179.7809                                         !
 ! D46   D(10,8,9,11)          179.7718                                         !
 ! D47   D(10,8,9,12)            0.0817                                         !
 ! D48   D(6,8,10,13)         -179.8305                                         !
 ! D49   D(6,8,10,20)           -1.1503                                         !
 ! D50   D(9,8,10,13)           -0.2312                                         !
 ! D51   D(9,8,10,20)          178.449                                          !
 ! D52   D(8,9,11,7)             0.4264                                         !
 ! D53   D(8,9,11,19)          174.1241                                         !
 ! D54   D(12,9,11,7)         -179.9177                                         !
 ! D55   D(12,9,11,19)          -6.2201                                         !
 ! D56   D(8,9,12,14)            0.1485                                         !
 ! D57   D(8,9,12,21)         -179.6653                                         !
 ! D58   D(11,9,12,14)        -179.4626                                         !
 ! D59   D(11,9,12,21)           0.7235                                         !
 ! D60   D(8,10,13,14)           0.1537                                         !
 ! D61   D(8,10,13,22)         179.6773                                         !
 ! D62   D(20,10,13,14)       -178.5331                                         !
 ! D63   D(20,10,13,22)          0.9905                                         !
 ! D64   D(9,12,14,13)          -0.2309                                         !
 ! D65   D(9,12,14,23)        -179.9071                                         !
 ! D66   D(21,12,14,13)        179.5832                                         !
 ! D67   D(21,12,14,23)         -0.093                                          !
 ! D68   D(10,13,14,12)          0.084                                          !
 ! D69   D(10,13,14,23)        179.7603                                         !
 ! D70   D(22,13,14,12)       -179.4417                                         !
 ! D71   D(22,13,14,23)          0.2345                                         !
 ! D72   D(3,26,27,28)         -46.9466                                         !
 ! D73   D(3,26,27,30)          79.1499                                         !
 ! D74   D(3,26,27,35)        -163.3692                                         !
 ! D75   D(34,26,27,28)        124.2742                                         !
 ! D76   D(34,26,27,30)       -109.6293                                         !
 ! D77   D(34,26,27,35)          7.8516                                         !
 ! D78   D(26,27,28,29)        126.0785                                         !
 ! D79   D(26,27,28,45)        -51.3049                                         !
 ! D80   D(30,27,28,29)         -1.4559                                         !
 ! D81   D(30,27,28,45)       -178.8392                                         !
 ! D82   D(35,27,28,29)       -120.1641                                         !
 ! D83   D(35,27,28,45)         62.4526                                         !
 ! D84   D(26,27,30,31)        161.6851                                         !
 ! D85   D(26,27,30,32)         38.4476                                         !
 ! D86   D(26,27,30,36)        -80.8291                                         !
 ! D87   D(28,27,30,31)        -72.4056                                         !
 ! D88   D(28,27,30,32)        164.3569                                         !
 ! D89   D(28,27,30,36)         45.0802                                         !
 ! D90   D(35,27,30,31)         46.503                                          !
 ! D91   D(35,27,30,32)        -76.7345                                         !
 ! D92   D(35,27,30,36)        163.9888                                         !
 ! D93   D(27,28,45,46)        -30.6446                                         !
 ! D94   D(27,28,45,58)        179.4774                                         !
 ! D95   D(29,28,45,46)        151.9188                                         !
 ! D96   D(29,28,45,58)          2.0408                                         !
 ! D97   D(27,30,31,33)        164.0709                                         !
 ! D98   D(27,30,31,37)        -73.2956                                         !
 ! D99   D(27,30,31,38)         43.09                                           !
 ! D100  D(32,30,31,33)        -72.783                                          !
 ! D101  D(32,30,31,37)         49.8505                                         !
 ! D102  D(32,30,31,38)        166.2361                                         !
 ! D103  D(36,30,31,33)         47.657                                          !
 ! D104  D(36,30,31,37)        170.2905                                         !
 ! D105  D(36,30,31,38)        -73.3239                                         !
 ! D106  D(27,30,32,39)         57.5745                                         !
 ! D107  D(27,30,32,40)        176.9262                                         !
 ! D108  D(27,30,32,41)        -63.4712                                         !
 ! D109  D(31,30,32,39)        -64.5781                                         !
 ! D110  D(31,30,32,40)         54.7737                                         !
 ! D111  D(31,30,32,41)        174.3762                                         !
 ! D112  D(36,30,32,39)        175.401                                          !
 ! D113  D(36,30,32,40)        -65.2473                                         !
 ! D114  D(36,30,32,41)         54.3552                                         !
 ! D115  D(30,31,33,42)         60.9888                                         !
 ! D116  D(30,31,33,43)        -59.6386                                         !
 ! D117  D(30,31,33,44)       -178.9741                                         !
 ! D118  D(37,31,33,42)        -60.9439                                         !
 ! D119  D(37,31,33,43)        178.4287                                         !
 ! D120  D(37,31,33,44)         59.0931                                         !
 ! D121  D(38,31,33,42)       -177.4034                                         !
 ! D122  D(38,31,33,43)         61.9692                                         !
 ! D123  D(38,31,33,44)        -57.3663                                         !
 ! D124  D(28,45,46,47)         80.2413                                         !
 ! D125  D(28,45,46,49)        -53.1744                                         !
 ! D126  D(28,45,46,59)       -169.3022                                         !
 ! D127  D(58,45,46,47)       -131.3332                                         !
 ! D128  D(58,45,46,49)         95.2511                                         !
 ! D129  D(58,45,46,59)        -20.8767                                         !
 ! D130  D(45,46,47,48)       -118.1655                                         !
 ! D131  D(45,46,47,56)         67.3447                                         !
 ! D132  D(49,46,47,48)         13.0989                                         !
 ! D133  D(49,46,47,56)       -161.3909                                         !
 ! D134  D(59,46,47,48)        130.931                                          !
 ! D135  D(59,46,47,56)        -43.5588                                         !
 ! D136  D(45,46,49,50)        176.3535                                         !
 ! D137  D(45,46,49,60)        -60.2861                                         !
 ! D138  D(45,46,49,61)         53.3576                                         !
 ! D139  D(47,46,49,50)         45.1676                                         !
 ! D140  D(47,46,49,60)        168.528                                          !
 ! D141  D(47,46,49,61)        -77.8283                                         !
 ! D142  D(59,46,49,50)        -70.0096                                         !
 ! D143  D(59,46,49,60)         53.3508                                         !
 ! D144  D(59,46,49,61)        166.9945                                         !
 ! D145  D(46,47,56,57)       -106.9086                                         !
 ! D146  D(48,47,56,57)         78.9426                                         !
 ! D147  D(46,49,50,51)         46.443                                          !
 ! D148  D(46,49,50,62)        -77.5448                                         !
 ! D149  D(46,49,50,63)        166.9761                                         !
 ! D150  D(60,49,50,51)        -75.2528                                         !
 ! D151  D(60,49,50,62)        160.7594                                         !
 ! D152  D(60,49,50,63)         45.2804                                         !
 ! D153  D(61,49,50,51)        170.9222                                         !
 ! D154  D(61,49,50,62)         46.9344                                         !
 ! D155  D(61,49,50,63)        -68.5446                                         !
 ! D156  D(49,50,51,52)        -75.8593                                         !
 ! D157  D(49,50,51,64)         44.4204                                         !
 ! D158  D(49,50,51,65)        163.8036                                         !
 ! D159  D(62,50,51,52)         48.642                                          !
 ! D160  D(62,50,51,64)        168.9217                                         !
 ! D161  D(62,50,51,65)        -71.6951                                         !
 ! D162  D(63,50,51,52)        163.2194                                         !
 ! D163  D(63,50,51,64)        -76.5009                                         !
 ! D164  D(63,50,51,65)         42.8823                                         !
 ! D165  D(50,51,52,53)        148.671                                          !
 ! D166  D(50,51,52,66)        -17.156                                          !
 ! D167  D(64,51,52,53)         26.7666                                         !
 ! D168  D(64,51,52,66)       -139.0604                                         !
 ! D169  D(65,51,52,53)        -90.9495                                         !
 ! D170  D(65,51,52,66)        103.2235                                         !
 ! D171  D(51,52,53,54)         25.9011                                         !
 ! D172  D(51,52,53,55)       -154.4041                                         !
 ! D173  D(66,52,53,54)       -168.435                                          !
 ! D174  D(66,52,53,55)         11.2598                                         !
 ! D175  D(52,53,54,67)       -166.1613                                         !
 ! D176  D(52,53,54,68)         16.5942                                         !
 ! D177  D(55,53,54,67)         14.1491                                         !
 ! D178  D(55,53,54,68)       -163.0954                                         !
 ! D179  D(52,53,55,69)         32.7172                                         !
 ! D180  D(52,53,55,70)       -170.3292                                         !
 ! D181  D(54,53,55,69)       -147.5911                                         !
 ! D182  D(54,53,55,70)          9.3626                                         !
 --------------------------------------------------------------------------------
 Symmetry turned off by external request.
 Stoichiometry    C23H36N7O4(1+)
 Framework group  C1[X(C23H36N7O4)]
 Deg. of freedom   204
 Full point group                 C1      NOp   1
                          Input orientation:                          
 ---------------------------------------------------------------------
 Center     Atomic      Atomic             Coordinates (Angstroms)
 Number     Number       Type             X           Y           Z
 ---------------------------------------------------------------------
      1          7           0      -94.869655  -16.063090    4.045269
      2          6           0      -94.578432  -14.774703    3.312157
      3          6           0      -93.785739  -13.967579    4.362144
      4          8           0      -92.796335  -14.509061    4.851049
      5          6           0      -95.878221  -14.211515    2.710978
      6          6           0      -96.660831  -15.273360    1.996257
      7          6           0      -97.881296  -15.770410    2.391374
      8          6           0      -96.260713  -16.030925    0.833613
      9          6           0      -97.297803  -16.968541    0.573423
     10          6           0      -95.136405  -16.005139   -0.013151
     11          7           0      -98.267299  -16.788105    1.543494
     12          6           0      -97.240325  -17.869469   -0.495055
     13          6           0      -95.074217  -16.899926   -1.072814
     14          6           0      -96.115588  -17.822612   -1.309773
     15          1           0      -93.870760  -15.036005    2.521295
     16          1           0      -96.503627  -13.779227    3.498167
     17          1           0      -95.590043  -13.403147    2.026317
     18          1           0      -98.504143  -15.459044    3.219113
     19          1           0      -99.160121  -17.257020    1.562799
     20          1           0      -94.338069  -15.283862    0.143493
     21          1           0      -98.043842  -18.575929   -0.683147
     22          1           0      -94.215378  -16.887709   -1.737118
     23          1           0      -96.038501  -18.506685   -2.149485
     24          1           0      -95.276189  -16.753874    3.406341
     25          1           0      -93.991148  -16.398111    4.460095
     26          7           0      -94.268141  -12.768454    4.727562
     27          6           0      -93.684235  -11.970094    5.812480
     28          6           0      -93.431804  -12.849147    7.071326
     29          8           0      -92.335529  -12.901468    7.599104
     30          6           0      -92.404594  -11.201095    5.402098
     31          6           0      -92.138632  -10.068378    6.418751
     32          6           0      -92.524169  -10.650923    3.974288
     33          6           0      -90.719357   -9.496095    6.343917
     34          1           0      -95.143818  -12.447695    4.340239
     35          1           0      -94.460594  -11.235470    6.052810
     36          1           0      -91.575205  -11.914312    5.447826
     37          1           0      -92.874975   -9.266645    6.252341
     38          1           0      -92.301651  -10.446303    7.432610
     39          1           0      -93.398037   -9.992935    3.872347
     40          1           0      -91.638752  -10.064295    3.714735
     41          1           0      -92.614099  -11.450302    3.232441
     42          1           0      -90.499612   -9.055902    5.365242
     43          1           0      -89.978853  -10.280880    6.535902
     44          1           0      -90.577882   -8.711512    7.095014
     45          7           0      -94.465866  -13.630789    7.569373
     46          6           0      -95.918670  -13.410136    7.543465
     47          6           0      -96.541957  -13.793723    6.176949
     48          8           0      -97.113016  -12.919084    5.489504
     49          6           0      -96.312067  -12.028174    8.120482
     50          6           0      -97.792958  -11.592438    8.093276
     51          6           0      -98.838953  -12.615737    8.558679
     52          7           0      -99.048441  -13.634770    7.513544
     53          6           0      -99.372997  -14.911118    7.718076
     54          7           0     -100.031830  -15.264746    8.836625
     55          7           0      -99.040771  -15.826525    6.796844
     56          8           0      -96.513319  -15.048869    5.900267
     57          1           0      -95.564184  -15.828206    4.814788
     58          1           0      -94.127715  -14.139852    8.378208
     59          1           0      -96.310769  -14.179399    8.218437
     60          1           0      -95.954327  -12.024738    9.158234
     61          1           0      -95.748257  -11.244105    7.608383
     62          1           0      -98.056803  -11.264263    7.083446
     63          1           0      -97.893207  -10.716338    8.743778
     64          1           0      -98.518745  -13.120786    9.478602
     65          1           0      -99.786727  -12.103282    8.764184
     66          1           0      -98.715758  -13.385539    6.579926
     67          1           0     -100.109480  -16.230508    9.118777
     68          1           0     -100.501880  -14.572662    9.401777
     69          1           0      -98.165494  -15.672736    6.265659
     70          1           0      -99.406836  -16.765196    6.869311
 ---------------------------------------------------------------------
 Rotational constants (GHZ):           0.1378366           0.0871946           0.0586472
 Standard basis: 6-31G(d) (6D, 7F)
   582 basis functions,  1096 primitive gaussians,   582 cartesian basis functions
   127 alpha electrons      127 beta electrons
       nuclear repulsion energy      3878.1581611126 Hartrees.
 NAtoms=   70 NActive=   70 NUniq=   70 SFac= 1.00D+00 NAtFMM=   60 NAOKFM=T Big=T
 Integral buffers will be    131072 words long.
 Raffenetti 2 integral format.
 Two-electron integral symmetry is turned off.
 Nuclear repulsion after empirical dispersion term =     3878.0619580506 Hartrees.
 One-electron integrals computed using PRISM.
 NBasis=   582 RedAO= T EigKep=  3.77D-04  NBF=   582
 NBsUse=   582 1.00D-06 EigRej= -1.00D+00 NBFU=   582
 Initial guess from the checkpoint file:  "conf-652.chk"
 B after Tr=     0.000000    0.000000    0.000000
         Rot=    1.000000    0.000000    0.000000    0.000000 Ang=   0.00 deg.
 Requested convergence on RMS density matrix=1.00D-08 within 128 cycles.
 Requested convergence on MAX density matrix=1.00D-06.
 Requested convergence on             energy=1.00D-06.
 No special actions if energy rises.
 SCF Done:  E(RB3LYP) =  -1582.24134291     A.U. after    1 cycles
            NFock=  1  Conv=0.40D-08     -V/T= 2.0095

 **********************************************************************

            Population analysis using the SCF Density.

 **********************************************************************

 Alpha  occ. eigenvalues --  -19.21912 -19.21874 -19.21423 -19.19490 -14.54534
 Alpha  occ. eigenvalues --  -14.52247 -14.50487 -14.50084 -14.47333 -14.46515
 Alpha  occ. eigenvalues --  -14.44139 -10.47476 -10.39545 -10.39414 -10.37067
 Alpha  occ. eigenvalues --  -10.36276 -10.35525 -10.33137 -10.32164 -10.31627
 Alpha  occ. eigenvalues --  -10.30821 -10.30036 -10.29839 -10.28942 -10.28121
 Alpha  occ. eigenvalues --  -10.27527 -10.27304 -10.27256 -10.26672 -10.26349
 Alpha  occ. eigenvalues --  -10.25714 -10.24136 -10.23966 -10.22565  -1.16185
 Alpha  occ. eigenvalues --   -1.15004  -1.14365  -1.11612  -1.09425  -1.07140
 Alpha  occ. eigenvalues --   -1.06009  -1.05162  -1.03966  -1.03008  -1.00161
 Alpha  occ. eigenvalues --   -0.92570  -0.90924  -0.90496  -0.88246  -0.85793
 Alpha  occ. eigenvalues --   -0.84711  -0.82146  -0.81521  -0.80462  -0.79277
 Alpha  occ. eigenvalues --   -0.77777  -0.77357  -0.76699  -0.73400  -0.71440
 Alpha  occ. eigenvalues --   -0.70956  -0.70801  -0.69781  -0.69519  -0.69124
 Alpha  occ. eigenvalues --   -0.68444  -0.67806  -0.66414  -0.65353  -0.65260
 Alpha  occ. eigenvalues --   -0.64499  -0.62966  -0.62617  -0.62256  -0.61043
 Alpha  occ. eigenvalues --   -0.60004  -0.59880  -0.59591  -0.57643  -0.57394
 Alpha  occ. eigenvalues --   -0.56464  -0.55463  -0.55214  -0.54688  -0.54290
 Alpha  occ. eigenvalues --   -0.53500  -0.53379  -0.53030  -0.52224  -0.52112
 Alpha  occ. eigenvalues --   -0.51553  -0.51170  -0.51071  -0.50908  -0.50126
 Alpha  occ. eigenvalues --   -0.49512  -0.48880  -0.48827  -0.48570  -0.47736
 Alpha  occ. eigenvalues --   -0.47360  -0.46433  -0.46240  -0.45729  -0.45262
 Alpha  occ. eigenvalues --   -0.44478  -0.44118  -0.43751  -0.43593  -0.42911
 Alpha  occ. eigenvalues --   -0.42057  -0.41924  -0.41667  -0.40259  -0.40048
 Alpha  occ. eigenvalues --   -0.38769  -0.38417  -0.38311  -0.37011  -0.36624
 Alpha  occ. eigenvalues --   -0.35818  -0.35445  -0.35187  -0.33286  -0.32187
 Alpha  occ. eigenvalues --   -0.31075  -0.29508
 Alpha virt. eigenvalues --   -0.12390  -0.10018  -0.09766  -0.09027  -0.07468
 Alpha virt. eigenvalues --   -0.06600  -0.06042  -0.04167  -0.04120  -0.03077
 Alpha virt. eigenvalues --   -0.02465  -0.01464  -0.01044  -0.00786  -0.00214
 Alpha virt. eigenvalues --    0.00673   0.00998   0.01688   0.02917   0.03128
 Alpha virt. eigenvalues --    0.03408   0.03913   0.04296   0.04520   0.04857
 Alpha virt. eigenvalues --    0.05954   0.06327   0.06590   0.07072   0.07233
 Alpha virt. eigenvalues --    0.07450   0.07689   0.07969   0.08192   0.08398
 Alpha virt. eigenvalues --    0.09214   0.09386   0.10256   0.10367   0.10625
 Alpha virt. eigenvalues --    0.10942   0.11490   0.11618   0.12536   0.12804
 Alpha virt. eigenvalues --    0.13141   0.13567   0.13869   0.13983   0.14666
 Alpha virt. eigenvalues --    0.14937   0.15655   0.15991   0.16264   0.16719
 Alpha virt. eigenvalues --    0.17350   0.17745   0.18547   0.19033   0.19670
 Alpha virt. eigenvalues --    0.20933   0.21415   0.21580   0.23035   0.23444
 Alpha virt. eigenvalues --    0.23823   0.25368   0.25906   0.26207   0.27240
 Alpha virt. eigenvalues --    0.28783   0.29073   0.29848   0.31673   0.32300
 Alpha virt. eigenvalues --    0.34728   0.35083   0.36585   0.37848   0.38473
 Alpha virt. eigenvalues --    0.40159   0.40794   0.41110   0.41414   0.41643
 Alpha virt. eigenvalues --    0.42572   0.43122   0.43309   0.43643   0.44717
 Alpha virt. eigenvalues --    0.45156   0.45345   0.46235   0.46487   0.46854
 Alpha virt. eigenvalues --    0.47095   0.47503   0.48014   0.48763   0.49425
 Alpha virt. eigenvalues --    0.49719   0.49934   0.50508   0.50791   0.50886
 Alpha virt. eigenvalues --    0.51515   0.52114   0.52423   0.52903   0.53239
 Alpha virt. eigenvalues --    0.53558   0.54105   0.54401   0.54493   0.55034
 Alpha virt. eigenvalues --    0.55233   0.56029   0.56046   0.56615   0.56874
 Alpha virt. eigenvalues --    0.57288   0.58103   0.58345   0.59327   0.59570
 Alpha virt. eigenvalues --    0.60524   0.60814   0.61134   0.61297   0.63289
 Alpha virt. eigenvalues --    0.63614   0.64624   0.65425   0.65776   0.66128
 Alpha virt. eigenvalues --    0.66992   0.67954   0.68694   0.69171   0.70402
 Alpha virt. eigenvalues --    0.70664   0.71016   0.72009   0.72589   0.72769
 Alpha virt. eigenvalues --    0.73015   0.73847   0.74239   0.74492   0.74551
 Alpha virt. eigenvalues --    0.75139   0.75800   0.76075   0.76644   0.76937
 Alpha virt. eigenvalues --    0.77326   0.77548   0.77894   0.78130   0.78157
 Alpha virt. eigenvalues --    0.78704   0.79150   0.79381   0.79983   0.80329
 Alpha virt. eigenvalues --    0.80660   0.81618   0.82261   0.82504   0.83204
 Alpha virt. eigenvalues --    0.83518   0.83693   0.84015   0.84331   0.84956
 Alpha virt. eigenvalues --    0.85503   0.85792   0.86201   0.86609   0.87199
 Alpha virt. eigenvalues --    0.87893   0.88009   0.88678   0.88912   0.89151
 Alpha virt. eigenvalues --    0.89472   0.90707   0.90859   0.91525   0.92451
 Alpha virt. eigenvalues --    0.93513   0.93924   0.94004   0.94890   0.95225
 Alpha virt. eigenvalues --    0.95786   0.96809   0.96979   0.98292   0.98778
 Alpha virt. eigenvalues --    0.99788   1.00579   1.01697   1.02387   1.02563
 Alpha virt. eigenvalues --    1.03668   1.04277   1.05018   1.05912   1.07412
 Alpha virt. eigenvalues --    1.07807   1.09830   1.10476   1.11355   1.11711
 Alpha virt. eigenvalues --    1.13364   1.14158   1.15125   1.15629   1.16518
 Alpha virt. eigenvalues --    1.16797   1.17542   1.18413   1.18840   1.20150
 Alpha virt. eigenvalues --    1.21647   1.22861   1.22984   1.24807   1.25053
 Alpha virt. eigenvalues --    1.25770   1.26657   1.27712   1.28838   1.29391
 Alpha virt. eigenvalues --    1.30182   1.31594   1.33013   1.33276   1.34116
 Alpha virt. eigenvalues --    1.35088   1.37070   1.37412   1.38404   1.38916
 Alpha virt. eigenvalues --    1.39746   1.41048   1.41258   1.41746   1.42297
 Alpha virt. eigenvalues --    1.44585   1.45418   1.46300   1.46417   1.46926
 Alpha virt. eigenvalues --    1.48121   1.49681   1.50685   1.50986   1.52181
 Alpha virt. eigenvalues --    1.52866   1.53108   1.53829   1.56772   1.57396
 Alpha virt. eigenvalues --    1.59520   1.60381   1.61690   1.62440   1.62895
 Alpha virt. eigenvalues --    1.63550   1.65009   1.66182   1.66695   1.67136
 Alpha virt. eigenvalues --    1.67231   1.68453   1.68931   1.70010   1.70827
 Alpha virt. eigenvalues --    1.70917   1.71347   1.72764   1.73086   1.74250
 Alpha virt. eigenvalues --    1.74652   1.75794   1.77434   1.78194   1.78452
 Alpha virt. eigenvalues --    1.79337   1.79921   1.80627   1.80901   1.81746
 Alpha virt. eigenvalues --    1.82106   1.82601   1.82732   1.83498   1.83660
 Alpha virt. eigenvalues --    1.84874   1.85346   1.86567   1.86661   1.87358
 Alpha virt. eigenvalues --    1.88060   1.88114   1.89164   1.89382   1.90535
 Alpha virt. eigenvalues --    1.91076   1.91439   1.91781   1.92747   1.93189
 Alpha virt. eigenvalues --    1.93998   1.94425   1.95143   1.95605   1.96464
 Alpha virt. eigenvalues --    1.96776   1.97825   1.98044   1.99200   1.99791
 Alpha virt. eigenvalues --    2.00196   2.02290   2.03307   2.04040   2.04218
 Alpha virt. eigenvalues --    2.05189   2.05959   2.06268   2.06779   2.07945
 Alpha virt. eigenvalues --    2.08246   2.09170   2.10085   2.11044   2.13031
 Alpha virt. eigenvalues --    2.14571   2.15842   2.16480   2.16946   2.17318
 Alpha virt. eigenvalues --    2.18591   2.19729   2.21099   2.21788   2.22165
 Alpha virt. eigenvalues --    2.22694   2.24067   2.24419   2.24982   2.25211
 Alpha virt. eigenvalues --    2.26066   2.27153   2.28291   2.29939   2.30582
 Alpha virt. eigenvalues --    2.31044   2.31520   2.32314   2.33109   2.35214
 Alpha virt. eigenvalues --    2.35478   2.37256   2.39647   2.39797   2.41119
 Alpha virt. eigenvalues --    2.41523   2.42680   2.43675   2.44391   2.45141
 Alpha virt. eigenvalues --    2.46224   2.46804   2.46946   2.48661   2.49428
 Alpha virt. eigenvalues --    2.51054   2.51103   2.52177   2.52432   2.54208
 Alpha virt. eigenvalues --    2.55559   2.55870   2.57289   2.58159   2.58988
 Alpha virt. eigenvalues --    2.59649   2.59890   2.60313   2.60380   2.61955
 Alpha virt. eigenvalues --    2.65286   2.65645   2.67758   2.69168   2.69430
 Alpha virt. eigenvalues --    2.72237   2.73603   2.75839   2.77602   2.80765
 Alpha virt. eigenvalues --    2.83695   2.87267   2.87813   2.89718   2.90567
 Alpha virt. eigenvalues --    2.91941   2.93042   2.95368   2.97265   2.98035
 Alpha virt. eigenvalues --    3.04141   3.05556   3.07554   3.09029   3.16088
 Alpha virt. eigenvalues --    3.35451   3.66343   3.74971   3.78086   3.83980
 Alpha virt. eigenvalues --    3.89478   3.94049   3.96957   3.99524   4.01253
 Alpha virt. eigenvalues --    4.04260   4.05692   4.09102   4.10103   4.12437
 Alpha virt. eigenvalues --    4.13294   4.15688   4.18506   4.19414   4.22896
 Alpha virt. eigenvalues --    4.25310   4.27012   4.30188   4.31748   4.33312
 Alpha virt. eigenvalues --    4.36918   4.37884   4.41396   4.47247   4.49574
 Alpha virt. eigenvalues --    4.51117   4.60672   4.64413   4.67246   4.71572
          Condensed to atoms (all electrons):
 Mulliken charges:
               1
     1  N   -0.763091
     2  C   -0.107593
     3  C    0.629208
     4  O   -0.519574
     5  C   -0.407973
     6  C    0.005597
     7  C   -0.001054
     8  C    0.075407
     9  C    0.308619
    10  C   -0.218653
    11  N   -0.683523
    12  C   -0.158022
    13  C   -0.136024
    14  C   -0.148092
    15  H    0.215580
    16  H    0.212163
    17  H    0.183443
    18  H    0.159791
    19  H    0.339433
    20  H    0.131020
    21  H    0.143247
    22  H    0.147000
    23  H    0.150603
    24  H    0.398778
    25  H    0.407598
    26  N   -0.622207
    27  C   -0.057482
    28  C    0.608651
    29  O   -0.474437
    30  C   -0.065464
    31  C   -0.266393
    32  C   -0.459732
    33  C   -0.452473
    34  H    0.373783
    35  H    0.163038
    36  H    0.176706
    37  H    0.120621
    38  H    0.154892
    39  H    0.132557
    40  H    0.168703
    41  H    0.137186
    42  H    0.147747
    43  H    0.162011
    44  H    0.152198
    45  N   -0.607235
    46  C   -0.029715
    47  C    0.607046
    48  O   -0.573391
    49  C   -0.269414
    50  C   -0.309706
    51  C   -0.155013
    52  N   -0.609151
    53  C    0.777605
    54  N   -0.754098
    55  N   -0.783043
    56  O   -0.655602
    57  H    0.448777
    58  H    0.336732
    59  H    0.142404
    60  H    0.153942
    61  H    0.166691
    62  H    0.189076
    63  H    0.172514
    64  H    0.172119
    65  H    0.181675
    66  H    0.394513
    67  H    0.376972
    68  H    0.385852
    69  H    0.419698
    70  H    0.356961
 Sum of Mulliken charges =   1.00000
 Mulliken charges with hydrogens summed into heavy atoms:
               1
     1  N    0.492062
     2  C    0.107987
     3  C    0.629208
     4  O   -0.519574
     5  C   -0.012366
     6  C    0.005597
     7  C    0.158737
     8  C    0.075407
     9  C    0.308619
    10  C   -0.087634
    11  N   -0.344090
    12  C   -0.014774
    13  C    0.010977
    14  C    0.002511
    26  N   -0.248424
    27  C    0.105555
    28  C    0.608651
    29  O   -0.474437
    30  C    0.111241
    31  C    0.009119
    32  C   -0.021286
    33  C    0.009483
    45  N   -0.270503
    46  C    0.112689
    47  C    0.607046
    48  O   -0.573391
    49  C    0.051218
    50  C    0.051884
    51  C    0.198781
    52  N   -0.214638
    53  C    0.777605
    54  N    0.008726
    55  N   -0.006385
    56  O   -0.655602
 Electronic spatial extent (au):  <R**2>=        8522304.5325
 Charge=              1.0000 electrons
 Dipole moment (field-independent basis, Debye):
    X=           -473.6384    Y=            -74.3600    Z=             29.1638  Tot=            480.3262
 Quadrupole moment (field-independent basis, Debye-Ang):
   XX=          46511.7663   YY=            985.6206   ZZ=             37.0398
   XY=           7336.3672   XZ=          -2910.2310   YZ=           -431.9397
 Traceless Quadrupole moment (field-independent basis, Debye-Ang):
   XX=          30666.9574   YY=         -14859.1883   ZZ=         -15807.7691
   XY=           7336.3672   XZ=          -2910.2310   YZ=           -431.9397
 Octapole moment (field-independent basis, Debye-Ang**2):
  XXX=       -4550251.3381  YYY=         -10925.3609  ZZZ=           -793.0088  XYY=         -97821.8778
  XXY=        -721112.8209  XXZ=         289321.0147  XZZ=          -4586.5904  YZZ=           -694.3202
  YYZ=           5632.1050  XYZ=          43128.9761
 Hexadecapole moment (field-independent basis, Debye-Ang**3):
 XXXX=      443596161.4105 YYYY=          78666.0449 ZZZZ=         -19253.6689 XXXY=       70638542.4069
 XXXZ=      -28667343.4983 YYYX=        1099995.7536 YYYZ=         -65206.2164 ZZZX=          66839.9605
 ZZZY=           7332.3185 XXYY=        9667266.1024 XXZZ=         534299.0629 YYZZ=           6365.3086
 XXYZ=       -4291904.7741 YYXZ=        -566095.3502 ZZXY=          81314.9289
 N-N= 3.878061958051D+03 E-N=-1.141200224686D+04  KE= 1.567318007009D+03
 Unable to Open any file for archive entry.
 1\1\GINC-QML-002\SP\RB3LYP\6-31G(d)\C23H36N7O4(1+)\KENGMITH\24-May-202
 2\0\\# B3LYP/6-31G* empiricaldispersion=gd3 guess=read geom=check nosy
 mm integral(ultrafinegrid)\\Candidate Structure: Conf:652 Charge calc 
 in gas phase\\1,1\N,0,-94.8696546396,-16.0630895539,4.0452686183\C,0,-
 94.5784324654,-14.7747025436,3.3121572985\C,0,-93.7857385284,-13.96757
 86158,4.3621444939\O,0,-92.7963345424,-14.5090607392,4.8510490293\C,0,
 -95.8782208501,-14.2115153154,2.7109781527\C,0,-96.6608313215,-15.2733
 604885,1.9962565504\C,0,-97.8812962911,-15.7704099673,2.3913738162\C,0
 ,-96.2607132355,-16.0309246711,0.8336126914\C,0,-97.2978026166,-16.968
 5409584,0.5734227874\C,0,-95.1364045225,-16.0051392508,-0.0131507772\N
 ,0,-98.2672993361,-16.7881045571,1.5434944995\C,0,-97.2403246884,-17.8
 69468628,-0.4950553043\C,0,-95.0742167444,-16.8999264096,-1.0728144948
 \C,0,-96.1155875486,-17.8226120791,-1.3097729342\H,0,-93.8707596345,-1
 5.0360051363,2.5212951386\H,0,-96.5036268889,-13.7792265737,3.49816653
 39\H,0,-95.5900431502,-13.403147485,2.0263167086\H,0,-98.5041432301,-1
 5.4590435779,3.2191134262\H,0,-99.1601214157,-17.2570199623,1.56279857
 86\H,0,-94.3380690574,-15.2838623634,0.1434934063\H,0,-98.0438423463,-
 18.5759287595,-0.6831470109\H,0,-94.2153783479,-16.8877091383,-1.73711
 84721\H,0,-96.0385006638,-18.5066850801,-2.1494850036\H,0,-95.27618893
 77,-16.7538742881,3.40634144\H,0,-93.9911477951,-16.3981109276,4.46009
 50792\N,0,-94.2681407785,-12.7684535248,4.7275622367\C,0,-93.684235007
 7,-11.9700937016,5.812479937\C,0,-93.4318038367,-12.8491467095,7.07132
 64009\O,0,-92.3355290878,-12.9014682467,7.5991035965\C,0,-92.404594347
 5,-11.2010945213,5.4020978763\C,0,-92.1386319597,-10.068377775,6.41875
 05866\C,0,-92.524168715,-10.6509233413,3.9742882674\C,0,-90.7193570263
 ,-9.4960945478,6.3439174055\H,0,-95.1438180384,-12.4476949381,4.340239
 1965\H,0,-94.4605938665,-11.2354699263,6.0528099171\H,0,-91.5752051067
 ,-11.9143119502,5.4478257008\H,0,-92.8749745863,-9.2666445273,6.252340
 6817\H,0,-92.3016505868,-10.446302964,7.4326101187\H,0,-93.398036809,-
 9.9929353914,3.8723471928\H,0,-91.6387522936,-10.0642948695,3.71473450
 76\H,0,-92.6140987246,-11.4503023414,3.2324409162\H,0,-90.4996121776,-
 9.0559018255,5.365241599\H,0,-89.9788526049,-10.2808799667,6.535901775
 5\H,0,-90.5778817163,-8.7115120024,7.0950141697\N,0,-94.4658658532,-13
 .6307891158,7.5693732346\C,0,-95.918670355,-13.410135895,7.5434648197\
 C,0,-96.5419568923,-13.7937233244,6.1769487626\O,0,-97.1130160076,-12.
 919084296,5.4895035444\C,0,-96.3120674359,-12.0281739065,8.1204817499\
 C,0,-97.7929582495,-11.5924375514,8.0932761452\C,0,-98.8389533085,-12.
 6157367802,8.5586791506\N,0,-99.0484409039,-13.6347702346,7.5135443896
 \C,0,-99.372997472,-14.91111797,7.718076466\N,0,-100.0318303845,-15.26
 4745958,8.836624908\N,0,-99.0407705493,-15.826524567,6.7968435289\O,0,
 -96.513318541,-15.0488688504,5.900266939\H,0,-95.5641840092,-15.828206
 2258,4.8147875082\H,0,-94.1277151472,-14.139852038,8.3782076378\H,0,-9
 6.3107694883,-14.1793992356,8.2184370307\H,0,-95.9543267549,-12.024738
 1986,9.1582337727\H,0,-95.7482570101,-11.2441048001,7.6083828897\H,0,-
 98.0568032761,-11.2642631418,7.0834464995\H,0,-97.8932066998,-10.71633
 77193,8.7437776684\H,0,-98.5187450396,-13.1207862122,9.4786019993\H,0,
 -99.7867274143,-12.1032823229,8.7641836577\H,0,-98.7157580304,-13.3855
 393977,6.5799258986\H,0,-100.1094795292,-16.2305082338,9.1187771996\H,
 0,-100.5018795973,-14.5726617386,9.4017774831\H,0,-98.1654935297,-15.6
 727362931,6.2656593087\H,0,-99.406836243,-16.7651959627,6.8693112032\\
 Version=ES64L-G16RevC.01\HF=-1582.2413429\RMSD=3.987e-09\Dipole=-5.500
 5531,-2.7592641,2.3500378\Quadrupole=22800.1311595,-11047.4422905,-117
 52.6888689,5454.4091904,-2163.68543,-321.1366091\PG=C01 [X(C23H36N7O4)
 ]\\@
 The archive entry for this job was punched.


 WHAT, THEN, IS TIME?  IF NO ONE ASKS ME, I KNOW WHAT IT IS.
 IF I WISH TO EXPLAIN WHAT IT IS TO HIM WHO ASKS ME, I DO NOT KNOW.
                                   -- ST. AUGUSTINE (FIFTH CENTURY)
 Job cpu time:       0 days  0 hours  2 minutes 28.2 seconds.
 Elapsed time:       0 days  0 hours  0 minutes 37.6 seconds.
 File lengths (MBytes):  RWF=    296 Int=      0 D2E=      0 Chk=     40 Scr=     16
 Normal termination of Gaussian 16 at Tue May 24 23:10:43 2022.
