 Entering Gaussian System, Link 0=/opt/software/Gaussian/g16-AVX-C.01/g16/g16
 Input=charge-conf-112.com
 Output=charge-conf-112.log
 Initial command:
 /opt/software/Gaussian/g16-AVX-C.01/g16/l1.exe "/mnt/gs18/scratch/users/kengmith/Gau-38440.inp" -scrdir="/mnt/gs18/scratch/users/kengmith/"
 Entering Link 1 = /opt/software/Gaussian/g16-AVX-C.01/g16/l1.exe PID=     38450.
  
 Copyright (c) 1988-2019, Gaussian, Inc.  All Rights Reserved.
  
 This is part of the Gaussian(R) 16 program.  It is based on
 the Gaussian(R) 09 system (copyright 2009, Gaussian, Inc.),
 the Gaussian(R) 03 system (copyright 2003, Gaussian, Inc.),
 the Gaussian(R) 98 system (copyright 1998, Gaussian, Inc.),
 the Gaussian(R) 94 system (copyright 1995, Gaussian, Inc.),
 the Gaussian 92(TM) system (copyright 1992, Gaussian, Inc.),
 the Gaussian 90(TM) system (copyright 1990, Gaussian, Inc.),
 the Gaussian 88(TM) system (copyright 1988, Gaussian, Inc.),
 the Gaussian 86(TM) system (copyright 1986, Carnegie Mellon
 University), and the Gaussian 82(TM) system (copyright 1983,
 Carnegie Mellon University). Gaussian is a federally registered
 trademark of Gaussian, Inc.
  
 This software contains proprietary and confidential information,
 including trade secrets, belonging to Gaussian, Inc.
  
 This software is provided under written license and may be
 used, copied, transmitted, or stored only in accord with that
 written license.
  
 The following legend is applicable only to US Government
 contracts under FAR:
  
                    RESTRICTED RIGHTS LEGEND
  
 Use, reproduction and disclosure by the US Government is
 subject to restrictions as set forth in subparagraphs (a)
 and (c) of the Commercial Computer Software - Restricted
 Rights clause in FAR 52.227-19.
  
 Gaussian, Inc.
 340 Quinnipiac St., Bldg. 40, Wallingford CT 06492
  
  
 ---------------------------------------------------------------
 Warning -- This program may not be used in any manner that
 competes with the business of Gaussian, Inc. or will provide
 assistance to any competitor of Gaussian, Inc.  The licensee
 of this program is prohibited from giving any competitor of
 Gaussian, Inc. access to this program.  By using this program,
 the user acknowledges that Gaussian, Inc. is engaged in the
 business of creating and licensing software in the field of
 computational chemistry and represents and warrants to the
 licensee that it is not a competitor of Gaussian, Inc. and that
 it will not use this program in any manner prohibited above.
 ---------------------------------------------------------------
  

 Cite this work as:
 Gaussian 16, Revision C.01,
 M. J. Frisch, G. W. Trucks, H. B. Schlegel, G. E. Scuseria, 
 M. A. Robb, J. R. Cheeseman, G. Scalmani, V. Barone, 
 G. A. Petersson, H. Nakatsuji, X. Li, M. Caricato, A. V. Marenich, 
 J. Bloino, B. G. Janesko, R. Gomperts, B. Mennucci, H. P. Hratchian, 
 J. V. Ortiz, A. F. Izmaylov, J. L. Sonnenberg, D. Williams-Young, 
 F. Ding, F. Lipparini, F. Egidi, J. Goings, B. Peng, A. Petrone, 
 T. Henderson, D. Ranasinghe, V. G. Zakrzewski, J. Gao, N. Rega, 
 G. Zheng, W. Liang, M. Hada, M. Ehara, K. Toyota, R. Fukuda, 
 J. Hasegawa, M. Ishida, T. Nakajima, Y. Honda, O. Kitao, H. Nakai, 
 T. Vreven, K. Throssell, J. A. Montgomery, Jr., J. E. Peralta, 
 F. Ogliaro, M. J. Bearpark, J. J. Heyd, E. N. Brothers, K. N. Kudin, 
 V. N. Staroverov, T. A. Keith, R. Kobayashi, J. Normand, 
 K. Raghavachari, A. P. Rendell, J. C. Burant, S. S. Iyengar, 
 J. Tomasi, M. Cossi, J. M. Millam, M. Klene, C. Adamo, R. Cammi, 
 J. W. Ochterski, R. L. Martin, K. Morokuma, O. Farkas, 
 J. B. Foresman, and D. J. Fox, Gaussian, Inc., Wallingford CT, 2019.
 
 ******************************************
 Gaussian 16:  ES64L-G16RevC.01  3-Jul-2019
                24-May-2022 
 ******************************************
 %mem=8gb
 %nproc=4
 Will use up to    4 processors via shared memory.
 %chk=conf-112.chk
 ----------------------------------------------------------------------
 # B3LYP/6-31G* empiricaldispersion=gd3 guess=read geom=check nosymm in
 tegral(ultrafinegrid)
 ----------------------------------------------------------------------
 1/29=2,38=1,172=1/1;
 2/12=2,15=1,40=1/2;
 3/5=1,6=6,7=1,11=2,14=-4,25=1,30=1,74=-5,75=-5,116=-2,124=31/1,2,3;
 4/5=1/1;
 5/5=2,38=6/2;
 6/7=2,8=2,9=2,10=2,28=1/1;
 99/5=1,9=1/99;
 ------------------------------------------------------
 Candidate Structure: Conf:112 Charge calc in gas phase
 ------------------------------------------------------
 Structure from the checkpoint file:  "conf-112.chk"
 Charge =  1 Multiplicity = 1
 Redundant internal coordinates found in file.  (old form).
 N,0,-98.4684115962,-15.8862720871,6.6411734389
 C,0,-97.999156029,-15.4603460282,5.3377625191
 C,0,-97.3237394387,-14.078160751,5.2348108596
 O,0,-97.0090203633,-13.6255102018,4.1219562138
 C,0,-99.1266456411,-15.5993259801,4.2760612155
 C,0,-99.1731721743,-16.9831822252,3.7125086785
 C,0,-100.0748793074,-17.9867611198,3.9528324942
 C,0,-98.1747731822,-17.5282803378,2.8277829765
 C,0,-98.5366973886,-18.8771806052,2.5648148197
 C,0,-97.011007099,-17.0007063853,2.2410850964
 N,0,-99.7003327091,-19.1271652418,3.265035573
 C,0,-97.7718426498,-19.7022180159,1.7345906007
 C,0,-96.2461351286,-17.8198181547,1.418838547
 C,0,-96.6238590685,-19.156022537,1.169139835
 H,0,-97.1964332309,-16.1487262411,5.0412757948
 H,0,-100.0810697183,-15.3228835054,4.7401959992
 H,0,-98.9387578052,-14.8808807594,3.4720598099
 H,0,-100.9627034061,-17.9828331086,4.5700880139
 H,0,-100.2176500344,-19.9920716971,3.248057703
 H,0,-96.7234571172,-15.9665017004,2.4177899489
 H,0,-98.0619395792,-20.7305403875,1.5365151796
 H,0,-95.348608764,-17.4245125849,0.9508175724
 H,0,-96.0095704003,-19.7709054793,0.5173564614
 H,0,-97.7556100794,-16.1149247508,7.3236387796
 H,0,-99.2010544375,-15.3087279301,7.0398947209
 N,0,-97.0311887338,-13.4559972329,6.3894850289
 C,0,-96.3899503862,-12.1516433007,6.5888998411
 C,0,-96.1569091901,-11.4000804005,5.2500925327
 O,0,-97.000192875,-10.6272627089,4.8346176738
 C,0,-97.2188160011,-11.2481356916,7.5392425175
 C,0,-96.3905848501,-9.9989148085,7.9129767812
 C,0,-97.6607676148,-12.0120021905,8.7982161325
 C,0,-97.2286618378,-8.8612719685,8.5064557997
 H,0,-97.363454124,-13.9207781984,7.2245538743
 H,0,-95.42536252,-12.3305893098,7.0747410696
 H,0,-98.1033847802,-10.9274850701,6.9795906798
 H,0,-95.6016236246,-10.2932349161,8.6216621782
 H,0,-95.8831431462,-9.6147863574,7.0206696367
 H,0,-98.1105688327,-11.3288038966,9.5230354919
 H,0,-98.421413008,-12.7719287679,8.5837746397
 H,0,-96.8092982166,-12.4980195477,9.2949908896
 H,0,-97.9955438563,-8.5368369665,7.7942731694
 H,0,-96.5978501893,-7.9964775133,8.7372353481
 H,0,-97.7317129871,-9.1548326143,9.4340024164
 N,0,-94.9055379912,-11.4039400755,4.6335036448
 C,0,-93.8185329694,-12.3660780672,4.44606458
 C,0,-93.8456429514,-12.98772955,3.0200460103
 O,0,-92.7906250941,-13.1254346565,2.3931964192
 C,0,-93.6832299072,-13.4499685376,5.5364656915
 C,0,-92.5372754538,-14.4695564123,5.3667567647
 C,0,-91.102653943,-13.9175458104,5.4447766842
 N,0,-90.7569970194,-13.2246521144,4.2008153816
 C,0,-89.7232586464,-12.4290901347,3.9890307457
 N,0,-88.69893641,-12.3418072116,4.856376503
 N,0,-89.7095489143,-11.6609007079,2.8772090775
 O,0,-94.9804349405,-13.3404975556,2.4884958973
 H,0,-95.7627130187,-13.3122267743,3.1230858996
 H,0,-94.9568146729,-10.7395286794,3.8653461593
 H,0,-92.8954515796,-11.7763506257,4.4562465628
 H,0,-93.5453141255,-12.9343533559,6.4932981792
 H,0,-94.6175539169,-14.0133589193,5.6101288076
 H,0,-92.6503229961,-15.0366456256,4.4346720037
 H,0,-92.6381065459,-15.1998811821,6.1764303856
 H,0,-91.0056423891,-13.2236158231,6.2913193329
 H,0,-90.4067878397,-14.7507402858,5.6056814545
 H,0,-91.4563402326,-13.2724799297,3.4321651924
 H,0,-88.0420497882,-11.5763266884,4.8079791693
 H,0,-88.6493579664,-12.944256599,5.6643092036
 H,0,-90.4881581821,-11.7391048019,2.232193123
 H,0,-88.8300421734,-11.3519196501,2.4866389944
 Recover connectivity data from disk.
                           ----------------------------
                           !    Current Parameters    !
                           ! (Angstroms and Degrees)  !
 --------------------------                            --------------------------
 ! Name  Definition              Value                                          !
 --------------------------------------------------------------------------------
 ! R1    R(1,2)                  1.4493                                         !
 ! R2    R(1,24)                 1.013                                          !
 ! R3    R(1,25)                 1.0145                                         !
 ! R4    R(2,3)                  1.5418                                         !
 ! R5    R(2,5)                  1.5549                                         !
 ! R6    R(2,15)                 1.0982                                         !
 ! R7    R(3,4)                  1.2419                                         !
 ! R8    R(3,26)                 1.3439                                         !
 ! R9    R(5,6)                  1.4949                                         !
 ! R10   R(5,16)                 1.0967                                         !
 ! R11   R(5,17)                 1.0945                                         !
 ! R12   R(6,7)                  1.3704                                         !
 ! R13   R(6,8)                  1.4411                                         !
 ! R14   R(7,11)                 1.3834                                         !
 ! R15   R(7,18)                 1.0813                                         !
 ! R16   R(8,9)                  1.4212                                         !
 ! R17   R(8,10)                 1.406                                          !
 ! R18   R(9,11)                 1.3809                                         !
 ! R19   R(9,12)                 1.3982                                         !
 ! R20   R(10,13)                1.39                                           !
 ! R21   R(10,20)                1.0879                                         !
 ! R22   R(11,19)                1.008                                          !
 ! R23   R(12,14)                1.3914                                         !
 ! R24   R(12,21)                1.0867                                         !
 ! R25   R(13,14)                1.4108                                         !
 ! R26   R(13,22)                1.0867                                         !
 ! R27   R(14,23)                1.0864                                         !
 ! R28   R(26,27)                1.4671                                         !
 ! R29   R(26,34)                1.0118                                         !
 ! R30   R(27,28)                1.5529                                         !
 ! R31   R(27,30)                1.5513                                         !
 ! R32   R(27,35)                1.0948                                         !
 ! R33   R(28,29)                1.217                                          !
 ! R34   R(28,45)                1.395                                          !
 ! R35   R(30,31)                1.5447                                         !
 ! R36   R(30,32)                1.5375                                         !
 ! R37   R(30,36)                1.0948                                         !
 ! R38   R(31,33)                1.5326                                         !
 ! R39   R(31,37)                1.1006                                         !
 ! R40   R(31,38)                1.096                                          !
 ! R41   R(32,39)                1.0929                                         !
 ! R42   R(32,40)                1.0964                                         !
 ! R43   R(32,41)                1.0991                                         !
 ! R44   R(33,42)                1.0957                                         !
 ! R45   R(33,43)                1.095                                          !
 ! R46   R(33,44)                1.0953                                         !
 ! R47   R(45,46)                1.4637                                         !
 ! R48   R(45,58)                1.0169                                         !
 ! R49   R(46,47)                1.5559                                         !
 ! R50   R(46,49)                1.5434                                         !
 ! R51   R(46,59)                1.0954                                         !
 ! R52   R(47,48)                1.2349                                         !
 ! R53   R(47,56)                1.3018                                         !
 ! R54   R(49,50)                1.5432                                         !
 ! R55   R(49,60)                1.0956                                         !
 ! R56   R(49,61)                1.0935                                         !
 ! R57   R(50,51)                1.5391                                         !
 ! R58   R(50,62)                1.0969                                         !
 ! R59   R(50,63)                1.095                                          !
 ! R60   R(51,52)                1.4653                                         !
 ! R61   R(51,64)                1.0989                                         !
 ! R62   R(51,65)                1.0974                                         !
 ! R63   R(52,53)                1.3215                                         !
 ! R64   R(52,66)                1.0403                                         !
 ! R65   R(53,54)                1.345                                          !
 ! R66   R(53,55)                1.3515                                         !
 ! R67   R(54,67)                1.0099                                         !
 ! R68   R(54,68)                1.009                                          !
 ! R69   R(55,69)                1.0141                                         !
 ! R70   R(55,70)                1.0107                                         !
 ! R71   R(56,57)                1.0077                                         !
 ! A1    A(2,1,24)             116.3851                                         !
 ! A2    A(2,1,25)             114.832                                          !
 ! A3    A(24,1,25)            111.8308                                         !
 ! A4    A(1,2,3)              117.7323                                         !
 ! A5    A(1,2,5)              110.6724                                         !
 ! A6    A(1,2,15)             107.1718                                         !
 ! A7    A(3,2,5)              110.6207                                         !
 ! A8    A(3,2,15)             102.9258                                         !
 ! A9    A(5,2,15)             106.8364                                         !
 ! A10   A(2,3,4)              119.84                                           !
 ! A11   A(2,3,26)             116.938                                          !
 ! A12   A(4,3,26)             123.0943                                         !
 ! A13   A(2,5,6)              111.2666                                         !
 ! A14   A(2,5,16)             108.6352                                         !
 ! A15   A(2,5,17)             108.5683                                         !
 ! A16   A(6,5,16)             111.4563                                         !
 ! A17   A(6,5,17)             109.6377                                         !
 ! A18   A(16,5,17)            107.1468                                         !
 ! A19   A(5,6,7)              129.2187                                         !
 ! A20   A(5,6,8)              124.0581                                         !
 ! A21   A(7,6,8)              106.6498                                         !
 ! A22   A(6,7,11)             109.7763                                         !
 ! A23   A(6,7,18)             129.6198                                         !
 ! A24   A(11,7,18)            120.6031                                         !
 ! A25   A(6,8,9)              107.229                                          !
 ! A26   A(6,8,10)             133.448                                          !
 ! A27   A(9,8,10)             119.3226                                         !
 ! A28   A(8,9,11)             107.0138                                         !
 ! A29   A(8,9,12)             122.0482                                         !
 ! A30   A(11,9,12)            130.9377                                         !
 ! A31   A(8,10,13)            118.7627                                         !
 ! A32   A(8,10,20)            120.5115                                         !
 ! A33   A(13,10,20)           120.7208                                         !
 ! A34   A(7,11,9)             109.3306                                         !
 ! A35   A(7,11,19)            125.2235                                         !
 ! A36   A(9,11,19)            125.4005                                         !
 ! A37   A(9,12,14)            117.4523                                         !
 ! A38   A(9,12,21)            121.3718                                         !
 ! A39   A(14,12,21)           121.1758                                         !
 ! A40   A(10,13,14)           121.0303                                         !
 ! A41   A(10,13,22)           119.6629                                         !
 ! A42   A(14,13,22)           119.3033                                         !
 ! A43   A(12,14,13)           121.3833                                         !
 ! A44   A(12,14,23)           119.2199                                         !
 ! A45   A(13,14,23)           119.3959                                         !
 ! A46   A(3,26,27)            128.5769                                         !
 ! A47   A(3,26,34)            115.1495                                         !
 ! A48   A(27,26,34)           116.0884                                         !
 ! A49   A(26,27,28)           112.2529                                         !
 ! A50   A(26,27,30)           111.5651                                         !
 ! A51   A(26,27,35)           107.4643                                         !
 ! A52   A(28,27,30)           109.0539                                         !
 ! A53   A(28,27,35)           109.2375                                         !
 ! A54   A(30,27,35)           107.104                                          !
 ! A55   A(27,28,29)           119.8468                                         !
 ! A56   A(27,28,45)           120.9521                                         !
 ! A57   A(29,28,45)           118.1929                                         !
 ! A58   A(27,30,31)           109.4354                                         !
 ! A59   A(27,30,32)           111.4609                                         !
 ! A60   A(27,30,36)           106.8064                                         !
 ! A61   A(31,30,32)           110.9647                                         !
 ! A62   A(31,30,36)           108.6655                                         !
 ! A63   A(32,30,36)           109.3821                                         !
 ! A64   A(30,31,33)           113.6277                                         !
 ! A65   A(30,31,37)           108.8975                                         !
 ! A66   A(30,31,38)           109.5538                                         !
 ! A67   A(33,31,37)           109.9474                                         !
 ! A68   A(33,31,38)           107.9559                                         !
 ! A69   A(37,31,38)           106.6223                                         !
 ! A70   A(30,32,39)           110.536                                          !
 ! A71   A(30,32,40)           112.5589                                         !
 ! A72   A(30,32,41)           111.5382                                         !
 ! A73   A(39,32,40)           106.1091                                         !
 ! A74   A(39,32,41)           107.1881                                         !
 ! A75   A(40,32,41)           108.6253                                         !
 ! A76   A(31,33,42)           110.5379                                         !
 ! A77   A(31,33,43)           110.6606                                         !
 ! A78   A(31,33,44)           112.3429                                         !
 ! A79   A(42,33,43)           107.8386                                         !
 ! A80   A(42,33,44)           107.9598                                         !
 ! A81   A(43,33,44)           107.3248                                         !
 ! A82   A(28,45,46)           136.434                                          !
 ! A83   A(28,45,58)           106.6681                                         !
 ! A84   A(46,45,58)           111.727                                          !
 ! A85   A(45,46,47)           111.5351                                         !
 ! A86   A(45,46,49)           115.8654                                         !
 ! A87   A(45,46,59)           105.7078                                         !
 ! A88   A(47,46,49)           111.6208                                         !
 ! A89   A(47,46,59)           103.7864                                         !
 ! A90   A(49,46,59)           107.3154                                         !
 ! A91   A(46,47,48)           119.6644                                         !
 ! A92   A(46,47,56)           119.8477                                         !
 ! A93   A(48,47,56)           120.4801                                         !
 ! A94   A(46,49,50)           116.8325                                         !
 ! A95   A(46,49,60)           107.3092                                         !
 ! A96   A(46,49,61)           109.5423                                         !
 ! A97   A(50,49,60)           108.2696                                         !
 ! A98   A(50,49,61)           107.5466                                         !
 ! A99   A(60,49,61)           106.9288                                         !
 ! A100  A(49,50,51)           116.719                                          !
 ! A101  A(49,50,62)           111.0075                                         !
 ! A102  A(49,50,63)           106.9147                                         !
 ! A103  A(51,50,62)           108.939                                          !
 ! A104  A(51,50,63)           106.711                                          !
 ! A105  A(62,50,63)           105.9033                                         !
 ! A106  A(50,51,52)           110.2699                                         !
 ! A107  A(50,51,64)           110.3537                                         !
 ! A108  A(50,51,65)           109.0364                                         !
 ! A109  A(52,51,64)           109.5461                                         !
 ! A110  A(52,51,65)           109.5066                                         !
 ! A111  A(64,51,65)           108.0898                                         !
 ! A112  A(51,52,53)           127.2477                                         !
 ! A113  A(51,52,66)           116.5487                                         !
 ! A114  A(53,52,66)           115.7939                                         !
 ! A115  A(52,53,54)           122.1029                                         !
 ! A116  A(52,53,55)           118.8141                                         !
 ! A117  A(54,53,55)           119.0709                                         !
 ! A118  A(53,54,67)           120.9078                                         !
 ! A119  A(53,54,68)           120.9974                                         !
 ! A120  A(67,54,68)           117.3217                                         !
 ! A121  A(53,55,69)           118.141                                          !
 ! A122  A(53,55,70)           120.0332                                         !
 ! A123  A(69,55,70)           116.4809                                         !
 ! A124  A(47,56,57)           114.3282                                         !
 ! D1    D(24,1,2,3)           -70.2677                                         !
 ! D2    D(24,1,2,5)           161.1504                                         !
 ! D3    D(24,1,2,15)           45.0075                                         !
 ! D4    D(25,1,2,3)            63.1221                                         !
 ! D5    D(25,1,2,5)           -65.4598                                         !
 ! D6    D(25,1,2,15)          178.3973                                         !
 ! D7    D(1,2,3,4)           -173.936                                          !
 ! D8    D(1,2,3,26)            10.0448                                         !
 ! D9    D(5,2,3,4)            -45.3297                                         !
 ! D10   D(5,2,3,26)           138.6511                                         !
 ! D11   D(15,2,3,4)            68.4908                                         !
 ! D12   D(15,2,3,26)         -107.5284                                         !
 ! D13   D(1,2,5,6)            -85.3198                                         !
 ! D14   D(1,2,5,16)            37.7383                                         !
 ! D15   D(1,2,5,17)           153.9379                                         !
 ! D16   D(3,2,5,6)            142.3509                                         !
 ! D17   D(3,2,5,16)           -94.5909                                         !
 ! D18   D(3,2,5,17)            21.6086                                         !
 ! D19   D(15,2,5,6)            31.0311                                         !
 ! D20   D(15,2,5,16)          154.0892                                         !
 ! D21   D(15,2,5,17)          -89.7112                                         !
 ! D22   D(2,3,26,27)          179.6997                                         !
 ! D23   D(2,3,26,34)           -5.4897                                         !
 ! D24   D(4,3,26,27)            3.8216                                         !
 ! D25   D(4,3,26,34)          178.6322                                         !
 ! D26   D(2,5,6,7)            105.5457                                         !
 ! D27   D(2,5,6,8)            -70.9107                                         !
 ! D28   D(16,5,6,7)           -15.8803                                         !
 ! D29   D(16,5,6,8)           167.6632                                         !
 ! D30   D(17,5,6,7)          -134.3426                                         !
 ! D31   D(17,5,6,8)            49.2009                                         !
 ! D32   D(5,6,7,11)          -177.1562                                         !
 ! D33   D(5,6,7,18)             2.5155                                         !
 ! D34   D(8,6,7,11)            -0.2198                                         !
 ! D35   D(8,6,7,18)           179.4518                                         !
 ! D36   D(5,6,8,9)            177.3372                                         !
 ! D37   D(5,6,8,10)            -2.413                                          !
 ! D38   D(7,6,8,9)              0.202                                          !
 ! D39   D(7,6,8,10)          -179.5482                                         !
 ! D40   D(6,7,11,9)             0.1562                                         !
 ! D41   D(6,7,11,19)         -177.4972                                         !
 ! D42   D(18,7,11,9)         -179.55                                           !
 ! D43   D(18,7,11,19)           2.7966                                         !
 ! D44   D(6,8,9,11)            -0.1097                                         !
 ! D45   D(6,8,9,12)          -179.9493                                         !
 ! D46   D(10,8,9,11)          179.6822                                         !
 ! D47   D(10,8,9,12)           -0.1574                                         !
 ! D48   D(6,8,10,13)          179.6649                                         !
 ! D49   D(6,8,10,20)           -1.1508                                         !
 ! D50   D(9,8,10,13)           -0.0613                                         !
 ! D51   D(9,8,10,20)          179.123                                          !
 ! D52   D(8,9,11,7)            -0.0232                                         !
 ! D53   D(8,9,11,19)          177.6251                                         !
 ! D54   D(12,9,11,7)          179.7968                                         !
 ! D55   D(12,9,11,19)          -2.5549                                         !
 ! D56   D(8,9,12,14)            0.285                                          !
 ! D57   D(8,9,12,21)         -179.6472                                         !
 ! D58   D(11,9,12,14)        -179.5119                                         !
 ! D59   D(11,9,12,21)           0.5559                                         !
 ! D60   D(8,10,13,14)           0.1429                                         !
 ! D61   D(8,10,13,22)         179.4613                                         !
 ! D62   D(20,10,13,14)       -179.0396                                         !
 ! D63   D(20,10,13,22)          0.2788                                         !
 ! D64   D(9,12,14,13)          -0.2015                                         !
 ! D65   D(9,12,14,23)        -179.847                                          !
 ! D66   D(21,12,14,13)        179.7309                                         !
 ! D67   D(21,12,14,23)          0.0854                                         !
 ! D68   D(10,13,14,12)         -0.0095                                         !
 ! D69   D(10,13,14,23)        179.6354                                         !
 ! D70   D(22,13,14,12)       -179.3303                                         !
 ! D71   D(22,13,14,23)          0.3146                                         !
 ! D72   D(3,26,27,28)           5.5386                                         !
 ! D73   D(3,26,27,30)         128.2897                                         !
 ! D74   D(3,26,27,35)        -114.5895                                         !
 ! D75   D(34,26,27,28)       -169.2309                                         !
 ! D76   D(34,26,27,30)        -46.4798                                         !
 ! D77   D(34,26,27,35)         70.641                                          !
 ! D78   D(26,27,28,29)         91.9169                                         !
 ! D79   D(26,27,28,45)        -99.7756                                         !
 ! D80   D(30,27,28,29)        -32.2409                                         !
 ! D81   D(30,27,28,45)        136.0666                                         !
 ! D82   D(35,27,28,29)       -148.99                                           !
 ! D83   D(35,27,28,45)         19.3175                                         !
 ! D84   D(26,27,30,31)        170.0966                                         !
 ! D85   D(26,27,30,32)         46.9767                                         !
 ! D86   D(26,27,30,36)        -72.4454                                         !
 ! D87   D(28,27,30,31)        -65.3409                                         !
 ! D88   D(28,27,30,32)        171.5392                                         !
 ! D89   D(28,27,30,36)         52.1171                                         !
 ! D90   D(35,27,30,31)         52.7578                                         !
 ! D91   D(35,27,30,32)        -70.3621                                         !
 ! D92   D(35,27,30,36)        170.2159                                         !
 ! D93   D(27,28,45,46)         37.4942                                         !
 ! D94   D(27,28,45,58)       -171.4051                                         !
 ! D95   D(29,28,45,46)       -154.01                                           !
 ! D96   D(29,28,45,58)         -2.9093                                         !
 ! D97   D(27,30,31,33)        163.4995                                         !
 ! D98   D(27,30,31,37)        -73.5889                                         !
 ! D99   D(27,30,31,38)         42.6714                                         !
 ! D100  D(32,30,31,33)        -73.0871                                         !
 ! D101  D(32,30,31,37)         49.8245                                         !
 ! D102  D(32,30,31,38)        166.0848                                         !
 ! D103  D(36,30,31,33)         47.215                                          !
 ! D104  D(36,30,31,37)        170.1266                                         !
 ! D105  D(36,30,31,38)        -73.6131                                         !
 ! D106  D(27,30,32,39)        171.4907                                         !
 ! D107  D(27,30,32,40)        -70.0548                                         !
 ! D108  D(27,30,32,41)         52.3407                                         !
 ! D109  D(31,30,32,39)         49.248                                          !
 ! D110  D(31,30,32,40)        167.7025                                         !
 ! D111  D(31,30,32,41)        -69.9021                                         !
 ! D112  D(36,30,32,39)        -70.6277                                         !
 ! D113  D(36,30,32,40)         47.8268                                         !
 ! D114  D(36,30,32,41)        170.2223                                         !
 ! D115  D(30,31,33,42)        -59.6366                                         !
 ! D116  D(30,31,33,43)       -179.0352                                         !
 ! D117  D(30,31,33,44)         61.0262                                         !
 ! D118  D(37,31,33,42)        178.0302                                         !
 ! D119  D(37,31,33,43)         58.6315                                         !
 ! D120  D(37,31,33,44)        -61.307                                          !
 ! D121  D(38,31,33,42)         62.0849                                         !
 ! D122  D(38,31,33,43)        -57.3138                                         !
 ! D123  D(38,31,33,44)       -177.2523                                         !
 ! D124  D(28,45,46,47)        101.2077                                         !
 ! D125  D(28,45,46,49)        -27.9557                                         !
 ! D126  D(28,45,46,59)       -146.6377                                         !
 ! D127  D(58,45,46,47)        -48.9                                            !
 ! D128  D(58,45,46,49)       -178.0634                                         !
 ! D129  D(58,45,46,59)         63.2545                                         !
 ! D130  D(45,46,47,48)        136.996                                          !
 ! D131  D(45,46,47,56)        -41.9935                                         !
 ! D132  D(49,46,47,48)        -91.6357                                         !
 ! D133  D(49,46,47,56)         89.3748                                         !
 ! D134  D(59,46,47,48)         23.6357                                         !
 ! D135  D(59,46,47,56)       -155.3538                                         !
 ! D136  D(45,46,49,50)       -179.5323                                         !
 ! D137  D(45,46,49,60)        -57.822                                          !
 ! D138  D(45,46,49,61)         57.916                                          !
 ! D139  D(47,46,49,50)         51.346                                          !
 ! D140  D(47,46,49,60)        173.0562                                         !
 ! D141  D(47,46,49,61)        -71.2057                                         !
 ! D142  D(59,46,49,50)        -61.7375                                         !
 ! D143  D(59,46,49,60)         59.9727                                         !
 ! D144  D(59,46,49,61)        175.7107                                         !
 ! D145  D(46,47,56,57)         -9.3194                                         !
 ! D146  D(48,47,56,57)        171.6995                                         !
 ! D147  D(46,49,50,51)         64.9646                                         !
 ! D148  D(46,49,50,62)        -60.664                                          !
 ! D149  D(46,49,50,63)       -175.7245                                         !
 ! D150  D(60,49,50,51)        -56.2419                                         !
 ! D151  D(60,49,50,62)        178.1295                                         !
 ! D152  D(60,49,50,63)         63.069                                          !
 ! D153  D(61,49,50,51)       -171.4552                                         !
 ! D154  D(61,49,50,62)         62.9162                                         !
 ! D155  D(61,49,50,63)        -52.1443                                         !
 ! D156  D(49,50,51,52)        -76.2149                                         !
 ! D157  D(49,50,51,64)         44.9438                                         !
 ! D158  D(49,50,51,65)        163.5213                                         !
 ! D159  D(62,50,51,52)         50.4431                                         !
 ! D160  D(62,50,51,64)        171.6018                                         !
 ! D161  D(62,50,51,65)        -69.8207                                         !
 ! D162  D(63,50,51,52)        164.3648                                         !
 ! D163  D(63,50,51,64)        -74.4765                                         !
 ! D164  D(63,50,51,65)         44.101                                          !
 ! D165  D(50,51,52,53)        166.8744                                         !
 ! D166  D(50,51,52,66)         -5.4217                                         !
 ! D167  D(64,51,52,53)         45.2354                                         !
 ! D168  D(64,51,52,66)       -127.0607                                         !
 ! D169  D(65,51,52,53)        -73.1452                                         !
 ! D170  D(65,51,52,66)        114.5587                                         !
 ! D171  D(51,52,53,54)         12.3227                                         !
 ! D172  D(51,52,53,55)       -166.3924                                         !
 ! D173  D(66,52,53,54)       -175.3311                                         !
 ! D174  D(66,52,53,55)          5.9537                                         !
 ! D175  D(52,53,54,67)       -164.351                                          !
 ! D176  D(52,53,54,68)          5.3083                                         !
 ! D177  D(55,53,54,67)         14.361                                          !
 ! D178  D(55,53,54,68)       -175.9798                                         !
 ! D179  D(52,53,55,69)         -1.3434                                         !
 ! D180  D(52,53,55,70)       -154.6369                                         !
 ! D181  D(54,53,55,69)        179.9019                                         !
 ! D182  D(54,53,55,70)         26.6083                                         !
 --------------------------------------------------------------------------------
 Symmetry turned off by external request.
 Stoichiometry    C23H36N7O4(1+)
 Framework group  C1[X(C23H36N7O4)]
 Deg. of freedom   204
 Full point group                 C1      NOp   1
                          Input orientation:                          
 ---------------------------------------------------------------------
 Center     Atomic      Atomic             Coordinates (Angstroms)
 Number     Number       Type             X           Y           Z
 ---------------------------------------------------------------------
      1          7           0      -98.468412  -15.886272    6.641173
      2          6           0      -97.999156  -15.460346    5.337763
      3          6           0      -97.323739  -14.078161    5.234811
      4          8           0      -97.009020  -13.625510    4.121956
      5          6           0      -99.126646  -15.599326    4.276061
      6          6           0      -99.173172  -16.983182    3.712509
      7          6           0     -100.074879  -17.986761    3.952832
      8          6           0      -98.174773  -17.528280    2.827783
      9          6           0      -98.536697  -18.877181    2.564815
     10          6           0      -97.011007  -17.000706    2.241085
     11          7           0      -99.700333  -19.127165    3.265036
     12          6           0      -97.771843  -19.702218    1.734591
     13          6           0      -96.246135  -17.819818    1.418839
     14          6           0      -96.623859  -19.156023    1.169140
     15          1           0      -97.196433  -16.148726    5.041276
     16          1           0     -100.081070  -15.322884    4.740196
     17          1           0      -98.938758  -14.880881    3.472060
     18          1           0     -100.962703  -17.982833    4.570088
     19          1           0     -100.217650  -19.992072    3.248058
     20          1           0      -96.723457  -15.966502    2.417790
     21          1           0      -98.061940  -20.730540    1.536515
     22          1           0      -95.348609  -17.424513    0.950818
     23          1           0      -96.009570  -19.770905    0.517356
     24          1           0      -97.755610  -16.114925    7.323639
     25          1           0      -99.201054  -15.308728    7.039895
     26          7           0      -97.031189  -13.455997    6.389485
     27          6           0      -96.389950  -12.151643    6.588900
     28          6           0      -96.156909  -11.400080    5.250093
     29          8           0      -97.000193  -10.627263    4.834618
     30          6           0      -97.218816  -11.248136    7.539243
     31          6           0      -96.390585   -9.998915    7.912977
     32          6           0      -97.660768  -12.012002    8.798216
     33          6           0      -97.228662   -8.861272    8.506456
     34          1           0      -97.363454  -13.920778    7.224554
     35          1           0      -95.425363  -12.330589    7.074741
     36          1           0      -98.103385  -10.927485    6.979591
     37          1           0      -95.601624  -10.293235    8.621662
     38          1           0      -95.883143   -9.614786    7.020670
     39          1           0      -98.110569  -11.328804    9.523035
     40          1           0      -98.421413  -12.771929    8.583775
     41          1           0      -96.809298  -12.498020    9.294991
     42          1           0      -97.995544   -8.536837    7.794273
     43          1           0      -96.597850   -7.996478    8.737235
     44          1           0      -97.731713   -9.154833    9.434002
     45          7           0      -94.905538  -11.403940    4.633504
     46          6           0      -93.818533  -12.366078    4.446065
     47          6           0      -93.845643  -12.987730    3.020046
     48          8           0      -92.790625  -13.125435    2.393196
     49          6           0      -93.683230  -13.449969    5.536466
     50          6           0      -92.537275  -14.469556    5.366757
     51          6           0      -91.102654  -13.917546    5.444777
     52          7           0      -90.756997  -13.224652    4.200815
     53          6           0      -89.723259  -12.429090    3.989031
     54          7           0      -88.698936  -12.341807    4.856377
     55          7           0      -89.709549  -11.660901    2.877209
     56          8           0      -94.980435  -13.340498    2.488496
     57          1           0      -95.762713  -13.312227    3.123086
     58          1           0      -94.956815  -10.739529    3.865346
     59          1           0      -92.895452  -11.776351    4.456247
     60          1           0      -93.545314  -12.934353    6.493298
     61          1           0      -94.617554  -14.013359    5.610129
     62          1           0      -92.650323  -15.036646    4.434672
     63          1           0      -92.638107  -15.199881    6.176430
     64          1           0      -91.005642  -13.223616    6.291319
     65          1           0      -90.406788  -14.750740    5.605681
     66          1           0      -91.456340  -13.272480    3.432165
     67          1           0      -88.042050  -11.576327    4.807979
     68          1           0      -88.649358  -12.944257    5.664309
     69          1           0      -90.488158  -11.739105    2.232193
     70          1           0      -88.830042  -11.351920    2.486639
 ---------------------------------------------------------------------
 Rotational constants (GHZ):           0.1267504           0.0757993           0.0528947
 Standard basis: 6-31G(d) (6D, 7F)
   582 basis functions,  1096 primitive gaussians,   582 cartesian basis functions
   127 alpha electrons      127 beta electrons
       nuclear repulsion energy      3734.7546703026 Hartrees.
 NAtoms=   70 NActive=   70 NUniq=   70 SFac= 1.00D+00 NAtFMM=   60 NAOKFM=T Big=T
 Integral buffers will be    131072 words long.
 Raffenetti 2 integral format.
 Two-electron integral symmetry is turned off.
 Nuclear repulsion after empirical dispersion term =     3734.6685253530 Hartrees.
 One-electron integrals computed using PRISM.
 NBasis=   582 RedAO= T EigKep=  3.70D-04  NBF=   582
 NBsUse=   582 1.00D-06 EigRej= -1.00D+00 NBFU=   582
 Initial guess from the checkpoint file:  "conf-112.chk"
 B after Tr=     0.000000    0.000000    0.000000
         Rot=    1.000000    0.000000    0.000000    0.000000 Ang=   0.00 deg.
 Requested convergence on RMS density matrix=1.00D-08 within 128 cycles.
 Requested convergence on MAX density matrix=1.00D-06.
 Requested convergence on             energy=1.00D-06.
 No special actions if energy rises.
 SCF Done:  E(RB3LYP) =  -1582.21750791     A.U. after    1 cycles
            NFock=  1  Conv=0.50D-08     -V/T= 2.0096

 **********************************************************************

            Population analysis using the SCF Density.

 **********************************************************************

 Alpha  occ. eigenvalues --  -19.29211 -19.25500 -19.22489 -19.21009 -14.53133
 Alpha  occ. eigenvalues --  -14.52078 -14.51338 -14.47052 -14.46199 -14.43033
 Alpha  occ. eigenvalues --  -14.41087 -10.48720 -10.43632 -10.39174 -10.38947
 Alpha  occ. eigenvalues --  -10.37375 -10.36489 -10.33671 -10.32761 -10.32469
 Alpha  occ. eigenvalues --  -10.31209 -10.27954 -10.27111 -10.26904 -10.26663
 Alpha  occ. eigenvalues --  -10.26160 -10.25740 -10.24384 -10.23917 -10.23638
 Alpha  occ. eigenvalues --  -10.23427 -10.23362 -10.23300 -10.23134  -1.21248
 Alpha  occ. eigenvalues --   -1.17320  -1.14453  -1.13173  -1.12500  -1.06507
 Alpha  occ. eigenvalues --   -1.05541  -1.03516  -1.02871  -1.02445  -0.97838
 Alpha  occ. eigenvalues --   -0.93297  -0.89993  -0.88818  -0.87456  -0.85843
 Alpha  occ. eigenvalues --   -0.83310  -0.81576  -0.80558  -0.79849  -0.78940
 Alpha  occ. eigenvalues --   -0.78452  -0.76888  -0.75153  -0.74045  -0.73666
 Alpha  occ. eigenvalues --   -0.72401  -0.71104  -0.70604  -0.69425  -0.67246
 Alpha  occ. eigenvalues --   -0.67127  -0.65792  -0.65351  -0.65177  -0.64429
 Alpha  occ. eigenvalues --   -0.63985  -0.63240  -0.62084  -0.61524  -0.61260
 Alpha  occ. eigenvalues --   -0.60335  -0.59134  -0.59000  -0.58426  -0.57759
 Alpha  occ. eigenvalues --   -0.56721  -0.56374  -0.55731  -0.54241  -0.54145
 Alpha  occ. eigenvalues --   -0.53762  -0.53442  -0.53083  -0.52432  -0.52247
 Alpha  occ. eigenvalues --   -0.51873  -0.50851  -0.49936  -0.49450  -0.48947
 Alpha  occ. eigenvalues --   -0.48913  -0.48437  -0.48006  -0.47730  -0.47407
 Alpha  occ. eigenvalues --   -0.46933  -0.46331  -0.45946  -0.45749  -0.45439
 Alpha  occ. eigenvalues --   -0.44278  -0.43894  -0.43883  -0.43448  -0.42820
 Alpha  occ. eigenvalues --   -0.42321  -0.41742  -0.41377  -0.40731  -0.40535
 Alpha  occ. eigenvalues --   -0.40238  -0.40131  -0.38752  -0.38257  -0.37798
 Alpha  occ. eigenvalues --   -0.36211  -0.35432  -0.34371  -0.32703  -0.31344
 Alpha  occ. eigenvalues --   -0.27236  -0.25367
 Alpha virt. eigenvalues --   -0.12978  -0.11724  -0.08599  -0.08139  -0.08131
 Alpha virt. eigenvalues --   -0.06062  -0.05098  -0.03656  -0.03255  -0.02863
 Alpha virt. eigenvalues --   -0.02416  -0.01735  -0.00857  -0.00134   0.00699
 Alpha virt. eigenvalues --    0.01383   0.01756   0.02150   0.02739   0.03123
 Alpha virt. eigenvalues --    0.03605   0.03758   0.04574   0.04964   0.05156
 Alpha virt. eigenvalues --    0.05211   0.06031   0.06129   0.06544   0.06639
 Alpha virt. eigenvalues --    0.07273   0.07648   0.07780   0.08286   0.08892
 Alpha virt. eigenvalues --    0.09158   0.09318   0.09610   0.10419   0.10534
 Alpha virt. eigenvalues --    0.10701   0.11211   0.11243   0.11742   0.12251
 Alpha virt. eigenvalues --    0.12790   0.13015   0.13294   0.13835   0.14480
 Alpha virt. eigenvalues --    0.14908   0.15656   0.16330   0.16485   0.17008
 Alpha virt. eigenvalues --    0.17976   0.18173   0.18929   0.19590   0.20320
 Alpha virt. eigenvalues --    0.21057   0.21281   0.22795   0.22876   0.23814
 Alpha virt. eigenvalues --    0.24049   0.26176   0.26500   0.27203   0.27677
 Alpha virt. eigenvalues --    0.28956   0.29805   0.30437   0.32767   0.35100
 Alpha virt. eigenvalues --    0.35359   0.36724   0.37940   0.38412   0.39014
 Alpha virt. eigenvalues --    0.39423   0.40679   0.41289   0.42077   0.42664
 Alpha virt. eigenvalues --    0.43552   0.43926   0.44504   0.44954   0.45598
 Alpha virt. eigenvalues --    0.45889   0.46180   0.46541   0.46920   0.47518
 Alpha virt. eigenvalues --    0.48103   0.48969   0.49252   0.49482   0.49801
 Alpha virt. eigenvalues --    0.50194   0.50792   0.51124   0.51350   0.51733
 Alpha virt. eigenvalues --    0.52043   0.52540   0.52891   0.53741   0.54031
 Alpha virt. eigenvalues --    0.54208   0.54420   0.55030   0.55351   0.55819
 Alpha virt. eigenvalues --    0.56270   0.56659   0.57028   0.57300   0.57600
 Alpha virt. eigenvalues --    0.57940   0.58394   0.59431   0.59699   0.59884
 Alpha virt. eigenvalues --    0.60162   0.61346   0.62287   0.62449   0.62955
 Alpha virt. eigenvalues --    0.63333   0.64130   0.64370   0.64702   0.64774
 Alpha virt. eigenvalues --    0.66072   0.66692   0.67203   0.67822   0.68833
 Alpha virt. eigenvalues --    0.70239   0.71028   0.71728   0.71835   0.72177
 Alpha virt. eigenvalues --    0.72621   0.73343   0.74051   0.74294   0.74556
 Alpha virt. eigenvalues --    0.75266   0.75401   0.75798   0.76207   0.76426
 Alpha virt. eigenvalues --    0.76640   0.77508   0.77667   0.77795   0.78592
 Alpha virt. eigenvalues --    0.78815   0.79339   0.79958   0.80115   0.80690
 Alpha virt. eigenvalues --    0.81283   0.81568   0.81850   0.82174   0.82361
 Alpha virt. eigenvalues --    0.82512   0.83218   0.83486   0.83582   0.84139
 Alpha virt. eigenvalues --    0.84212   0.84767   0.84894   0.86392   0.86402
 Alpha virt. eigenvalues --    0.87156   0.87392   0.87844   0.89005   0.89903
 Alpha virt. eigenvalues --    0.90309   0.90753   0.91146   0.91771   0.92457
 Alpha virt. eigenvalues --    0.92808   0.93643   0.93964   0.94900   0.95264
 Alpha virt. eigenvalues --    0.95897   0.96309   0.96816   0.97856   0.99582
 Alpha virt. eigenvalues --    1.00209   1.01180   1.01347   1.02669   1.03442
 Alpha virt. eigenvalues --    1.04350   1.05133   1.06398   1.06655   1.07490
 Alpha virt. eigenvalues --    1.08294   1.08826   1.10499   1.11107   1.11939
 Alpha virt. eigenvalues --    1.13148   1.13249   1.15053   1.15993   1.16572
 Alpha virt. eigenvalues --    1.18615   1.18920   1.19561   1.20470   1.21020
 Alpha virt. eigenvalues --    1.21518   1.22372   1.23767   1.25162   1.26346
 Alpha virt. eigenvalues --    1.27620   1.28524   1.29507   1.29731   1.31060
 Alpha virt. eigenvalues --    1.31747   1.32263   1.32956   1.34280   1.35513
 Alpha virt. eigenvalues --    1.36064   1.36142   1.37030   1.37202   1.38822
 Alpha virt. eigenvalues --    1.39199   1.39394   1.40771   1.41874   1.42213
 Alpha virt. eigenvalues --    1.43721   1.44916   1.44951   1.45647   1.46980
 Alpha virt. eigenvalues --    1.47342   1.48129   1.49670   1.50598   1.50795
 Alpha virt. eigenvalues --    1.51941   1.52465   1.54618   1.54836   1.55769
 Alpha virt. eigenvalues --    1.56716   1.58689   1.60175   1.61016   1.61686
 Alpha virt. eigenvalues --    1.62845   1.63149   1.64688   1.65479   1.65583
 Alpha virt. eigenvalues --    1.66961   1.67376   1.67992   1.69313   1.69755
 Alpha virt. eigenvalues --    1.70050   1.70673   1.72224   1.73027   1.73922
 Alpha virt. eigenvalues --    1.74371   1.75285   1.75478   1.76533   1.77373
 Alpha virt. eigenvalues --    1.77990   1.78492   1.79785   1.80166   1.81007
 Alpha virt. eigenvalues --    1.81813   1.81949   1.82224   1.82964   1.83387
 Alpha virt. eigenvalues --    1.84729   1.84840   1.86197   1.86776   1.87197
 Alpha virt. eigenvalues --    1.88045   1.88242   1.89291   1.90114   1.90835
 Alpha virt. eigenvalues --    1.91342   1.91957   1.92320   1.93105   1.94079
 Alpha virt. eigenvalues --    1.94248   1.94978   1.95309   1.95790   1.96371
 Alpha virt. eigenvalues --    1.97697   1.98926   1.99472   2.00337   2.00767
 Alpha virt. eigenvalues --    2.01937   2.02655   2.02879   2.03988   2.05160
 Alpha virt. eigenvalues --    2.05749   2.06461   2.07496   2.08538   2.08771
 Alpha virt. eigenvalues --    2.10084   2.11118   2.11548   2.12419   2.13164
 Alpha virt. eigenvalues --    2.14095   2.15068   2.17446   2.17911   2.19380
 Alpha virt. eigenvalues --    2.19820   2.20502   2.20790   2.21304   2.22004
 Alpha virt. eigenvalues --    2.22719   2.23472   2.23998   2.24563   2.25615
 Alpha virt. eigenvalues --    2.26825   2.27432   2.28612   2.30090   2.30838
 Alpha virt. eigenvalues --    2.32628   2.32849   2.33141   2.35328   2.36032
 Alpha virt. eigenvalues --    2.36392   2.37129   2.38157   2.39230   2.41821
 Alpha virt. eigenvalues --    2.42108   2.42694   2.43351   2.44866   2.45168
 Alpha virt. eigenvalues --    2.45683   2.47428   2.48274   2.50665   2.51067
 Alpha virt. eigenvalues --    2.51331   2.51471   2.52919   2.53887   2.54723
 Alpha virt. eigenvalues --    2.55971   2.56188   2.56507   2.57388   2.58187
 Alpha virt. eigenvalues --    2.60096   2.60916   2.61552   2.63028   2.64673
 Alpha virt. eigenvalues --    2.65464   2.66673   2.67491   2.68862   2.71351
 Alpha virt. eigenvalues --    2.72793   2.73505   2.76627   2.77569   2.78718
 Alpha virt. eigenvalues --    2.81745   2.87695   2.88180   2.89758   2.90144
 Alpha virt. eigenvalues --    2.91870   2.93455   2.95490   2.97193   2.98213
 Alpha virt. eigenvalues --    2.99373   3.03854   3.08032   3.11143   3.19375
 Alpha virt. eigenvalues --    3.39426   3.64396   3.71912   3.72878   3.80550
 Alpha virt. eigenvalues --    3.91009   3.92362   3.97342   3.99730   4.02307
 Alpha virt. eigenvalues --    4.04527   4.05321   4.07249   4.09943   4.10806
 Alpha virt. eigenvalues --    4.13347   4.15356   4.15678   4.16996   4.19060
 Alpha virt. eigenvalues --    4.21825   4.27884   4.29824   4.32159   4.34436
 Alpha virt. eigenvalues --    4.35282   4.35868   4.39439   4.45876   4.51649
 Alpha virt. eigenvalues --    4.51950   4.54153   4.60656   4.67770   4.74683
          Condensed to atoms (all electrons):
 Mulliken charges:
               1
     1  N   -0.734038
     2  C   -0.047866
     3  C    0.613526
     4  O   -0.583307
     5  C   -0.352749
     6  C    0.068141
     7  C    0.008660
     8  C    0.078362
     9  C    0.316203
    10  C   -0.224596
    11  N   -0.692885
    12  C   -0.161238
    13  C   -0.144321
    14  C   -0.151197
    15  H    0.189150
    16  H    0.148397
    17  H    0.189105
    18  H    0.155331
    19  H    0.333665
    20  H    0.123199
    21  H    0.131594
    22  H    0.119494
    23  H    0.129580
    24  H    0.312770
    25  H    0.316446
    26  N   -0.622505
    27  C   -0.004018
    28  C    0.593442
    29  O   -0.469753
    30  C   -0.074811
    31  C   -0.270850
    32  C   -0.490766
    33  C   -0.453269
    34  H    0.325083
    35  H    0.142808
    36  H    0.178293
    37  H    0.124528
    38  H    0.153357
    39  H    0.181912
    40  H    0.142149
    41  H    0.140772
    42  H    0.166348
    43  H    0.155965
    44  H    0.151903
    45  N   -0.628940
    46  C   -0.052378
    47  C    0.606496
    48  O   -0.523811
    49  C   -0.306210
    50  C   -0.327295
    51  C   -0.150539
    52  N   -0.630634
    53  C    0.800282
    54  N   -0.759887
    55  N   -0.763311
    56  O   -0.545987
    57  H    0.497068
    58  H    0.343928
    59  H    0.161011
    60  H    0.171675
    61  H    0.184734
    62  H    0.193163
    63  H    0.184331
    64  H    0.174099
    65  H    0.189035
    66  H    0.426048
    67  H    0.384762
    68  H    0.387574
    69  H    0.395299
    70  H    0.377471
 Sum of Mulliken charges =   1.00000
 Mulliken charges with hydrogens summed into heavy atoms:
               1
     1  N   -0.104821
     2  C    0.141284
     3  C    0.613526
     4  O   -0.583307
     5  C   -0.015247
     6  C    0.068141
     7  C    0.163992
     8  C    0.078362
     9  C    0.316203
    10  C   -0.101397
    11  N   -0.359220
    12  C   -0.029644
    13  C   -0.024827
    14  C   -0.021617
    26  N   -0.297422
    27  C    0.138790
    28  C    0.593442
    29  O   -0.469753
    30  C    0.103483
    31  C    0.007036
    32  C   -0.025934
    33  C    0.020948
    45  N   -0.285012
    46  C    0.108633
    47  C    0.606496
    48  O   -0.523811
    49  C    0.050200
    50  C    0.050199
    51  C    0.212595
    52  N   -0.204587
    53  C    0.800282
    54  N    0.012449
    55  N    0.009459
    56  O   -0.048919
 Electronic spatial extent (au):  <R**2>=        8517514.2907
 Charge=              1.0000 electrons
 Dipole moment (field-independent basis, Debye):
    X=           -440.7034    Y=            -64.0100    Z=             28.4971  Tot=            446.2386
 Quadrupole moment (field-independent basis, Debye-Ang):
   XX=          40326.2674   YY=            686.7257   ZZ=            -20.5474
   XY=           5919.4535   XZ=          -2652.9895   YZ=           -382.5655
 Traceless Quadrupole moment (field-independent basis, Debye-Ang):
   XX=          26662.1189   YY=         -12977.4229   ZZ=         -13684.6960
   XY=           5919.4535   XZ=          -2652.9895   YZ=           -382.5655
 Octapole moment (field-independent basis, Debye-Ang**2):
  XXX=       -3678095.0808  YYY=          -4436.6540  ZZZ=          -1573.9498  XYY=         -63668.0573
  XXY=        -546057.7418  XXZ=         246616.9733  XZZ=           2284.9563  YZZ=            436.5534
  YYZ=           4315.1808  XYZ=          35775.8368
 Hexadecapole moment (field-independent basis, Debye-Ang**3):
 XXXX=      334170973.0735 YYYY=         -49862.5615 ZZZZ=         -22474.0873 XXXY=       50223994.4443
 XXXZ=      -22884250.4106 YYYX=         406625.4547 YYYZ=         -36558.8343 ZZZX=         152251.0502
 ZZZY=          21105.4392 XXYY=        5881816.4491 XXZZ=        -252377.3226 YYZZ=         -14476.2792
 XXYZ=       -3341289.5799 YYXZ=        -404034.4830 ZZXY=         -46299.1356
 N-N= 3.734668525353D+03 E-N=-1.112558076724D+04  KE= 1.567248465843D+03
 Unable to Open any file for archive entry.
 1\1\GINC-QML-003\SP\RB3LYP\6-31G(d)\C23H36N7O4(1+)\KENGMITH\24-May-202
 2\0\\# B3LYP/6-31G* empiricaldispersion=gd3 guess=read geom=check nosy
 mm integral(ultrafinegrid)\\Candidate Structure: Conf:112 Charge calc 
 in gas phase\\1,1\N,0,-98.4684115962,-15.8862720871,6.6411734389\C,0,-
 97.999156029,-15.4603460282,5.3377625191\C,0,-97.3237394387,-14.078160
 751,5.2348108596\O,0,-97.0090203633,-13.6255102018,4.1219562138\C,0,-9
 9.1266456411,-15.5993259801,4.2760612155\C,0,-99.1731721743,-16.983182
 2252,3.7125086785\C,0,-100.0748793074,-17.9867611198,3.9528324942\C,0,
 -98.1747731822,-17.5282803378,2.8277829765\C,0,-98.5366973886,-18.8771
 806052,2.5648148197\C,0,-97.011007099,-17.0007063853,2.2410850964\N,0,
 -99.7003327091,-19.1271652418,3.265035573\C,0,-97.7718426498,-19.70221
 80159,1.7345906007\C,0,-96.2461351286,-17.8198181547,1.418838547\C,0,-
 96.6238590685,-19.156022537,1.169139835\H,0,-97.1964332309,-16.1487262
 411,5.0412757948\H,0,-100.0810697183,-15.3228835054,4.7401959992\H,0,-
 98.9387578052,-14.8808807594,3.4720598099\H,0,-100.9627034061,-17.9828
 331086,4.5700880139\H,0,-100.2176500344,-19.9920716971,3.248057703\H,0
 ,-96.7234571172,-15.9665017004,2.4177899489\H,0,-98.0619395792,-20.730
 5403875,1.5365151796\H,0,-95.348608764,-17.4245125849,0.9508175724\H,0
 ,-96.0095704003,-19.7709054793,0.5173564614\H,0,-97.7556100794,-16.114
 9247508,7.3236387796\H,0,-99.2010544375,-15.3087279301,7.0398947209\N,
 0,-97.0311887338,-13.4559972329,6.3894850289\C,0,-96.3899503862,-12.15
 16433007,6.5888998411\C,0,-96.1569091901,-11.4000804005,5.2500925327\O
 ,0,-97.000192875,-10.6272627089,4.8346176738\C,0,-97.2188160011,-11.24
 81356916,7.5392425175\C,0,-96.3905848501,-9.9989148085,7.9129767812\C,
 0,-97.6607676148,-12.0120021905,8.7982161325\C,0,-97.2286618378,-8.861
 2719685,8.5064557997\H,0,-97.363454124,-13.9207781984,7.2245538743\H,0
 ,-95.42536252,-12.3305893098,7.0747410696\H,0,-98.1033847802,-10.92748
 50701,6.9795906798\H,0,-95.6016236246,-10.2932349161,8.6216621782\H,0,
 -95.8831431462,-9.6147863574,7.0206696367\H,0,-98.1105688327,-11.32880
 38966,9.5230354919\H,0,-98.421413008,-12.7719287679,8.5837746397\H,0,-
 96.8092982166,-12.4980195477,9.2949908896\H,0,-97.9955438563,-8.536836
 9665,7.7942731694\H,0,-96.5978501893,-7.9964775133,8.7372353481\H,0,-9
 7.7317129871,-9.1548326143,9.4340024164\N,0,-94.9055379912,-11.4039400
 755,4.6335036448\C,0,-93.8185329694,-12.3660780672,4.44606458\C,0,-93.
 8456429514,-12.98772955,3.0200460103\O,0,-92.7906250941,-13.1254346565
 ,2.3931964192\C,0,-93.6832299072,-13.4499685376,5.5364656915\C,0,-92.5
 372754538,-14.4695564123,5.3667567647\C,0,-91.102653943,-13.9175458104
 ,5.4447766842\N,0,-90.7569970194,-13.2246521144,4.2008153816\C,0,-89.7
 232586464,-12.4290901347,3.9890307457\N,0,-88.69893641,-12.3418072116,
 4.856376503\N,0,-89.7095489143,-11.6609007079,2.8772090775\O,0,-94.980
 4349405,-13.3404975556,2.4884958973\H,0,-95.7627130187,-13.3122267743,
 3.1230858996\H,0,-94.9568146729,-10.7395286794,3.8653461593\H,0,-92.89
 54515796,-11.7763506257,4.4562465628\H,0,-93.5453141255,-12.9343533559
 ,6.4932981792\H,0,-94.6175539169,-14.0133589193,5.6101288076\H,0,-92.6
 503229961,-15.0366456256,4.4346720037\H,0,-92.6381065459,-15.199881182
 1,6.1764303856\H,0,-91.0056423891,-13.2236158231,6.2913193329\H,0,-90.
 4067878397,-14.7507402858,5.6056814545\H,0,-91.4563402326,-13.27247992
 97,3.4321651924\H,0,-88.0420497882,-11.5763266884,4.8079791693\H,0,-88
 .6493579664,-12.944256599,5.6643092036\H,0,-90.4881581821,-11.73910480
 19,2.232193123\H,0,-88.8300421734,-11.3519196501,2.4866389944\\Version
 =ES64L-G16RevC.01\HF=-1582.2175079\RMSD=5.035e-09\Dipole=7.3349695,1.4
 153319,2.4833768\Quadrupole=19822.6319048,-9648.3958636,-10174.2360412
 ,4400.9685884,-1972.4326783,-284.4280889\PG=C01 [X(C23H36N7O4)]\\@
 The archive entry for this job was punched.



 WE LOSE BECAUSE WE WIN

 GAMBLERS,

 RECOLLECTING WHICH,

 TOSS THEIR DICE AGAIN....


                          EMILY DICKINSON  BOLTS OF MELODY NO. 533
 Job cpu time:       0 days  0 hours  2 minutes  9.4 seconds.
 Elapsed time:       0 days  0 hours  0 minutes 32.8 seconds.
 File lengths (MBytes):  RWF=    296 Int=      0 D2E=      0 Chk=     40 Scr=     16
 Normal termination of Gaussian 16 at Tue May 24 23:10:38 2022.
