 Entering Gaussian System, Link 0=/opt/software/Gaussian/g16-AVX-C.01/g16/g16
 Input=charge-conf-841.com
 Output=charge-conf-841.log
 Initial command:
 /opt/software/Gaussian/g16-AVX-C.01/g16/l1.exe "/mnt/gs18/scratch/users/kengmith/Gau-15101.inp" -scrdir="/mnt/gs18/scratch/users/kengmith/"
 Entering Link 1 = /opt/software/Gaussian/g16-AVX-C.01/g16/l1.exe PID=     15121.
  
 Copyright (c) 1988-2019, Gaussian, Inc.  All Rights Reserved.
  
 This is part of the Gaussian(R) 16 program.  It is based on
 the Gaussian(R) 09 system (copyright 2009, Gaussian, Inc.),
 the Gaussian(R) 03 system (copyright 2003, Gaussian, Inc.),
 the Gaussian(R) 98 system (copyright 1998, Gaussian, Inc.),
 the Gaussian(R) 94 system (copyright 1995, Gaussian, Inc.),
 the Gaussian 92(TM) system (copyright 1992, Gaussian, Inc.),
 the Gaussian 90(TM) system (copyright 1990, Gaussian, Inc.),
 the Gaussian 88(TM) system (copyright 1988, Gaussian, Inc.),
 the Gaussian 86(TM) system (copyright 1986, Carnegie Mellon
 University), and the Gaussian 82(TM) system (copyright 1983,
 Carnegie Mellon University). Gaussian is a federally registered
 trademark of Gaussian, Inc.
  
 This software contains proprietary and confidential information,
 including trade secrets, belonging to Gaussian, Inc.
  
 This software is provided under written license and may be
 used, copied, transmitted, or stored only in accord with that
 written license.
  
 The following legend is applicable only to US Government
 contracts under FAR:
  
                    RESTRICTED RIGHTS LEGEND
  
 Use, reproduction and disclosure by the US Government is
 subject to restrictions as set forth in subparagraphs (a)
 and (c) of the Commercial Computer Software - Restricted
 Rights clause in FAR 52.227-19.
  
 Gaussian, Inc.
 340 Quinnipiac St., Bldg. 40, Wallingford CT 06492
  
  
 ---------------------------------------------------------------
 Warning -- This program may not be used in any manner that
 competes with the business of Gaussian, Inc. or will provide
 assistance to any competitor of Gaussian, Inc.  The licensee
 of this program is prohibited from giving any competitor of
 Gaussian, Inc. access to this program.  By using this program,
 the user acknowledges that Gaussian, Inc. is engaged in the
 business of creating and licensing software in the field of
 computational chemistry and represents and warrants to the
 licensee that it is not a competitor of Gaussian, Inc. and that
 it will not use this program in any manner prohibited above.
 ---------------------------------------------------------------
  

 Cite this work as:
 Gaussian 16, Revision C.01,
 M. J. Frisch, G. W. Trucks, H. B. Schlegel, G. E. Scuseria, 
 M. A. Robb, J. R. Cheeseman, G. Scalmani, V. Barone, 
 G. A. Petersson, H. Nakatsuji, X. Li, M. Caricato, A. V. Marenich, 
 J. Bloino, B. G. Janesko, R. Gomperts, B. Mennucci, H. P. Hratchian, 
 J. V. Ortiz, A. F. Izmaylov, J. L. Sonnenberg, D. Williams-Young, 
 F. Ding, F. Lipparini, F. Egidi, J. Goings, B. Peng, A. Petrone, 
 T. Henderson, D. Ranasinghe, V. G. Zakrzewski, J. Gao, N. Rega, 
 G. Zheng, W. Liang, M. Hada, M. Ehara, K. Toyota, R. Fukuda, 
 J. Hasegawa, M. Ishida, T. Nakajima, Y. Honda, O. Kitao, H. Nakai, 
 T. Vreven, K. Throssell, J. A. Montgomery, Jr., J. E. Peralta, 
 F. Ogliaro, M. J. Bearpark, J. J. Heyd, E. N. Brothers, K. N. Kudin, 
 V. N. Staroverov, T. A. Keith, R. Kobayashi, J. Normand, 
 K. Raghavachari, A. P. Rendell, J. C. Burant, S. S. Iyengar, 
 J. Tomasi, M. Cossi, J. M. Millam, M. Klene, C. Adamo, R. Cammi, 
 J. W. Ochterski, R. L. Martin, K. Morokuma, O. Farkas, 
 J. B. Foresman, and D. J. Fox, Gaussian, Inc., Wallingford CT, 2019.
 
 ******************************************
 Gaussian 16:  ES64L-G16RevC.01  3-Jul-2019
                24-May-2022 
 ******************************************
 %mem=8gb
 %nproc=4
 Will use up to    4 processors via shared memory.
 %chk=conf-841.chk
 ----------------------------------------------------------------------
 # B3LYP/6-31G* empiricaldispersion=gd3 guess=read geom=check nosymm in
 tegral(ultrafinegrid)
 ----------------------------------------------------------------------
 1/29=2,38=1,172=1/1;
 2/12=2,15=1,40=1/2;
 3/5=1,6=6,7=1,11=2,14=-4,25=1,30=1,74=-5,75=-5,116=-2,124=31/1,2,3;
 4/5=1/1;
 5/5=2,38=6/2;
 6/7=2,8=2,9=2,10=2,28=1/1;
 99/5=1,9=1/99;
 ------------------------------------------------------
 Candidate Structure: Conf:841 Charge calc in gas phase
 ------------------------------------------------------
 Structure from the checkpoint file:  "conf-841.chk"
 Charge =  1 Multiplicity = 1
 Redundant internal coordinates found in file.  (old form).
 N,0,-95.5800400332,-15.6463310061,3.1488874908
 C,0,-94.2417301546,-15.1033329262,2.7081291626
 C,0,-93.6090962797,-14.1128892122,3.7108908967
 O,0,-92.3950961478,-13.9855059135,3.6807210207
 C,0,-94.347254701,-14.4975726411,1.2828608073
 C,0,-95.5456982858,-13.6138312188,1.0914203924
 C,0,-95.6164758238,-12.2466002952,1.2348782062
 C,0,-96.877948308,-14.0570886378,0.746649812
 C,0,-97.7086850243,-12.9037573061,0.7172681244
 C,0,-97.4457407696,-15.3092714735,0.4420741455
 N,0,-96.9076781815,-11.8205718129,1.0197856866
 C,0,-99.0738612042,-12.9725055941,0.4211277133
 C,0,-98.8006712769,-15.3826629722,0.1458860267
 C,0,-99.6075208371,-14.2250939944,0.1425013463
 H,0,-93.5564532234,-15.9528727255,2.6978669987
 H,0,-93.4125564836,-13.9595188008,1.1006355507
 H,0,-94.3779431639,-15.3231248855,0.5604753234
 H,0,-94.8337240969,-11.5393531322,1.4664490343
 H,0,-97.2052092638,-10.8565772719,1.0151977121
 H,0,-96.8267000185,-16.2044885072,0.3907795735
 H,0,-99.692431289,-12.0798092702,0.402142082
 H,0,-99.246462282,-16.3411283412,-0.1030174646
 H,0,-100.6629288977,-14.312951257,-0.0965563387
 H,0,-96.3154377286,-14.9349572633,3.0732420977
 H,0,-95.8793781067,-16.4032122565,2.5287943475
 N,0,-94.4333977422,-13.4214297545,4.5341479901
 C,0,-93.9830993968,-12.5870418328,5.65736447
 C,0,-93.1809248766,-13.4331777505,6.6895140929
 O,0,-92.0030698276,-13.2082931979,6.9104768067
 C,0,-93.1759599802,-11.3294941172,5.2625369411
 C,0,-93.2071645112,-10.328282251,6.437039144
 C,0,-93.6972482737,-10.7090878728,3.96156668
 C,0,-92.1528402075,-9.2221655916,6.3303655303
 H,0,-95.4327060999,-13.5633522503,4.4909364044
 H,0,-94.918926106,-12.2616749648,6.1249454573
 H,0,-92.1426820163,-11.6491960314,5.1067701368
 H,0,-94.2128702594,-9.884229865,6.5015119743
 H,0,-93.0400094897,-10.8709578742,7.3747426945
 H,0,-93.4875068034,-11.3672406438,3.1152090547
 H,0,-94.77952784,-10.5223420675,3.9968644593
 H,0,-93.1993108185,-9.7553391487,3.7645298007
 H,0,-92.292275674,-8.6037654763,5.4369064477
 H,0,-91.1468786956,-9.6545273716,6.2873173404
 H,0,-92.1960370204,-8.5570365741,7.1994306405
 N,0,-93.7960838934,-14.4844901105,7.3435194143
 C,0,-95.2136704929,-14.8030170238,7.5392988564
 C,0,-95.8912216881,-15.184643039,6.2029480495
 O,0,-96.8013911326,-14.4824428581,5.7161043521
 C,0,-95.938706823,-13.7348841506,8.389133589
 C,0,-97.4603196803,-13.8695867278,8.5985909846
 C,0,-97.9777788026,-15.2295550175,9.0872881295
 N,0,-97.8911172178,-16.238315294,8.0122505033
 C,0,-97.519415014,-17.513105617,8.1599119281
 N,0,-97.7281007343,-18.1388693616,9.3336466174
 N,0,-96.9429142399,-18.1576310362,7.1390148492
 O,0,-95.4564998113,-16.27512327,5.6681616184
 H,0,-95.5732664437,-16.0137523906,4.189823732
 H,0,-93.1406461499,-14.9586938244,7.952851292
 H,0,-95.1951749029,-15.742527883,8.1029000971
 H,0,-95.4354151504,-13.7209003808,9.3641950134
 H,0,-95.762259408,-12.7501789957,7.9469891273
 H,0,-97.9803611729,-13.6087394077,7.6723830159
 H,0,-97.7637017004,-13.1292741152,9.3479027733
 H,0,-97.3928445932,-15.5888536266,9.9419338077
 H,0,-99.0221261839,-15.132460258,9.4059091036
 H,0,-97.9189151529,-15.8730038952,7.0636544674
 H,0,-97.2465210695,-18.9964588836,9.5627656385
 H,0,-98.3696220314,-17.7634208734,10.0174092091
 H,0,-96.3981954415,-17.6133431317,6.4471359948
 H,0,-96.8408423485,-19.1627492169,7.1633078022
 Recover connectivity data from disk.
                           ----------------------------
                           !    Current Parameters    !
                           ! (Angstroms and Degrees)  !
 --------------------------                            --------------------------
 ! Name  Definition              Value                                          !
 --------------------------------------------------------------------------------
 ! R1    R(1,2)                  1.51                                           !
 ! R2    R(1,24)                 1.026                                          !
 ! R3    R(1,25)                 1.0232                                         !
 ! R4    R(2,3)                  1.5449                                         !
 ! R5    R(2,5)                  1.5522                                         !
 ! R6    R(2,15)                 1.0915                                         !
 ! R7    R(3,4)                  1.221                                          !
 ! R8    R(3,26)                 1.3547                                         !
 ! R9    R(5,6)                  1.5013                                         !
 ! R10   R(5,16)                 1.0938                                         !
 ! R11   R(5,17)                 1.0974                                         !
 ! R12   R(6,7)                  1.3766                                         !
 ! R13   R(6,8)                  1.4458                                         !
 ! R14   R(7,11)                 1.3766                                         !
 ! R15   R(7,18)                 1.0801                                         !
 ! R16   R(8,9)                  1.4217                                         !
 ! R17   R(8,10)                 1.4082                                         !
 ! R18   R(9,11)                 1.3807                                         !
 ! R19   R(9,12)                 1.3986                                         !
 ! R20   R(10,13)                1.3889                                         !
 ! R21   R(10,20)                1.0896                                         !
 ! R22   R(11,19)                1.0089                                         !
 ! R23   R(12,14)                1.3897                                         !
 ! R24   R(12,21)                1.0862                                         !
 ! R25   R(13,14)                1.411                                          !
 ! R26   R(13,22)                1.086                                          !
 ! R27   R(14,23)                1.0857                                         !
 ! R28   R(26,27)                1.4699                                         !
 ! R29   R(26,34)                1.0103                                         !
 ! R30   R(27,28)                1.5572                                         !
 ! R31   R(27,30)                1.5456                                         !
 ! R32   R(27,35)                1.0956                                         !
 ! R33   R(28,29)                1.2193                                         !
 ! R34   R(28,45)                1.3825                                         !
 ! R35   R(30,31)                1.5436                                         !
 ! R36   R(30,32)                1.5327                                         !
 ! R37   R(30,36)                1.0928                                         !
 ! R38   R(31,33)                1.5318                                         !
 ! R39   R(31,37)                1.1013                                         !
 ! R40   R(31,38)                1.0962                                         !
 ! R41   R(32,39)                1.0925                                         !
 ! R42   R(32,40)                1.0988                                         !
 ! R43   R(32,41)                1.0938                                         !
 ! R44   R(33,42)                1.0955                                         !
 ! R45   R(33,43)                1.0958                                         !
 ! R46   R(33,44)                1.0952                                         !
 ! R47   R(45,46)                1.4661                                         !
 ! R48   R(45,58)                1.0128                                         !
 ! R49   R(46,47)                1.5461                                         !
 ! R50   R(46,49)                1.5456                                         !
 ! R51   R(46,59)                1.0958                                         !
 ! R52   R(47,48)                1.2484                                         !
 ! R53   R(47,56)                1.29                                           !
 ! R54   R(49,50)                1.5419                                         !
 ! R55   R(49,60)                1.0974                                         !
 ! R56   R(49,61)                1.0937                                         !
 ! R57   R(50,51)                1.535                                          !
 ! R58   R(50,62)                1.0938                                         !
 ! R59   R(50,63)                1.0962                                         !
 ! R60   R(51,52)                1.4768                                         !
 ! R61   R(51,64)                1.0962                                         !
 ! R62   R(51,65)                1.0962                                         !
 ! R63   R(52,53)                1.3361                                         !
 ! R64   R(52,66)                1.0169                                         !
 ! R65   R(53,54)                1.3464                                         !
 ! R66   R(53,55)                1.3379                                         !
 ! R67   R(54,67)                1.0099                                         !
 ! R68   R(54,68)                1.01                                           !
 ! R69   R(55,69)                1.0352                                         !
 ! R70   R(55,70)                1.0106                                         !
 ! R71   R(56,57)                1.5058                                         !
 ! A1    A(2,1,24)             111.3721                                         !
 ! A2    A(2,1,25)             110.3882                                         !
 ! A3    A(24,1,25)            104.982                                          !
 ! A4    A(1,2,3)              113.829                                          !
 ! A5    A(1,2,5)              110.3705                                         !
 ! A6    A(1,2,15)             106.2179                                         !
 ! A7    A(3,2,5)              111.9396                                         !
 ! A8    A(3,2,15)             104.3585                                         !
 ! A9    A(5,2,15)             109.7416                                         !
 ! A10   A(2,3,4)              117.2569                                         !
 ! A11   A(2,3,26)             118.196                                          !
 ! A12   A(4,3,26)             124.5215                                         !
 ! A13   A(2,5,6)              113.6452                                         !
 ! A14   A(2,5,16)             106.6693                                         !
 ! A15   A(2,5,17)             108.2246                                         !
 ! A16   A(6,5,16)             111.7989                                         !
 ! A17   A(6,5,17)             109.6675                                         !
 ! A18   A(16,5,17)            106.5162                                         !
 ! A19   A(5,6,7)              127.7644                                         !
 ! A20   A(5,6,8)              125.8402                                         !
 ! A21   A(7,6,8)              106.3788                                         !
 ! A22   A(6,7,11)             109.8361                                         !
 ! A23   A(6,7,18)             129.4547                                         !
 ! A24   A(11,7,18)            120.7056                                         !
 ! A25   A(6,8,9)              107.1374                                         !
 ! A26   A(6,8,10)             134.0856                                         !
 ! A27   A(9,8,10)             118.7691                                         !
 ! A28   A(8,9,11)             107.0319                                         !
 ! A29   A(8,9,12)             122.3347                                         !
 ! A30   A(11,9,12)            130.6332                                         !
 ! A31   A(8,10,13)            119.1078                                         !
 ! A32   A(8,10,20)            120.7748                                         !
 ! A33   A(13,10,20)           120.0525                                         !
 ! A34   A(7,11,9)             109.6088                                         !
 ! A35   A(7,11,19)            124.9631                                         !
 ! A36   A(9,11,19)            125.276                                          !
 ! A37   A(9,12,14)            117.4884                                         !
 ! A38   A(9,12,21)            121.2755                                         !
 ! A39   A(14,12,21)           121.2345                                         !
 ! A40   A(10,13,14)           120.998                                          !
 ! A41   A(10,13,22)           119.7348                                         !
 ! A42   A(14,13,22)           119.2599                                         !
 ! A43   A(12,14,13)           121.2888                                         !
 ! A44   A(12,14,23)           119.3644                                         !
 ! A45   A(13,14,23)           119.3409                                         !
 ! A46   A(3,26,27)            124.5893                                         !
 ! A47   A(3,26,34)            120.2759                                         !
 ! A48   A(27,26,34)           114.548                                          !
 ! A49   A(26,27,28)           110.8468                                         !
 ! A50   A(26,27,30)           115.2547                                         !
 ! A51   A(26,27,35)           103.476                                          !
 ! A52   A(28,27,30)           110.0245                                         !
 ! A53   A(28,27,35)           108.5734                                         !
 ! A54   A(30,27,35)           108.2685                                         !
 ! A55   A(27,28,29)           121.1669                                         !
 ! A56   A(27,28,45)           119.8373                                         !
 ! A57   A(29,28,45)           118.9694                                         !
 ! A58   A(27,30,31)           108.8328                                         !
 ! A59   A(27,30,32)           111.6273                                         !
 ! A60   A(27,30,36)           106.9879                                         !
 ! A61   A(31,30,32)           112.1115                                         !
 ! A62   A(31,30,36)           108.5013                                         !
 ! A63   A(32,30,36)           108.6041                                         !
 ! A64   A(30,31,33)           113.6689                                         !
 ! A65   A(30,31,37)           108.9373                                         !
 ! A66   A(30,31,38)           109.0666                                         !
 ! A67   A(33,31,37)           109.9666                                         !
 ! A68   A(33,31,38)           108.1847                                         !
 ! A69   A(37,31,38)           106.785                                          !
 ! A70   A(30,32,39)           110.3917                                         !
 ! A71   A(30,32,40)           112.1177                                         !
 ! A72   A(30,32,41)           110.55                                           !
 ! A73   A(39,32,40)           108.4434                                         !
 ! A74   A(39,32,41)           107.3586                                         !
 ! A75   A(40,32,41)           107.8168                                         !
 ! A76   A(31,33,42)           112.1359                                         !
 ! A77   A(31,33,43)           110.4679                                         !
 ! A78   A(31,33,44)           110.862                                          !
 ! A79   A(42,33,43)           107.9108                                         !
 ! A80   A(42,33,44)           107.4168                                         !
 ! A81   A(43,33,44)           107.8785                                         !
 ! A82   A(28,45,46)           131.195                                          !
 ! A83   A(28,45,58)           110.6519                                         !
 ! A84   A(46,45,58)           116.3395                                         !
 ! A85   A(45,46,47)           111.2192                                         !
 ! A86   A(45,46,49)           112.1399                                         !
 ! A87   A(45,46,59)           103.8071                                         !
 ! A88   A(47,46,49)           116.1198                                         !
 ! A89   A(47,46,59)           103.9059                                         !
 ! A90   A(49,46,59)           108.521                                          !
 ! A91   A(46,47,48)           121.1793                                         !
 ! A92   A(46,47,56)           114.7892                                         !
 ! A93   A(48,47,56)           124.0212                                         !
 ! A94   A(46,49,50)           118.5069                                         !
 ! A95   A(46,49,60)           106.3929                                         !
 ! A96   A(46,49,61)           108.9196                                         !
 ! A97   A(50,49,60)           109.452                                          !
 ! A98   A(50,49,61)           107.0243                                         !
 ! A99   A(60,49,61)           105.8863                                         !
 ! A100  A(49,50,51)           116.9585                                         !
 ! A101  A(49,50,62)           109.4718                                         !
 ! A102  A(49,50,63)           107.8781                                         !
 ! A103  A(51,50,62)           108.7                                            !
 ! A104  A(51,50,63)           106.7044                                         !
 ! A105  A(62,50,63)           106.6305                                         !
 ! A106  A(50,51,52)           110.7115                                         !
 ! A107  A(50,51,64)           111.0225                                         !
 ! A108  A(50,51,65)           109.5871                                         !
 ! A109  A(52,51,64)           108.2008                                         !
 ! A110  A(52,51,65)           109.148                                          !
 ! A111  A(64,51,65)           108.1067                                         !
 ! A112  A(51,52,53)           125.9895                                         !
 ! A113  A(51,52,66)           115.5998                                         !
 ! A114  A(53,52,66)           116.9667                                         !
 ! A115  A(52,53,54)           119.7807                                         !
 ! A116  A(52,53,55)           119.6826                                         !
 ! A117  A(54,53,55)           120.5367                                         !
 ! A118  A(53,54,67)           121.2349                                         !
 ! A119  A(53,54,68)           121.0556                                         !
 ! A120  A(67,54,68)           117.709                                          !
 ! A121  A(53,55,69)           118.9097                                         !
 ! A122  A(53,55,70)           120.286                                          !
 ! A123  A(69,55,70)           119.0683                                         !
 ! A124  A(47,56,57)           103.5409                                         !
 ! D1    D(24,1,2,3)            72.9073                                         !
 ! D2    D(24,1,2,5)           -53.9402                                         !
 ! D3    D(24,1,2,15)         -172.8379                                         !
 ! D4    D(25,1,2,3)          -170.8864                                         !
 ! D5    D(25,1,2,5)            62.266                                          !
 ! D6    D(25,1,2,15)          -56.6316                                         !
 ! D7    D(1,2,3,4)            155.6544                                         !
 ! D8    D(1,2,3,26)           -26.1009                                         !
 ! D9    D(5,2,3,4)            -78.3206                                         !
 ! D10   D(5,2,3,26)            99.9241                                         !
 ! D11   D(15,2,3,4)            40.2998                                         !
 ! D12   D(15,2,3,26)         -141.4556                                         !
 ! D13   D(1,2,5,6)             45.8459                                         !
 ! D14   D(1,2,5,16)           169.5061                                         !
 ! D15   D(1,2,5,17)           -76.225                                          !
 ! D16   D(3,2,5,6)            -82.046                                          !
 ! D17   D(3,2,5,16)            41.6142                                         !
 ! D18   D(3,2,5,17)           155.8831                                         !
 ! D19   D(15,2,5,6)           162.5754                                         !
 ! D20   D(15,2,5,16)          -73.7644                                         !
 ! D21   D(15,2,5,17)           40.5045                                         !
 ! D22   D(2,3,26,27)          171.263                                          !
 ! D23   D(2,3,26,34)            0.5379                                         !
 ! D24   D(4,3,26,27)          -10.6309                                         !
 ! D25   D(4,3,26,34)          178.6439                                         !
 ! D26   D(2,5,6,7)             93.9422                                         !
 ! D27   D(2,5,6,8)            -84.368                                          !
 ! D28   D(16,5,6,7)           -26.8791                                         !
 ! D29   D(16,5,6,8)           154.8107                                         !
 ! D30   D(17,5,6,7)          -144.7899                                         !
 ! D31   D(17,5,6,8)            36.9                                            !
 ! D32   D(5,6,7,11)          -177.7337                                         !
 ! D33   D(5,6,7,18)             2.9593                                         !
 ! D34   D(8,6,7,11)             0.8386                                         !
 ! D35   D(8,6,7,18)          -178.4685                                         !
 ! D36   D(5,6,8,9)            177.8179                                         !
 ! D37   D(5,6,8,10)            -3.2592                                         !
 ! D38   D(7,6,8,9)             -0.7898                                         !
 ! D39   D(7,6,8,10)           178.1331                                         !
 ! D40   D(6,7,11,9)            -0.5755                                         !
 ! D41   D(6,7,11,19)         -176.2839                                         !
 ! D42   D(18,7,11,9)          178.8022                                         !
 ! D43   D(18,7,11,19)           3.0937                                         !
 ! D44   D(6,8,9,11)             0.4542                                         !
 ! D45   D(6,8,9,12)          -179.6656                                         !
 ! D46   D(10,8,9,11)         -178.6632                                         !
 ! D47   D(10,8,9,12)            1.2169                                         !
 ! D48   D(6,8,10,13)         -179.9313                                         !
 ! D49   D(6,8,10,20)           -2.8607                                         !
 ! D50   D(9,8,10,13)           -1.1055                                         !
 ! D51   D(9,8,10,20)          175.9651                                         !
 ! D52   D(8,9,11,7)             0.0542                                         !
 ! D53   D(8,9,11,19)          175.7461                                         !
 ! D54   D(12,9,11,7)         -179.8124                                         !
 ! D55   D(12,9,11,19)          -4.1204                                         !
 ! D56   D(8,9,12,14)           -0.3693                                         !
 ! D57   D(8,9,12,21)         -179.9168                                         !
 ! D58   D(11,9,12,14)         179.4797                                         !
 ! D59   D(11,9,12,21)          -0.0678                                         !
 ! D60   D(8,10,13,14)           0.2058                                         !
 ! D61   D(8,10,13,22)         179.2106                                         !
 ! D62   D(20,10,13,14)       -176.8864                                         !
 ! D63   D(20,10,13,22)          2.1184                                         !
 ! D64   D(9,12,14,13)          -0.5734                                         !
 ! D65   D(9,12,14,23)        -179.6767                                         !
 ! D66   D(21,12,14,13)        178.9743                                         !
 ! D67   D(21,12,14,23)         -0.129                                          !
 ! D68   D(10,13,14,12)          0.6662                                         !
 ! D69   D(10,13,14,23)        179.7697                                         !
 ! D70   D(22,13,14,12)       -178.3432                                         !
 ! D71   D(22,13,14,23)          0.7603                                         !
 ! D72   D(3,26,27,28)         -59.5398                                         !
 ! D73   D(3,26,27,30)          66.2467                                         !
 ! D74   D(3,26,27,35)        -175.7544                                         !
 ! D75   D(34,26,27,28)        111.6583                                         !
 ! D76   D(34,26,27,30)       -122.5552                                         !
 ! D77   D(34,26,27,35)         -4.5563                                         !
 ! D78   D(26,27,28,29)        116.3501                                         !
 ! D79   D(26,27,28,45)        -61.7622                                         !
 ! D80   D(30,27,28,29)        -12.3093                                         !
 ! D81   D(30,27,28,45)        169.5784                                         !
 ! D82   D(35,27,28,29)       -130.632                                          !
 ! D83   D(35,27,28,45)         51.2557                                         !
 ! D84   D(26,27,30,31)        160.255                                          !
 ! D85   D(26,27,30,32)         35.9884                                         !
 ! D86   D(26,27,30,36)        -82.695                                          !
 ! D87   D(28,27,30,31)        -73.5368                                         !
 ! D88   D(28,27,30,32)        162.1966                                         !
 ! D89   D(28,27,30,36)         43.5132                                         !
 ! D90   D(35,27,30,31)         44.9736                                         !
 ! D91   D(35,27,30,32)        -79.293                                          !
 ! D92   D(35,27,30,36)        162.0236                                         !
 ! D93   D(27,28,45,46)        -18.4341                                         !
 ! D94   D(27,28,45,58)        177.819                                          !
 ! D95   D(29,28,45,46)        163.4121                                         !
 ! D96   D(29,28,45,58)         -0.3348                                         !
 ! D97   D(27,30,31,33)        164.4616                                         !
 ! D98   D(27,30,31,37)        -72.5437                                         !
 ! D99   D(27,30,31,38)         43.6632                                         !
 ! D100  D(32,30,31,33)        -71.5586                                         !
 ! D101  D(32,30,31,37)         51.4361                                         !
 ! D102  D(32,30,31,38)        167.643                                          !
 ! D103  D(36,30,31,33)         48.3802                                         !
 ! D104  D(36,30,31,37)        171.3748                                         !
 ! D105  D(36,30,31,38)        -72.4182                                         !
 ! D106  D(27,30,32,39)        -68.4236                                         !
 ! D107  D(27,30,32,40)         52.6011                                         !
 ! D108  D(27,30,32,41)        172.9379                                         !
 ! D109  D(31,30,32,39)        169.1711                                         !
 ! D110  D(31,30,32,40)        -69.8042                                         !
 ! D111  D(31,30,32,41)         50.5325                                         !
 ! D112  D(36,30,32,39)         49.2923                                         !
 ! D113  D(36,30,32,40)        170.317                                          !
 ! D114  D(36,30,32,41)        -69.3463                                         !
 ! D115  D(30,31,33,42)         61.6311                                         !
 ! D116  D(30,31,33,43)        -58.7807                                         !
 ! D117  D(30,31,33,44)       -178.3135                                         !
 ! D118  D(37,31,33,42)        -60.7976                                         !
 ! D119  D(37,31,33,43)        178.7907                                         !
 ! D120  D(37,31,33,44)         59.2579                                         !
 ! D121  D(38,31,33,42)       -177.0767                                         !
 ! D122  D(38,31,33,43)         62.5116                                         !
 ! D123  D(38,31,33,44)        -57.0213                                         !
 ! D124  D(28,45,46,47)         67.8419                                         !
 ! D125  D(28,45,46,49)        -64.0582                                         !
 ! D126  D(28,45,46,59)        178.997                                          !
 ! D127  D(58,45,46,47)       -129.1499                                         !
 ! D128  D(58,45,46,49)         98.95                                           !
 ! D129  D(58,45,46,59)        -17.9948                                         !
 ! D130  D(45,46,47,48)       -115.4953                                         !
 ! D131  D(45,46,47,56)         65.6232                                         !
 ! D132  D(49,46,47,48)         14.3439                                         !
 ! D133  D(49,46,47,56)       -164.5376                                         !
 ! D134  D(59,46,47,48)        133.4127                                         !
 ! D135  D(59,46,47,56)        -45.4688                                         !
 ! D136  D(45,46,49,50)        175.5346                                         !
 ! D137  D(45,46,49,60)        -60.7689                                         !
 ! D138  D(45,46,49,61)         52.9629                                         !
 ! D139  D(47,46,49,50)         46.1376                                         !
 ! D140  D(47,46,49,60)        169.8341                                         !
 ! D141  D(47,46,49,61)        -76.4341                                         !
 ! D142  D(59,46,49,50)        -70.3845                                         !
 ! D143  D(59,46,49,60)         53.312                                          !
 ! D144  D(59,46,49,61)        167.0438                                         !
 ! D145  D(46,47,56,57)       -147.1544                                         !
 ! D146  D(48,47,56,57)         34.0002                                         !
 ! D147  D(46,49,50,51)         50.7607                                         !
 ! D148  D(46,49,50,62)        -73.3884                                         !
 ! D149  D(46,49,50,63)        170.9528                                         !
 ! D150  D(60,49,50,51)        -71.4081                                         !
 ! D151  D(60,49,50,62)        164.4428                                         !
 ! D152  D(60,49,50,63)         48.784                                          !
 ! D153  D(61,49,50,51)        174.2775                                         !
 ! D154  D(61,49,50,62)         50.1284                                         !
 ! D155  D(61,49,50,63)        -65.5304                                         !
 ! D156  D(49,50,51,52)        -72.0128                                         !
 ! D157  D(49,50,51,64)         48.1892                                         !
 ! D158  D(49,50,51,65)        167.5396                                         !
 ! D159  D(62,50,51,52)         52.5271                                         !
 ! D160  D(62,50,51,64)        172.7291                                         !
 ! D161  D(62,50,51,65)        -67.9205                                         !
 ! D162  D(63,50,51,52)        167.1748                                         !
 ! D163  D(63,50,51,64)        -72.6232                                         !
 ! D164  D(63,50,51,65)         46.7272                                         !
 ! D165  D(50,51,52,53)        139.9024                                         !
 ! D166  D(50,51,52,66)        -25.8909                                         !
 ! D167  D(64,51,52,53)         18.0294                                         !
 ! D168  D(64,51,52,66)       -147.7639                                         !
 ! D169  D(65,51,52,53)        -99.3887                                         !
 ! D170  D(65,51,52,66)         94.8179                                         !
 ! D171  D(51,52,53,54)         28.3394                                         !
 ! D172  D(51,52,53,55)       -151.6851                                         !
 ! D173  D(66,52,53,54)       -166.0393                                         !
 ! D174  D(66,52,53,55)         13.9363                                         !
 ! D175  D(52,53,54,67)       -163.1967                                         !
 ! D176  D(52,53,54,68)         16.5281                                         !
 ! D177  D(55,53,54,67)         16.8279                                         !
 ! D178  D(55,53,54,68)       -163.4473                                         !
 ! D179  D(52,53,55,69)         28.4722                                         !
 ! D180  D(52,53,55,70)       -166.6729                                         !
 ! D181  D(54,53,55,69)       -151.5524                                         !
 ! D182  D(54,53,55,70)         13.3024                                         !
 --------------------------------------------------------------------------------
 Symmetry turned off by external request.
 Stoichiometry    C23H36N7O4(1+)
 Framework group  C1[X(C23H36N7O4)]
 Deg. of freedom   204
 Full point group                 C1      NOp   1
                          Input orientation:                          
 ---------------------------------------------------------------------
 Center     Atomic      Atomic             Coordinates (Angstroms)
 Number     Number       Type             X           Y           Z
 ---------------------------------------------------------------------
      1          7           0      -95.580040  -15.646331    3.148887
      2          6           0      -94.241730  -15.103333    2.708129
      3          6           0      -93.609096  -14.112889    3.710891
      4          8           0      -92.395096  -13.985506    3.680721
      5          6           0      -94.347255  -14.497573    1.282861
      6          6           0      -95.545698  -13.613831    1.091420
      7          6           0      -95.616476  -12.246600    1.234878
      8          6           0      -96.877948  -14.057089    0.746650
      9          6           0      -97.708685  -12.903757    0.717268
     10          6           0      -97.445741  -15.309271    0.442074
     11          7           0      -96.907678  -11.820572    1.019786
     12          6           0      -99.073861  -12.972506    0.421128
     13          6           0      -98.800671  -15.382663    0.145886
     14          6           0      -99.607521  -14.225094    0.142501
     15          1           0      -93.556453  -15.952873    2.697867
     16          1           0      -93.412556  -13.959519    1.100636
     17          1           0      -94.377943  -15.323125    0.560475
     18          1           0      -94.833724  -11.539353    1.466449
     19          1           0      -97.205209  -10.856577    1.015198
     20          1           0      -96.826700  -16.204489    0.390780
     21          1           0      -99.692431  -12.079809    0.402142
     22          1           0      -99.246462  -16.341128   -0.103017
     23          1           0     -100.662929  -14.312951   -0.096556
     24          1           0      -96.315438  -14.934957    3.073242
     25          1           0      -95.879378  -16.403212    2.528794
     26          7           0      -94.433398  -13.421430    4.534148
     27          6           0      -93.983099  -12.587042    5.657364
     28          6           0      -93.180925  -13.433178    6.689514
     29          8           0      -92.003070  -13.208293    6.910477
     30          6           0      -93.175960  -11.329494    5.262537
     31          6           0      -93.207165  -10.328282    6.437039
     32          6           0      -93.697248  -10.709088    3.961567
     33          6           0      -92.152840   -9.222166    6.330366
     34          1           0      -95.432706  -13.563352    4.490936
     35          1           0      -94.918926  -12.261675    6.124945
     36          1           0      -92.142682  -11.649196    5.106770
     37          1           0      -94.212870   -9.884230    6.501512
     38          1           0      -93.040009  -10.870958    7.374743
     39          1           0      -93.487507  -11.367241    3.115209
     40          1           0      -94.779528  -10.522342    3.996864
     41          1           0      -93.199311   -9.755339    3.764530
     42          1           0      -92.292276   -8.603765    5.436906
     43          1           0      -91.146879   -9.654527    6.287317
     44          1           0      -92.196037   -8.557037    7.199431
     45          7           0      -93.796084  -14.484490    7.343519
     46          6           0      -95.213670  -14.803017    7.539299
     47          6           0      -95.891222  -15.184643    6.202948
     48          8           0      -96.801391  -14.482443    5.716104
     49          6           0      -95.938707  -13.734884    8.389134
     50          6           0      -97.460320  -13.869587    8.598591
     51          6           0      -97.977779  -15.229555    9.087288
     52          7           0      -97.891117  -16.238315    8.012251
     53          6           0      -97.519415  -17.513106    8.159912
     54          7           0      -97.728101  -18.138869    9.333647
     55          7           0      -96.942914  -18.157631    7.139015
     56          8           0      -95.456500  -16.275123    5.668162
     57          1           0      -95.573266  -16.013752    4.189824
     58          1           0      -93.140646  -14.958694    7.952851
     59          1           0      -95.195175  -15.742528    8.102900
     60          1           0      -95.435415  -13.720900    9.364195
     61          1           0      -95.762259  -12.750179    7.946989
     62          1           0      -97.980361  -13.608739    7.672383
     63          1           0      -97.763702  -13.129274    9.347903
     64          1           0      -97.392845  -15.588854    9.941934
     65          1           0      -99.022126  -15.132460    9.405909
     66          1           0      -97.918915  -15.873004    7.063654
     67          1           0      -97.246521  -18.996459    9.562766
     68          1           0      -98.369622  -17.763421   10.017409
     69          1           0      -96.398195  -17.613343    6.447136
     70          1           0      -96.840842  -19.162749    7.163308
 ---------------------------------------------------------------------
 Rotational constants (GHZ):           0.1295628           0.0968296           0.0676724
 Standard basis: 6-31G(d) (6D, 7F)
   582 basis functions,  1096 primitive gaussians,   582 cartesian basis functions
   127 alpha electrons      127 beta electrons
       nuclear repulsion energy      3916.7408197545 Hartrees.
 NAtoms=   70 NActive=   70 NUniq=   70 SFac= 1.00D+00 NAtFMM=   60 NAOKFM=T Big=T
 Integral buffers will be    131072 words long.
 Raffenetti 2 integral format.
 Two-electron integral symmetry is turned off.
 Nuclear repulsion after empirical dispersion term =     3916.6431102892 Hartrees.
 One-electron integrals computed using PRISM.
 NBasis=   582 RedAO= T EigKep=  3.76D-04  NBF=   582
 NBsUse=   582 1.00D-06 EigRej= -1.00D+00 NBFU=   582
 Initial guess from the checkpoint file:  "conf-841.chk"
 B after Tr=     0.000000    0.000000    0.000000
         Rot=    1.000000    0.000000    0.000000    0.000000 Ang=   0.00 deg.
 Requested convergence on RMS density matrix=1.00D-08 within 128 cycles.
 Requested convergence on MAX density matrix=1.00D-06.
 Requested convergence on             energy=1.00D-06.
 No special actions if energy rises.
 SCF Done:  E(RB3LYP) =  -1582.23852271     A.U. after    1 cycles
            NFock=  1  Conv=0.45D-08     -V/T= 2.0095

 **********************************************************************

            Population analysis using the SCF Density.

 **********************************************************************

 Alpha  occ. eigenvalues --  -19.23059 -19.22376 -19.20430 -19.19167 -14.53446
 Alpha  occ. eigenvalues --  -14.52623 -14.51441 -14.50681 -14.47114 -14.45356
 Alpha  occ. eigenvalues --  -14.44381 -10.48119 -10.40309 -10.38386 -10.36785
 Alpha  occ. eigenvalues --  -10.35973 -10.35638 -10.33748 -10.31858 -10.31197
 Alpha  occ. eigenvalues --  -10.30865 -10.30181 -10.30159 -10.29269 -10.27890
 Alpha  occ. eigenvalues --  -10.27799 -10.27755 -10.27584 -10.26972 -10.26919
 Alpha  occ. eigenvalues --  -10.25389 -10.24350 -10.24232 -10.22757  -1.16821
 Alpha  occ. eigenvalues --   -1.16085  -1.12951  -1.11338  -1.08846  -1.07053
 Alpha  occ. eigenvalues --   -1.06845  -1.05820  -1.04456  -1.01808  -1.00344
 Alpha  occ. eigenvalues --   -0.92795  -0.90955  -0.90469  -0.88056  -0.85811
 Alpha  occ. eigenvalues --   -0.85239  -0.82425  -0.81355  -0.80480  -0.79925
 Alpha  occ. eigenvalues --   -0.78093  -0.77765  -0.76267  -0.73958  -0.71968
 Alpha  occ. eigenvalues --   -0.71130  -0.70664  -0.69927  -0.69439  -0.68378
 Alpha  occ. eigenvalues --   -0.68176  -0.66986  -0.66262  -0.65795  -0.65203
 Alpha  occ. eigenvalues --   -0.64916  -0.63031  -0.62526  -0.62146  -0.61804
 Alpha  occ. eigenvalues --   -0.60442  -0.60206  -0.58421  -0.58001  -0.57333
 Alpha  occ. eigenvalues --   -0.57090  -0.56079  -0.55459  -0.54744  -0.54378
 Alpha  occ. eigenvalues --   -0.54157  -0.53466  -0.52789  -0.52417  -0.52036
 Alpha  occ. eigenvalues --   -0.51817  -0.51758  -0.51030  -0.50566  -0.50226
 Alpha  occ. eigenvalues --   -0.49875  -0.49101  -0.48464  -0.48098  -0.47476
 Alpha  occ. eigenvalues --   -0.46843  -0.46511  -0.46383  -0.45720  -0.45474
 Alpha  occ. eigenvalues --   -0.44706  -0.44185  -0.44058  -0.43662  -0.43216
 Alpha  occ. eigenvalues --   -0.42440  -0.42182  -0.41793  -0.40647  -0.39901
 Alpha  occ. eigenvalues --   -0.39270  -0.38742  -0.38517  -0.37735  -0.36652
 Alpha  occ. eigenvalues --   -0.36325  -0.35439  -0.34190  -0.33163  -0.31861
 Alpha  occ. eigenvalues --   -0.31214  -0.29478
 Alpha virt. eigenvalues --   -0.13028  -0.10257  -0.09959  -0.07806  -0.07751
 Alpha virt. eigenvalues --   -0.06745  -0.06105  -0.05654  -0.04186  -0.02850
 Alpha virt. eigenvalues --   -0.02372  -0.01782  -0.00968  -0.00532  -0.00366
 Alpha virt. eigenvalues --    0.00262   0.01243   0.01751   0.02470   0.03061
 Alpha virt. eigenvalues --    0.03758   0.03901   0.04269   0.04531   0.04876
 Alpha virt. eigenvalues --    0.05637   0.05839   0.06071   0.06521   0.06689
 Alpha virt. eigenvalues --    0.07303   0.07692   0.07795   0.08634   0.08965
 Alpha virt. eigenvalues --    0.09237   0.09654   0.10065   0.10188   0.10506
 Alpha virt. eigenvalues --    0.10658   0.11542   0.11886   0.12239   0.12368
 Alpha virt. eigenvalues --    0.12857   0.13175   0.13833   0.14481   0.14971
 Alpha virt. eigenvalues --    0.15060   0.15557   0.16155   0.16616   0.17181
 Alpha virt. eigenvalues --    0.17893   0.17956   0.18537   0.19072   0.19265
 Alpha virt. eigenvalues --    0.19835   0.20679   0.22076   0.23072   0.23349
 Alpha virt. eigenvalues --    0.23643   0.24353   0.25597   0.26812   0.27213
 Alpha virt. eigenvalues --    0.27733   0.29497   0.29590   0.31115   0.32496
 Alpha virt. eigenvalues --    0.34387   0.34743   0.36829   0.37593   0.38318
 Alpha virt. eigenvalues --    0.39862   0.39924   0.40735   0.40986   0.41680
 Alpha virt. eigenvalues --    0.42221   0.42649   0.43303   0.43543   0.44867
 Alpha virt. eigenvalues --    0.45414   0.45530   0.45652   0.46090   0.46674
 Alpha virt. eigenvalues --    0.47208   0.47640   0.47722   0.48419   0.48819
 Alpha virt. eigenvalues --    0.49388   0.49928   0.50066   0.50330   0.50902
 Alpha virt. eigenvalues --    0.51251   0.51859   0.51979   0.52495   0.53152
 Alpha virt. eigenvalues --    0.53221   0.53500   0.54060   0.54225   0.55081
 Alpha virt. eigenvalues --    0.55450   0.55647   0.56460   0.56723   0.57026
 Alpha virt. eigenvalues --    0.57525   0.58215   0.58681   0.59123   0.60304
 Alpha virt. eigenvalues --    0.60579   0.61376   0.62031   0.63101   0.63145
 Alpha virt. eigenvalues --    0.63603   0.64287   0.64787   0.66528   0.66749
 Alpha virt. eigenvalues --    0.67300   0.67662   0.68544   0.69204   0.69793
 Alpha virt. eigenvalues --    0.70824   0.71043   0.71932   0.72325   0.72809
 Alpha virt. eigenvalues --    0.73014   0.73321   0.73692   0.73952   0.74460
 Alpha virt. eigenvalues --    0.74815   0.75792   0.76265   0.76732   0.77183
 Alpha virt. eigenvalues --    0.77348   0.77511   0.77844   0.78195   0.78767
 Alpha virt. eigenvalues --    0.78888   0.79205   0.79386   0.79960   0.80168
 Alpha virt. eigenvalues --    0.80783   0.81050   0.81310   0.82469   0.82710
 Alpha virt. eigenvalues --    0.82738   0.83666   0.83732   0.84257   0.84480
 Alpha virt. eigenvalues --    0.85046   0.86047   0.86513   0.86935   0.87603
 Alpha virt. eigenvalues --    0.87998   0.88659   0.88893   0.89178   0.89643
 Alpha virt. eigenvalues --    0.89987   0.90498   0.91164   0.91618   0.92770
 Alpha virt. eigenvalues --    0.93166   0.94196   0.94334   0.94686   0.95668
 Alpha virt. eigenvalues --    0.96046   0.96524   0.97189   0.97815   0.98110
 Alpha virt. eigenvalues --    0.99822   0.99995   1.02234   1.03046   1.03245
 Alpha virt. eigenvalues --    1.03803   1.04329   1.04813   1.05441   1.06602
 Alpha virt. eigenvalues --    1.08513   1.09486   1.10138   1.10251   1.11006
 Alpha virt. eigenvalues --    1.12271   1.13414   1.14712   1.15640   1.16610
 Alpha virt. eigenvalues --    1.17043   1.17854   1.18307   1.19247   1.20049
 Alpha virt. eigenvalues --    1.21267   1.22516   1.23160   1.24076   1.24954
 Alpha virt. eigenvalues --    1.25381   1.26546   1.28158   1.28857   1.30029
 Alpha virt. eigenvalues --    1.31215   1.31550   1.33153   1.33284   1.33990
 Alpha virt. eigenvalues --    1.34962   1.35615   1.36339   1.36918   1.38585
 Alpha virt. eigenvalues --    1.39148   1.39879   1.41141   1.41444   1.41481
 Alpha virt. eigenvalues --    1.42625   1.43883   1.44477   1.45981   1.47042
 Alpha virt. eigenvalues --    1.47580   1.48578   1.49410   1.50864   1.51500
 Alpha virt. eigenvalues --    1.52704   1.53443   1.56145   1.57508   1.58606
 Alpha virt. eigenvalues --    1.59638   1.59939   1.60430   1.60695   1.62953
 Alpha virt. eigenvalues --    1.63304   1.63994   1.65280   1.66241   1.66968
 Alpha virt. eigenvalues --    1.68443   1.68558   1.69540   1.70877   1.71364
 Alpha virt. eigenvalues --    1.71855   1.72398   1.72560   1.73367   1.74324
 Alpha virt. eigenvalues --    1.74694   1.74934   1.76361   1.77608   1.78932
 Alpha virt. eigenvalues --    1.79182   1.79803   1.80106   1.80618   1.80973
 Alpha virt. eigenvalues --    1.81481   1.82452   1.83061   1.83611   1.84303
 Alpha virt. eigenvalues --    1.84947   1.85535   1.86261   1.86434   1.87112
 Alpha virt. eigenvalues --    1.88155   1.88625   1.89099   1.89894   1.90189
 Alpha virt. eigenvalues --    1.90683   1.91683   1.92111   1.92249   1.92812
 Alpha virt. eigenvalues --    1.93867   1.94209   1.94302   1.95345   1.96042
 Alpha virt. eigenvalues --    1.96675   1.98078   1.98380   1.98890   1.99100
 Alpha virt. eigenvalues --    2.00457   2.00903   2.01705   2.02740   2.03215
 Alpha virt. eigenvalues --    2.05620   2.06319   2.06622   2.07017   2.07563
 Alpha virt. eigenvalues --    2.08013   2.08628   2.10855   2.11569   2.12306
 Alpha virt. eigenvalues --    2.13412   2.13766   2.15469   2.16596   2.17096
 Alpha virt. eigenvalues --    2.18022   2.20337   2.21280   2.21491   2.23055
 Alpha virt. eigenvalues --    2.24583   2.24769   2.24941   2.25465   2.25549
 Alpha virt. eigenvalues --    2.27452   2.28352   2.29516   2.30238   2.30582
 Alpha virt. eigenvalues --    2.31176   2.32295   2.32627   2.34268   2.35359
 Alpha virt. eigenvalues --    2.37089   2.38461   2.39017   2.40222   2.40450
 Alpha virt. eigenvalues --    2.41439   2.41752   2.43211   2.43415   2.44950
 Alpha virt. eigenvalues --    2.45653   2.46426   2.47826   2.48764   2.50102
 Alpha virt. eigenvalues --    2.51011   2.51952   2.53273   2.53871   2.54124
 Alpha virt. eigenvalues --    2.55224   2.55621   2.56120   2.57939   2.58822
 Alpha virt. eigenvalues --    2.59269   2.59508   2.60533   2.61738   2.62361
 Alpha virt. eigenvalues --    2.64946   2.65628   2.67642   2.68906   2.70717
 Alpha virt. eigenvalues --    2.71955   2.73921   2.74807   2.77715   2.79088
 Alpha virt. eigenvalues --    2.83920   2.87489   2.88482   2.90446   2.90877
 Alpha virt. eigenvalues --    2.91342   2.93162   2.94231   2.95827   2.96599
 Alpha virt. eigenvalues --    3.03538   3.04835   3.07860   3.09124   3.15348
 Alpha virt. eigenvalues --    3.35149   3.65689   3.74455   3.79126   3.83783
 Alpha virt. eigenvalues --    3.89997   3.95084   3.98524   4.00843   4.02643
 Alpha virt. eigenvalues --    4.04943   4.05723   4.06336   4.10556   4.11816
 Alpha virt. eigenvalues --    4.12863   4.14019   4.17583   4.20958   4.22751
 Alpha virt. eigenvalues --    4.24673   4.28554   4.31063   4.32193   4.34638
 Alpha virt. eigenvalues --    4.37032   4.38857   4.40384   4.47373   4.51971
 Alpha virt. eigenvalues --    4.54375   4.62023   4.64650   4.67339   4.71229
          Condensed to atoms (all electrons):
 Mulliken charges:
               1
     1  N   -0.791053
     2  C   -0.092269
     3  C    0.641531
     4  O   -0.498956
     5  C   -0.374573
     6  C    0.011449
     7  C    0.021861
     8  C    0.058957
     9  C    0.319920
    10  C   -0.244162
    11  N   -0.685827
    12  C   -0.153928
    13  C   -0.132372
    14  C   -0.151561
    15  H    0.210985
    16  H    0.211182
    17  H    0.172893
    18  H    0.183858
    19  H    0.345843
    20  H    0.115752
    21  H    0.147228
    22  H    0.140888
    23  H    0.148595
    24  H    0.397286
    25  H    0.384613
    26  N   -0.649420
    27  C   -0.055234
    28  C    0.615857
    29  O   -0.476584
    30  C   -0.066149
    31  C   -0.268439
    32  C   -0.471973
    33  C   -0.451726
    34  H    0.354140
    35  H    0.155398
    36  H    0.191850
    37  H    0.118263
    38  H    0.147598
    39  H    0.152091
    40  H    0.123375
    41  H    0.164101
    42  H    0.146389
    43  H    0.164961
    44  H    0.150979
    45  N   -0.610429
    46  C   -0.018846
    47  C    0.582204
    48  O   -0.577263
    49  C   -0.264863
    50  C   -0.310342
    51  C   -0.157527
    52  N   -0.600334
    53  C    0.776619
    54  N   -0.751684
    55  N   -0.781042
    56  O   -0.633997
    57  H    0.447485
    58  H    0.339916
    59  H    0.138062
    60  H    0.154314
    61  H    0.171426
    62  H    0.190929
    63  H    0.173776
    64  H    0.172299
    65  H    0.186744
    66  H    0.383947
    67  H    0.380301
    68  H    0.386743
    69  H    0.422525
    70  H    0.365417
 Sum of Mulliken charges =   1.00000
 Mulliken charges with hydrogens summed into heavy atoms:
               1
     1  N    0.438333
     2  C    0.118716
     3  C    0.641531
     4  O   -0.498956
     5  C    0.009502
     6  C    0.011449
     7  C    0.205719
     8  C    0.058957
     9  C    0.319920
    10  C   -0.128410
    11  N   -0.339984
    12  C   -0.006700
    13  C    0.008515
    14  C   -0.002966
    26  N   -0.295279
    27  C    0.100164
    28  C    0.615857
    29  O   -0.476584
    30  C    0.125701
    31  C   -0.002577
    32  C   -0.032406
    33  C    0.010602
    45  N   -0.270513
    46  C    0.119216
    47  C    0.582204
    48  O   -0.577263
    49  C    0.060877
    50  C    0.054363
    51  C    0.201516
    52  N   -0.216387
    53  C    0.776619
    54  N    0.015360
    55  N    0.006901
    56  O   -0.633997
 Electronic spatial extent (au):  <R**2>=        8508104.3966
 Charge=              1.0000 electrons
 Dipole moment (field-independent basis, Debye):
    X=           -470.1473    Y=            -78.1580    Z=             30.3549  Tot=            477.5652
 Quadrupole moment (field-independent basis, Debye-Ang):
   XX=          45795.6978   YY=           1126.6294   ZZ=             66.7372
   XY=           7640.4691   XZ=          -2977.3674   YZ=           -525.3443
 Traceless Quadrupole moment (field-independent basis, Debye-Ang):
   XX=          30132.6763   YY=         -14536.3920   ZZ=         -15596.2843
   XY=           7640.4691   XZ=          -2977.3674   YZ=           -525.3443
 Octapole moment (field-independent basis, Debye-Ang**2):
  XXX=       -4440483.7248  YYY=         -14768.0806  ZZZ=           -255.5416  XYY=        -110360.4061
  XXY=        -743796.1641  XXZ=         290921.6684  XZZ=          -7009.8653  YZZ=          -1849.0716
  YYZ=           8344.6242  XYZ=          51447.5508
 Hexadecapole moment (field-independent basis, Debye-Ang**3):
 XXXX=      428687212.7126 YYYY=         171505.6524 ZZZZ=         -12823.5769 XXXY=       72122900.7959
 XXXZ=      -28325782.7601 YYYX=        1453321.1221 YYYZ=        -126251.6866 ZZZX=          18076.2527
 ZZZY=          -4132.8860 XXYY=       10764573.4862 XXZZ=         723808.0635 YYZZ=          35918.9237
 XXYZ=       -5022604.3903 YYXZ=        -818139.6898 ZZXY=         186751.2075
 N-N= 3.916643110289D+03 E-N=-1.148896824169D+04  KE= 1.567332969686D+03
 Unable to Open any file for archive entry.
 1\1\GINC-QML-000\SP\RB3LYP\6-31G(d)\C23H36N7O4(1+)\KENGMITH\24-May-202
 2\0\\# B3LYP/6-31G* empiricaldispersion=gd3 guess=read geom=check nosy
 mm integral(ultrafinegrid)\\Candidate Structure: Conf:841 Charge calc 
 in gas phase\\1,1\N,0,-95.5800400332,-15.6463310061,3.1488874908\C,0,-
 94.2417301546,-15.1033329262,2.7081291626\C,0,-93.6090962797,-14.11288
 92122,3.7108908967\O,0,-92.3950961478,-13.9855059135,3.6807210207\C,0,
 -94.347254701,-14.4975726411,1.2828608073\C,0,-95.5456982858,-13.61383
 12188,1.0914203924\C,0,-95.6164758238,-12.2466002952,1.2348782062\C,0,
 -96.877948308,-14.0570886378,0.746649812\C,0,-97.7086850243,-12.903757
 3061,0.7172681244\C,0,-97.4457407696,-15.3092714735,0.4420741455\N,0,-
 96.9076781815,-11.8205718129,1.0197856866\C,0,-99.0738612042,-12.97250
 55941,0.4211277133\C,0,-98.8006712769,-15.3826629722,0.1458860267\C,0,
 -99.6075208371,-14.2250939944,0.1425013463\H,0,-93.5564532234,-15.9528
 727255,2.6978669987\H,0,-93.4125564836,-13.9595188008,1.1006355507\H,0
 ,-94.3779431639,-15.3231248855,0.5604753234\H,0,-94.8337240969,-11.539
 3531322,1.4664490343\H,0,-97.2052092638,-10.8565772719,1.0151977121\H,
 0,-96.8267000185,-16.2044885072,0.3907795735\H,0,-99.692431289,-12.079
 8092702,0.402142082\H,0,-99.246462282,-16.3411283412,-0.1030174646\H,0
 ,-100.6629288977,-14.312951257,-0.0965563387\H,0,-96.3154377286,-14.93
 49572633,3.0732420977\H,0,-95.8793781067,-16.4032122565,2.5287943475\N
 ,0,-94.4333977422,-13.4214297545,4.5341479901\C,0,-93.9830993968,-12.5
 870418328,5.65736447\C,0,-93.1809248766,-13.4331777505,6.6895140929\O,
 0,-92.0030698276,-13.2082931979,6.9104768067\C,0,-93.1759599802,-11.32
 94941172,5.2625369411\C,0,-93.2071645112,-10.328282251,6.437039144\C,0
 ,-93.6972482737,-10.7090878728,3.96156668\C,0,-92.1528402075,-9.222165
 5916,6.3303655303\H,0,-95.4327060999,-13.5633522503,4.4909364044\H,0,-
 94.918926106,-12.2616749648,6.1249454573\H,0,-92.1426820163,-11.649196
 0314,5.1067701368\H,0,-94.2128702594,-9.884229865,6.5015119743\H,0,-93
 .0400094897,-10.8709578742,7.3747426945\H,0,-93.4875068034,-11.3672406
 438,3.1152090547\H,0,-94.77952784,-10.5223420675,3.9968644593\H,0,-93.
 1993108185,-9.7553391487,3.7645298007\H,0,-92.292275674,-8.6037654763,
 5.4369064477\H,0,-91.1468786956,-9.6545273716,6.2873173404\H,0,-92.196
 0370204,-8.5570365741,7.1994306405\N,0,-93.7960838934,-14.4844901105,7
 .3435194143\C,0,-95.2136704929,-14.8030170238,7.5392988564\C,0,-95.891
 2216881,-15.184643039,6.2029480495\O,0,-96.8013911326,-14.4824428581,5
 .7161043521\C,0,-95.938706823,-13.7348841506,8.389133589\C,0,-97.46031
 96803,-13.8695867278,8.5985909846\C,0,-97.9777788026,-15.2295550175,9.
 0872881295\N,0,-97.8911172178,-16.238315294,8.0122505033\C,0,-97.51941
 5014,-17.513105617,8.1599119281\N,0,-97.7281007343,-18.1388693616,9.33
 36466174\N,0,-96.9429142399,-18.1576310362,7.1390148492\O,0,-95.456499
 8113,-16.27512327,5.6681616184\H,0,-95.5732664437,-16.0137523906,4.189
 823732\H,0,-93.1406461499,-14.9586938244,7.952851292\H,0,-95.195174902
 9,-15.742527883,8.1029000971\H,0,-95.4354151504,-13.7209003808,9.36419
 50134\H,0,-95.762259408,-12.7501789957,7.9469891273\H,0,-97.9803611729
 ,-13.6087394077,7.6723830159\H,0,-97.7637017004,-13.1292741152,9.34790
 27733\H,0,-97.3928445932,-15.5888536266,9.9419338077\H,0,-99.022126183
 9,-15.132460258,9.4059091036\H,0,-97.9189151529,-15.8730038952,7.06365
 44674\H,0,-97.2465210695,-18.9964588836,9.5627656385\H,0,-98.369622031
 4,-17.7634208734,10.0174092091\H,0,-96.3981954415,-17.6133431317,6.447
 1359948\H,0,-96.8408423485,-19.1627492169,7.1633078022\\Version=ES64L-
 G16RevC.01\HF=-1582.2385227\RMSD=4.530e-09\Dipole=-4.2772342,-4.161455
 3,2.9319273\Quadrupole=22402.9062976,-10807.4512078,-11595.4550898,568
 0.501484,-2213.599671,-390.5806101\PG=C01 [X(C23H36N7O4)]\\@
 The archive entry for this job was punched.


 WHAT, THEN, IS TIME?  IF NO ONE ASKS ME, I KNOW WHAT IT IS.
 IF I WISH TO EXPLAIN WHAT IT IS TO HIM WHO ASKS ME, I DO NOT KNOW.
                                   -- ST. AUGUSTINE (FIFTH CENTURY)
 Job cpu time:       0 days  0 hours  2 minutes 27.8 seconds.
 Elapsed time:       0 days  0 hours  0 minutes 37.5 seconds.
 File lengths (MBytes):  RWF=    296 Int=      0 D2E=      0 Chk=     40 Scr=     16
 Normal termination of Gaussian 16 at Tue May 24 23:10:43 2022.
