 Entering Gaussian System, Link 0=/opt/software/Gaussian/g16-AVX-C.01/g16/g16
 Input=charge-conf-584.com
 Output=charge-conf-584.log
 Initial command:
 /opt/software/Gaussian/g16-AVX-C.01/g16/l1.exe "/mnt/gs18/scratch/users/kengmith/Gau-36149.inp" -scrdir="/mnt/gs18/scratch/users/kengmith/"
 Entering Link 1 = /opt/software/Gaussian/g16-AVX-C.01/g16/l1.exe PID=     36166.
  
 Copyright (c) 1988-2019, Gaussian, Inc.  All Rights Reserved.
  
 This is part of the Gaussian(R) 16 program.  It is based on
 the Gaussian(R) 09 system (copyright 2009, Gaussian, Inc.),
 the Gaussian(R) 03 system (copyright 2003, Gaussian, Inc.),
 the Gaussian(R) 98 system (copyright 1998, Gaussian, Inc.),
 the Gaussian(R) 94 system (copyright 1995, Gaussian, Inc.),
 the Gaussian 92(TM) system (copyright 1992, Gaussian, Inc.),
 the Gaussian 90(TM) system (copyright 1990, Gaussian, Inc.),
 the Gaussian 88(TM) system (copyright 1988, Gaussian, Inc.),
 the Gaussian 86(TM) system (copyright 1986, Carnegie Mellon
 University), and the Gaussian 82(TM) system (copyright 1983,
 Carnegie Mellon University). Gaussian is a federally registered
 trademark of Gaussian, Inc.
  
 This software contains proprietary and confidential information,
 including trade secrets, belonging to Gaussian, Inc.
  
 This software is provided under written license and may be
 used, copied, transmitted, or stored only in accord with that
 written license.
  
 The following legend is applicable only to US Government
 contracts under FAR:
  
                    RESTRICTED RIGHTS LEGEND
  
 Use, reproduction and disclosure by the US Government is
 subject to restrictions as set forth in subparagraphs (a)
 and (c) of the Commercial Computer Software - Restricted
 Rights clause in FAR 52.227-19.
  
 Gaussian, Inc.
 340 Quinnipiac St., Bldg. 40, Wallingford CT 06492
  
  
 ---------------------------------------------------------------
 Warning -- This program may not be used in any manner that
 competes with the business of Gaussian, Inc. or will provide
 assistance to any competitor of Gaussian, Inc.  The licensee
 of this program is prohibited from giving any competitor of
 Gaussian, Inc. access to this program.  By using this program,
 the user acknowledges that Gaussian, Inc. is engaged in the
 business of creating and licensing software in the field of
 computational chemistry and represents and warrants to the
 licensee that it is not a competitor of Gaussian, Inc. and that
 it will not use this program in any manner prohibited above.
 ---------------------------------------------------------------
  

 Cite this work as:
 Gaussian 16, Revision C.01,
 M. J. Frisch, G. W. Trucks, H. B. Schlegel, G. E. Scuseria, 
 M. A. Robb, J. R. Cheeseman, G. Scalmani, V. Barone, 
 G. A. Petersson, H. Nakatsuji, X. Li, M. Caricato, A. V. Marenich, 
 J. Bloino, B. G. Janesko, R. Gomperts, B. Mennucci, H. P. Hratchian, 
 J. V. Ortiz, A. F. Izmaylov, J. L. Sonnenberg, D. Williams-Young, 
 F. Ding, F. Lipparini, F. Egidi, J. Goings, B. Peng, A. Petrone, 
 T. Henderson, D. Ranasinghe, V. G. Zakrzewski, J. Gao, N. Rega, 
 G. Zheng, W. Liang, M. Hada, M. Ehara, K. Toyota, R. Fukuda, 
 J. Hasegawa, M. Ishida, T. Nakajima, Y. Honda, O. Kitao, H. Nakai, 
 T. Vreven, K. Throssell, J. A. Montgomery, Jr., J. E. Peralta, 
 F. Ogliaro, M. J. Bearpark, J. J. Heyd, E. N. Brothers, K. N. Kudin, 
 V. N. Staroverov, T. A. Keith, R. Kobayashi, J. Normand, 
 K. Raghavachari, A. P. Rendell, J. C. Burant, S. S. Iyengar, 
 J. Tomasi, M. Cossi, J. M. Millam, M. Klene, C. Adamo, R. Cammi, 
 J. W. Ochterski, R. L. Martin, K. Morokuma, O. Farkas, 
 J. B. Foresman, and D. J. Fox, Gaussian, Inc., Wallingford CT, 2019.
 
 ******************************************
 Gaussian 16:  ES64L-G16RevC.01  3-Jul-2019
                24-May-2022 
 ******************************************
 %mem=8gb
 %nproc=4
 Will use up to    4 processors via shared memory.
 %chk=conf-584.chk
 ----------------------------------------------------------------------
 # B3LYP/6-31G* empiricaldispersion=gd3 guess=read geom=check nosymm in
 tegral(ultrafinegrid)
 ----------------------------------------------------------------------
 1/29=2,38=1,172=1/1;
 2/12=2,15=1,40=1/2;
 3/5=1,6=6,7=1,11=2,14=-4,25=1,30=1,74=-5,75=-5,116=-2,124=31/1,2,3;
 4/5=1/1;
 5/5=2,38=6/2;
 6/7=2,8=2,9=2,10=2,28=1/1;
 99/5=1,9=1/99;
 ------------------------------------------------------
 Candidate Structure: Conf:584 Charge calc in gas phase
 ------------------------------------------------------
 Structure from the checkpoint file:  "conf-584.chk"
 Charge =  1 Multiplicity = 1
 Redundant internal coordinates found in file.  (old form).
 N,0,-97.9699656614,-14.5573147032,7.3614843861
 C,0,-96.5437319963,-14.5713986753,7.0243125137
 C,0,-96.3412351021,-14.4385961829,5.5226045728
 O,0,-95.2185355987,-14.2186699682,5.0241990616
 C,0,-95.8905699285,-15.9216595167,7.4482428743
 C,0,-95.9628815455,-16.1347794961,8.9261117571
 C,0,-96.7568388562,-17.0337433711,9.5997177987
 C,0,-95.2501766306,-15.3835396768,9.930132561
 C,0,-95.6562190031,-15.8854328701,11.1959039463
 C,0,-94.3082793837,-14.3414673573,9.8777146649
 N,0,-96.5777377994,-16.8881226253,10.961110981
 C,0,-95.1503654787,-15.3775757591,12.3968937343
 C,0,-93.8037137179,-13.8328697156,11.0678152925
 C,0,-94.2219918573,-14.3460643391,12.3138288044
 H,0,-95.9717039188,-13.7604953651,7.4976884278
 H,0,-96.3967908317,-16.7336185926,6.9113100259
 H,0,-94.8515185598,-15.9060745418,7.1013782752
 H,0,-97.4273099977,-17.7865339267,9.2069575775
 H,0,-97.0060946649,-17.4637777765,11.6694945876
 H,0,-93.972573849,-13.9474139566,8.9214687454
 H,0,-95.4689717879,-15.7737942987,13.3570676182
 H,0,-93.0725774683,-13.0298891981,11.0435567633
 H,0,-93.8080181066,-13.9289163538,13.2272538379
 H,0,-98.1193278658,-15.1302648614,8.1915740189
 H,0,-98.2795107453,-13.6183010987,7.5995759132
 N,0,-97.425561908,-14.6133659876,4.7650999511
 C,0,-97.369157466,-14.7938549989,3.319376502
 C,0,-96.0159717151,-15.4471751818,2.9600962018
 O,0,-95.8270067756,-16.6107808646,3.2710103418
 C,0,-98.5151380326,-15.7284571003,2.8465082094
 C,0,-98.466510996,-15.9137468104,1.3141178055
 C,0,-99.8822327425,-15.1861269197,3.2936794655
 C,0,-99.3621755365,-17.0469196961,0.8003513134
 H,0,-98.2666906838,-14.820895843,5.3012175849
 H,0,-97.5013317527,-13.8295340772,2.8243721867
 H,0,-98.3309183738,-16.7025449755,3.3167549803
 H,0,-98.7507590714,-14.9656105416,0.8326890462
 H,0,-97.436655802,-16.1215227854,1.0033100731
 H,0,-100.043405767,-14.1691404974,2.9146040276
 H,0,-100.6877448757,-15.8170165173,2.9087685898
 H,0,-100.0014518875,-15.1581888574,4.3821749421
 H,0,-99.0866745925,-18.0002571803,1.2658498919
 H,0,-99.2548015613,-17.1618118741,-0.2834811625
 H,0,-100.4224243916,-16.8664748478,1.0060751278
 N,0,-95.1122708653,-14.8300639449,2.0859612601
 C,0,-94.595425796,-13.4613643052,1.9728577688
 C,0,-93.2225908033,-13.2885547838,2.6758817927
 O,0,-92.3135836648,-12.685985015,2.097473702
 C,0,-95.574610894,-12.3431344638,2.3996605257
 C,0,-95.074743286,-10.8888250923,2.2677899024
 C,0,-94.748380335,-10.3930802734,0.8492306578
 N,0,-93.450416435,-10.9465513468,0.4188839377
 C,0,-93.0611258354,-11.2467798764,-0.8151397953
 N,0,-93.6473133413,-10.6960979732,-1.8984648647
 N,0,-92.0873001004,-12.1660828242,-0.9809839341
 O,0,-93.0165910117,-13.776452335,3.8740939152
 H,0,-93.8339425121,-14.150901031,4.2918826443
 H,0,-94.4325617677,-15.5409685328,1.8248163368
 H,0,-94.3580140113,-13.3194163362,0.9123822672
 H,0,-96.4755030146,-12.4533326619,1.7854779921
 H,0,-95.8601369821,-12.5108201043,3.4392051395
 H,0,-94.2064982751,-10.7107588207,2.9156778604
 H,0,-95.8684513852,-10.2437577525,2.6597711554
 H,0,-95.5286940219,-10.7046011147,0.1430139193
 H,0,-94.7016325531,-9.2977784802,0.8441821174
 H,0,-92.8984404732,-11.4041217152,1.1571382811
 H,0,-93.4359812393,-11.0273791477,-2.8312276309
 H,0,-94.2106054323,-9.8606622096,-1.8157566093
 H,0,-91.7257508113,-12.634121449,-0.1533948729
 H,0,-91.4971091955,-12.1522439068,-1.8030432068
 Recover connectivity data from disk.
                           ----------------------------
                           !    Current Parameters    !
                           ! (Angstroms and Degrees)  !
 --------------------------                            --------------------------
 ! Name  Definition              Value                                          !
 --------------------------------------------------------------------------------
 ! R1    R(1,2)                  1.4656                                         !
 ! R2    R(1,24)                 1.0196                                         !
 ! R3    R(1,25)                 1.017                                          !
 ! R4    R(2,3)                  1.5211                                         !
 ! R5    R(2,5)                  1.5587                                         !
 ! R6    R(2,15)                 1.0995                                         !
 ! R7    R(3,4)                  1.2479                                         !
 ! R8    R(3,26)                 1.3342                                         !
 ! R9    R(5,6)                  1.4949                                         !
 ! R10   R(5,16)                 1.0972                                         !
 ! R11   R(5,17)                 1.0955                                         !
 ! R12   R(6,7)                  1.3756                                         !
 ! R13   R(6,8)                  1.4423                                         !
 ! R14   R(7,11)                 1.3808                                         !
 ! R15   R(7,18)                 1.0819                                         !
 ! R16   R(8,9)                  1.4209                                         !
 ! R17   R(8,10)                 1.4056                                         !
 ! R18   R(9,11)                 1.3819                                         !
 ! R19   R(9,12)                 1.3986                                         !
 ! R20   R(10,13)                1.3891                                         !
 ! R21   R(10,20)                1.0874                                         !
 ! R22   R(11,19)                1.0083                                         !
 ! R23   R(12,14)                1.3902                                         !
 ! R24   R(12,21)                1.0865                                         !
 ! R25   R(13,14)                1.411                                          !
 ! R26   R(13,22)                1.0862                                         !
 ! R27   R(14,23)                1.0862                                         !
 ! R28   R(26,27)                1.458                                          !
 ! R29   R(26,34)                1.0188                                         !
 ! R30   R(27,28)                1.545                                          !
 ! R31   R(27,30)                1.5525                                         !
 ! R32   R(27,35)                1.092                                          !
 ! R33   R(28,29)                1.2192                                         !
 ! R34   R(28,45)                1.4006                                         !
 ! R35   R(30,31)                1.5443                                         !
 ! R36   R(30,32)                1.5372                                         !
 ! R37   R(30,36)                1.0972                                         !
 ! R38   R(31,33)                1.5331                                         !
 ! R39   R(31,37)                1.1007                                         !
 ! R40   R(31,38)                1.0956                                         !
 ! R41   R(32,39)                1.0972                                         !
 ! R42   R(32,40)                1.0932                                         !
 ! R43   R(32,41)                1.0954                                         !
 ! R44   R(33,42)                1.0961                                         !
 ! R45   R(33,43)                1.0952                                         !
 ! R46   R(33,44)                1.095                                          !
 ! R47   R(45,46)                1.4674                                         !
 ! R48   R(45,58)                1.0176                                         !
 ! R49   R(46,47)                1.552                                          !
 ! R50   R(46,49)                1.5464                                         !
 ! R51   R(46,59)                1.096                                          !
 ! R52   R(47,48)                1.2345                                         !
 ! R53   R(47,56)                1.31                                           !
 ! R54   R(49,50)                1.5435                                         !
 ! R55   R(49,60)                1.0959                                         !
 ! R56   R(49,61)                1.091                                          !
 ! R57   R(50,51)                1.5377                                         !
 ! R58   R(50,62)                1.0979                                         !
 ! R59   R(50,63)                1.0953                                         !
 ! R60   R(51,52)                1.4752                                         !
 ! R61   R(51,64)                1.0976                                         !
 ! R62   R(51,65)                1.0963                                         !
 ! R63   R(52,53)                1.3283                                         !
 ! R64   R(52,66)                1.0291                                         !
 ! R65   R(53,54)                1.3492                                         !
 ! R66   R(53,55)                1.3494                                         !
 ! R67   R(54,67)                1.0122                                         !
 ! R68   R(54,68)                1.011                                          !
 ! R69   R(55,69)                1.0172                                         !
 ! R70   R(55,70)                1.0121                                         !
 ! R71   R(56,57)                0.9914                                         !
 ! A1    A(2,1,24)             108.9318                                         !
 ! A2    A(2,1,25)             111.0345                                         !
 ! A3    A(24,1,25)            106.4787                                         !
 ! A4    A(1,2,3)              110.8443                                         !
 ! A5    A(1,2,5)              110.7039                                         !
 ! A6    A(1,2,15)             113.5878                                         !
 ! A7    A(3,2,5)              106.7595                                         !
 ! A8    A(3,2,15)             106.9418                                         !
 ! A9    A(5,2,15)             107.6854                                         !
 ! A10   A(2,3,4)              121.969                                          !
 ! A11   A(2,3,26)             116.1604                                         !
 ! A12   A(4,3,26)             121.8369                                         !
 ! A13   A(2,5,6)              111.8456                                         !
 ! A14   A(2,5,16)             108.3389                                         !
 ! A15   A(2,5,17)             107.3978                                         !
 ! A16   A(6,5,16)             110.853                                          !
 ! A17   A(6,5,17)             111.1565                                         !
 ! A18   A(16,5,17)            107.0482                                         !
 ! A19   A(5,6,7)              127.2425                                         !
 ! A20   A(5,6,8)              126.1579                                         !
 ! A21   A(7,6,8)              106.5413                                         !
 ! A22   A(6,7,11)             109.8167                                         !
 ! A23   A(6,7,18)             129.3931                                         !
 ! A24   A(11,7,18)            120.7761                                         !
 ! A25   A(6,8,9)              107.1531                                         !
 ! A26   A(6,8,10)             133.7312                                         !
 ! A27   A(9,8,10)             119.1152                                         !
 ! A28   A(8,9,11)             107.1872                                         !
 ! A29   A(8,9,12)             122.2306                                         !
 ! A30   A(11,9,12)            130.582                                          !
 ! A31   A(8,10,13)            118.8737                                         !
 ! A32   A(8,10,20)            120.5524                                         !
 ! A33   A(13,10,20)           120.5708                                         !
 ! A34   A(7,11,9)             109.3006                                         !
 ! A35   A(7,11,19)            125.2646                                         !
 ! A36   A(9,11,19)            125.3218                                         !
 ! A37   A(9,12,14)            117.363                                          !
 ! A38   A(9,12,21)            121.358                                          !
 ! A39   A(14,12,21)           121.279                                          !
 ! A40   A(10,13,14)           121.0461                                         !
 ! A41   A(10,13,22)           119.7364                                         !
 ! A42   A(14,13,22)           119.2172                                         !
 ! A43   A(12,14,13)           121.3713                                         !
 ! A44   A(12,14,23)           119.2896                                         !
 ! A45   A(13,14,23)           119.3388                                         !
 ! A46   A(3,26,27)            123.2117                                         !
 ! A47   A(3,26,34)            113.5087                                         !
 ! A48   A(27,26,34)           121.9038                                         !
 ! A49   A(26,27,28)           108.47                                           !
 ! A50   A(26,27,30)           110.3632                                         !
 ! A51   A(26,27,35)           109.6018                                         !
 ! A52   A(28,27,30)           108.7302                                         !
 ! A53   A(28,27,35)           111.9642                                         !
 ! A54   A(30,27,35)           107.7099                                         !
 ! A55   A(27,28,29)           118.6881                                         !
 ! A56   A(27,28,45)           121.5974                                         !
 ! A57   A(29,28,45)           118.6653                                         !
 ! A58   A(27,30,31)           110.5614                                         !
 ! A59   A(27,30,32)           110.822                                          !
 ! A60   A(27,30,36)           106.2578                                         !
 ! A61   A(31,30,32)           111.0377                                         !
 ! A62   A(31,30,36)           108.2681                                         !
 ! A63   A(32,30,36)           109.7458                                         !
 ! A64   A(30,31,33)           113.7551                                         !
 ! A65   A(30,31,37)           108.8156                                         !
 ! A66   A(30,31,38)           109.5022                                         !
 ! A67   A(33,31,37)           109.8315                                         !
 ! A68   A(33,31,38)           108.2958                                         !
 ! A69   A(37,31,38)           106.381                                          !
 ! A70   A(30,32,39)           110.9241                                         !
 ! A71   A(30,32,40)           110.4431                                         !
 ! A72   A(30,32,41)           113.2577                                         !
 ! A73   A(39,32,40)           107.7596                                         !
 ! A74   A(39,32,41)           107.6792                                         !
 ! A75   A(40,32,41)           106.524                                          !
 ! A76   A(31,33,42)           110.7149                                         !
 ! A77   A(31,33,43)           110.6046                                         !
 ! A78   A(31,33,44)           112.3912                                         !
 ! A79   A(42,33,43)           107.722                                          !
 ! A80   A(42,33,44)           107.8731                                         !
 ! A81   A(43,33,44)           107.3465                                         !
 ! A82   A(28,45,46)           133.3416                                         !
 ! A83   A(28,45,58)           106.459                                          !
 ! A84   A(46,45,58)           113.3633                                         !
 ! A85   A(45,46,47)           112.3643                                         !
 ! A86   A(45,46,49)           115.4788                                         !
 ! A87   A(45,46,59)           105.7648                                         !
 ! A88   A(47,46,49)           110.7664                                         !
 ! A89   A(47,46,59)           103.4308                                         !
 ! A90   A(49,46,59)           108.0935                                         !
 ! A91   A(46,47,48)           119.5672                                         !
 ! A92   A(46,47,56)           120.7926                                         !
 ! A93   A(48,47,56)           119.6401                                         !
 ! A94   A(46,49,50)           116.9167                                         !
 ! A95   A(46,49,60)           107.0458                                         !
 ! A96   A(46,49,61)           108.5147                                         !
 ! A97   A(50,49,60)           108.2462                                         !
 ! A98   A(50,49,61)           108.1186                                         !
 ! A99   A(60,49,61)           107.6625                                         !
 ! A100  A(49,50,51)           116.8285                                         !
 ! A101  A(49,50,62)           111.0099                                         !
 ! A102  A(49,50,63)           106.8373                                         !
 ! A103  A(51,50,62)           108.921                                          !
 ! A104  A(51,50,63)           107.1016                                         !
 ! A105  A(62,50,63)           105.448                                          !
 ! A106  A(50,51,52)           109.5663                                         !
 ! A107  A(50,51,64)           110.5595                                         !
 ! A108  A(50,51,65)           109.5963                                         !
 ! A109  A(52,51,64)           109.3498                                         !
 ! A110  A(52,51,65)           109.6319                                         !
 ! A111  A(64,51,65)           108.1145                                         !
 ! A112  A(51,52,53)           127.8543                                         !
 ! A113  A(51,52,66)           115.4336                                         !
 ! A114  A(53,52,66)           114.1264                                         !
 ! A115  A(52,53,54)           121.7578                                         !
 ! A116  A(52,53,55)           118.6619                                         !
 ! A117  A(54,53,55)           119.5313                                         !
 ! A118  A(53,54,67)           121.04                                           !
 ! A119  A(53,54,68)           120.9073                                         !
 ! A120  A(67,54,68)           117.5289                                         !
 ! A121  A(53,55,69)           118.0328                                         !
 ! A122  A(53,55,70)           120.7534                                         !
 ! A123  A(69,55,70)           117.3785                                         !
 ! A124  A(47,56,57)           113.3581                                         !
 ! D1    D(24,1,2,3)           148.8886                                         !
 ! D2    D(24,1,2,5)            30.6104                                         !
 ! D3    D(24,1,2,15)          -90.6815                                         !
 ! D4    D(25,1,2,3)           -94.1628                                         !
 ! D5    D(25,1,2,5)           147.559                                          !
 ! D6    D(25,1,2,15)           26.2672                                         !
 ! D7    D(1,2,3,4)            168.6461                                         !
 ! D8    D(1,2,3,26)           -13.4306                                         !
 ! D9    D(5,2,3,4)            -70.7074                                         !
 ! D10   D(5,2,3,26)           107.2159                                         !
 ! D11   D(15,2,3,4)            44.3418                                         !
 ! D12   D(15,2,3,26)         -137.7349                                         !
 ! D13   D(1,2,5,6)            -62.2186                                         !
 ! D14   D(1,2,5,16)            60.2554                                         !
 ! D15   D(1,2,5,17)           175.5665                                         !
 ! D16   D(3,2,5,6)            177.0451                                         !
 ! D17   D(3,2,5,16)           -60.4809                                         !
 ! D18   D(3,2,5,17)            54.8303                                         !
 ! D19   D(15,2,5,6)            62.4976                                         !
 ! D20   D(15,2,5,16)         -175.0284                                         !
 ! D21   D(15,2,5,17)          -59.7172                                         !
 ! D22   D(2,3,26,27)         -167.0207                                         !
 ! D23   D(2,3,26,34)           -0.2074                                         !
 ! D24   D(4,3,26,27)           10.9056                                         !
 ! D25   D(4,3,26,34)          177.7188                                         !
 ! D26   D(2,5,6,7)            108.319                                          !
 ! D27   D(2,5,6,8)            -68.525                                          !
 ! D28   D(16,5,6,7)           -12.7085                                         !
 ! D29   D(16,5,6,8)           170.4475                                         !
 ! D30   D(17,5,6,7)          -131.6436                                         !
 ! D31   D(17,5,6,8)            51.5124                                         !
 ! D32   D(5,6,7,11)          -177.4828                                         !
 ! D33   D(5,6,7,18)             3.8983                                         !
 ! D34   D(8,6,7,11)            -0.1405                                         !
 ! D35   D(8,6,7,18)          -178.7595                                         !
 ! D36   D(5,6,8,9)            177.6696                                         !
 ! D37   D(5,6,8,10)            -2.5649                                         !
 ! D38   D(7,6,8,9)              0.2901                                         !
 ! D39   D(7,6,8,10)          -179.9444                                         !
 ! D40   D(6,7,11,9)            -0.068                                          !
 ! D41   D(6,7,11,19)         -176.3656                                         !
 ! D42   D(18,7,11,9)          178.6898                                         !
 ! D43   D(18,7,11,19)           2.3921                                         !
 ! D44   D(6,8,9,11)            -0.3313                                         !
 ! D45   D(6,8,9,12)           179.815                                          !
 ! D46   D(10,8,9,11)          179.8626                                         !
 ! D47   D(10,8,9,12)            0.009                                          !
 ! D48   D(6,8,10,13)         -179.8061                                         !
 ! D49   D(6,8,10,20)           -0.4447                                         !
 ! D50   D(9,8,10,13)           -0.0625                                         !
 ! D51   D(9,8,10,20)          179.2989                                         !
 ! D52   D(8,9,11,7)             0.2508                                         !
 ! D53   D(8,9,11,19)          176.5458                                         !
 ! D54   D(12,9,11,7)         -179.9121                                         !
 ! D55   D(12,9,11,19)          -3.6172                                         !
 ! D56   D(8,9,12,14)            0.0869                                         !
 ! D57   D(8,9,12,21)         -179.8426                                         !
 ! D58   D(11,9,12,14)        -179.729                                          !
 ! D59   D(11,9,12,21)           0.3414                                         !
 ! D60   D(8,10,13,14)           0.0195                                         !
 ! D61   D(8,10,13,22)         179.7862                                         !
 ! D62   D(20,10,13,14)       -179.3417                                         !
 ! D63   D(20,10,13,22)          0.4249                                         !
 ! D64   D(9,12,14,13)          -0.1309                                         !
 ! D65   D(9,12,14,23)        -179.9398                                         !
 ! D66   D(21,12,14,13)        179.7987                                         !
 ! D67   D(21,12,14,23)         -0.0102                                         !
 ! D68   D(10,13,14,12)          0.0808                                         !
 ! D69   D(10,13,14,23)        179.8897                                         !
 ! D70   D(22,13,14,12)       -179.687                                          !
 ! D71   D(22,13,14,23)          0.1219                                         !
 ! D72   D(3,26,27,28)          28.42                                           !
 ! D73   D(3,26,27,30)         147.4386                                         !
 ! D74   D(3,26,27,35)         -94.0968                                         !
 ! D75   D(34,26,27,28)       -137.3145                                         !
 ! D76   D(34,26,27,30)        -18.2959                                         !
 ! D77   D(34,26,27,35)        100.1687                                         !
 ! D78   D(26,27,28,29)         70.2764                                         !
 ! D79   D(26,27,28,45)       -121.5971                                         !
 ! D80   D(30,27,28,29)        -49.7657                                         !
 ! D81   D(30,27,28,45)        118.3608                                         !
 ! D82   D(35,27,28,29)       -168.6533                                         !
 ! D83   D(35,27,28,45)         -0.5268                                         !
 ! D84   D(26,27,30,31)        179.5471                                         !
 ! D85   D(26,27,30,32)         55.9841                                         !
 ! D86   D(26,27,30,36)        -63.1868                                         !
 ! D87   D(28,27,30,31)        -61.5927                                         !
 ! D88   D(28,27,30,32)        174.8443                                         !
 ! D89   D(28,27,30,36)         55.6734                                         !
 ! D90   D(35,27,30,31)         59.9319                                         !
 ! D91   D(35,27,30,32)        -63.631                                          !
 ! D92   D(35,27,30,36)        177.1981                                         !
 ! D93   D(27,28,45,46)         46.3458                                         !
 ! D94   D(27,28,45,58)       -165.7271                                         !
 ! D95   D(29,28,45,46)       -145.5251                                         !
 ! D96   D(29,28,45,58)          2.4021                                         !
 ! D97   D(27,30,31,33)        167.5461                                         !
 ! D98   D(27,30,31,37)        -69.6649                                         !
 ! D99   D(27,30,31,38)         46.232                                          !
 ! D100  D(32,30,31,33)        -69.0157                                         !
 ! D101  D(32,30,31,37)         53.7734                                         !
 ! D102  D(32,30,31,38)        169.6703                                         !
 ! D103  D(36,30,31,33)         51.5251                                         !
 ! D104  D(36,30,31,37)        174.3141                                         !
 ! D105  D(36,30,31,38)        -69.789                                          !
 ! D106  D(27,30,32,39)         57.3315                                         !
 ! D107  D(27,30,32,40)        176.7398                                         !
 ! D108  D(27,30,32,41)        -63.881                                          !
 ! D109  D(31,30,32,39)        -65.9573                                         !
 ! D110  D(31,30,32,40)         53.451                                          !
 ! D111  D(31,30,32,41)        172.8302                                         !
 ! D112  D(36,30,32,39)        174.3801                                         !
 ! D113  D(36,30,32,40)        -66.2117                                         !
 ! D114  D(36,30,32,41)         53.1676                                         !
 ! D115  D(30,31,33,42)        -58.1611                                         !
 ! D116  D(30,31,33,43)       -177.4922                                         !
 ! D117  D(30,31,33,44)         62.548                                          !
 ! D118  D(37,31,33,42)        179.6089                                         !
 ! D119  D(37,31,33,43)         60.2778                                         !
 ! D120  D(37,31,33,44)        -59.6821                                         !
 ! D121  D(38,31,33,42)         63.8231                                         !
 ! D122  D(38,31,33,43)        -55.508                                          !
 ! D123  D(38,31,33,44)       -175.4679                                         !
 ! D124  D(28,45,46,47)         96.4828                                         !
 ! D125  D(28,45,46,49)        -31.8889                                         !
 ! D126  D(28,45,46,59)       -151.361                                          !
 ! D127  D(58,45,46,47)        -49.8257                                         !
 ! D128  D(58,45,46,49)       -178.1974                                         !
 ! D129  D(58,45,46,59)         62.3305                                         !
 ! D130  D(45,46,47,48)        134.4223                                         !
 ! D131  D(45,46,47,56)        -45.4526                                         !
 ! D132  D(49,46,47,48)        -94.7717                                         !
 ! D133  D(49,46,47,56)         85.3534                                         !
 ! D134  D(59,46,47,48)         20.8253                                         !
 ! D135  D(59,46,47,56)       -159.0496                                         !
 ! D136  D(45,46,49,50)       -178.832                                          !
 ! D137  D(45,46,49,60)        -57.3026                                         !
 ! D138  D(45,46,49,61)         58.6323                                         !
 ! D139  D(47,46,49,50)         52.0098                                         !
 ! D140  D(47,46,49,60)        173.5392                                         !
 ! D141  D(47,46,49,61)        -70.5259                                         !
 ! D142  D(59,46,49,50)        -60.6479                                         !
 ! D143  D(59,46,49,60)         60.8816                                         !
 ! D144  D(59,46,49,61)        176.8165                                         !
 ! D145  D(46,47,56,57)         -6.5957                                         !
 ! D146  D(48,47,56,57)        173.5295                                         !
 ! D147  D(46,49,50,51)         63.085                                          !
 ! D148  D(46,49,50,62)        -62.6121                                         !
 ! D149  D(46,49,50,63)       -177.0899                                         !
 ! D150  D(60,49,50,51)        -57.8144                                         !
 ! D151  D(60,49,50,62)        176.4886                                         !
 ! D152  D(60,49,50,63)         62.0107                                         !
 ! D153  D(61,49,50,51)       -174.1747                                         !
 ! D154  D(61,49,50,62)         60.1283                                         !
 ! D155  D(61,49,50,63)        -54.3495                                         !
 ! D156  D(49,50,51,52)        -76.6055                                         !
 ! D157  D(49,50,51,64)         43.983                                          !
 ! D158  D(49,50,51,65)        163.0617                                         !
 ! D159  D(62,50,51,52)         50.1279                                         !
 ! D160  D(62,50,51,64)        170.7164                                         !
 ! D161  D(62,50,51,65)        -70.2049                                         !
 ! D162  D(63,50,51,52)        163.7105                                         !
 ! D163  D(63,50,51,64)        -75.7011                                         !
 ! D164  D(63,50,51,65)         43.3777                                         !
 ! D165  D(50,51,52,53)        149.4685                                         !
 ! D166  D(50,51,52,66)        -11.0661                                         !
 ! D167  D(64,51,52,53)         28.1477                                         !
 ! D168  D(64,51,52,66)       -132.3868                                         !
 ! D169  D(65,51,52,53)        -90.2204                                         !
 ! D170  D(65,51,52,66)        109.245                                          !
 ! D171  D(51,52,53,54)         21.6159                                         !
 ! D172  D(51,52,53,55)       -155.8253                                         !
 ! D173  D(66,52,53,54)       -177.6375                                         !
 ! D174  D(66,52,53,55)          4.9213                                         !
 ! D175  D(52,53,54,67)       -171.1726                                         !
 ! D176  D(52,53,54,68)         17.3335                                         !
 ! D177  D(55,53,54,67)          6.2469                                         !
 ! D178  D(55,53,54,68)       -165.247                                          !
 ! D179  D(52,53,55,69)          3.486                                          !
 ! D180  D(52,53,55,70)       -153.8907                                         !
 ! D181  D(54,53,55,69)       -174.0135                                         !
 ! D182  D(54,53,55,70)         28.6098                                         !
 --------------------------------------------------------------------------------
 Symmetry turned off by external request.
 Stoichiometry    C23H36N7O4(1+)
 Framework group  C1[X(C23H36N7O4)]
 Deg. of freedom   204
 Full point group                 C1      NOp   1
                          Input orientation:                          
 ---------------------------------------------------------------------
 Center     Atomic      Atomic             Coordinates (Angstroms)
 Number     Number       Type             X           Y           Z
 ---------------------------------------------------------------------
      1          7           0      -97.969966  -14.557315    7.361484
      2          6           0      -96.543732  -14.571399    7.024313
      3          6           0      -96.341235  -14.438596    5.522605
      4          8           0      -95.218536  -14.218670    5.024199
      5          6           0      -95.890570  -15.921660    7.448243
      6          6           0      -95.962882  -16.134779    8.926112
      7          6           0      -96.756839  -17.033743    9.599718
      8          6           0      -95.250177  -15.383540    9.930133
      9          6           0      -95.656219  -15.885433   11.195904
     10          6           0      -94.308279  -14.341467    9.877715
     11          7           0      -96.577738  -16.888123   10.961111
     12          6           0      -95.150365  -15.377576   12.396894
     13          6           0      -93.803714  -13.832870   11.067815
     14          6           0      -94.221992  -14.346064   12.313829
     15          1           0      -95.971704  -13.760495    7.497688
     16          1           0      -96.396791  -16.733619    6.911310
     17          1           0      -94.851519  -15.906075    7.101378
     18          1           0      -97.427310  -17.786534    9.206958
     19          1           0      -97.006095  -17.463778   11.669495
     20          1           0      -93.972574  -13.947414    8.921469
     21          1           0      -95.468972  -15.773794   13.357068
     22          1           0      -93.072577  -13.029889   11.043557
     23          1           0      -93.808018  -13.928916   13.227254
     24          1           0      -98.119328  -15.130265    8.191574
     25          1           0      -98.279511  -13.618301    7.599576
     26          7           0      -97.425562  -14.613366    4.765100
     27          6           0      -97.369157  -14.793855    3.319377
     28          6           0      -96.015972  -15.447175    2.960096
     29          8           0      -95.827007  -16.610781    3.271010
     30          6           0      -98.515138  -15.728457    2.846508
     31          6           0      -98.466511  -15.913747    1.314118
     32          6           0      -99.882233  -15.186127    3.293679
     33          6           0      -99.362176  -17.046920    0.800351
     34          1           0      -98.266691  -14.820896    5.301218
     35          1           0      -97.501332  -13.829534    2.824372
     36          1           0      -98.330918  -16.702545    3.316755
     37          1           0      -98.750759  -14.965611    0.832689
     38          1           0      -97.436656  -16.121523    1.003310
     39          1           0     -100.043406  -14.169140    2.914604
     40          1           0     -100.687745  -15.817017    2.908769
     41          1           0     -100.001452  -15.158189    4.382175
     42          1           0      -99.086675  -18.000257    1.265850
     43          1           0      -99.254802  -17.161812   -0.283481
     44          1           0     -100.422424  -16.866475    1.006075
     45          7           0      -95.112271  -14.830064    2.085961
     46          6           0      -94.595426  -13.461364    1.972858
     47          6           0      -93.222591  -13.288555    2.675882
     48          8           0      -92.313584  -12.685985    2.097474
     49          6           0      -95.574611  -12.343134    2.399661
     50          6           0      -95.074743  -10.888825    2.267790
     51          6           0      -94.748380  -10.393080    0.849231
     52          7           0      -93.450416  -10.946551    0.418884
     53          6           0      -93.061126  -11.246780   -0.815140
     54          7           0      -93.647313  -10.696098   -1.898465
     55          7           0      -92.087300  -12.166083   -0.980984
     56          8           0      -93.016591  -13.776452    3.874094
     57          1           0      -93.833943  -14.150901    4.291883
     58          1           0      -94.432562  -15.540969    1.824816
     59          1           0      -94.358014  -13.319416    0.912382
     60          1           0      -96.475503  -12.453333    1.785478
     61          1           0      -95.860137  -12.510820    3.439205
     62          1           0      -94.206498  -10.710759    2.915678
     63          1           0      -95.868451  -10.243758    2.659771
     64          1           0      -95.528694  -10.704601    0.143014
     65          1           0      -94.701633   -9.297778    0.844182
     66          1           0      -92.898440  -11.404122    1.157138
     67          1           0      -93.435981  -11.027379   -2.831228
     68          1           0      -94.210605   -9.860662   -1.815757
     69          1           0      -91.725751  -12.634121   -0.153395
     70          1           0      -91.497109  -12.152244   -1.803043
 ---------------------------------------------------------------------
 Rotational constants (GHZ):           0.1731808           0.0560196           0.0460492
 Standard basis: 6-31G(d) (6D, 7F)
   582 basis functions,  1096 primitive gaussians,   582 cartesian basis functions
   127 alpha electrons      127 beta electrons
       nuclear repulsion energy      3689.7285646449 Hartrees.
 NAtoms=   70 NActive=   70 NUniq=   70 SFac= 1.00D+00 NAtFMM=   60 NAOKFM=T Big=T
 Integral buffers will be    131072 words long.
 Raffenetti 2 integral format.
 Two-electron integral symmetry is turned off.
 Nuclear repulsion after empirical dispersion term =     3689.6420375794 Hartrees.
 One-electron integrals computed using PRISM.
 NBasis=   582 RedAO= T EigKep=  3.77D-04  NBF=   582
 NBsUse=   582 1.00D-06 EigRej= -1.00D+00 NBFU=   582
 Initial guess from the checkpoint file:  "conf-584.chk"
 B after Tr=     0.000000    0.000000    0.000000
         Rot=    1.000000    0.000000    0.000000    0.000000 Ang=   0.00 deg.
 Requested convergence on RMS density matrix=1.00D-08 within 128 cycles.
 Requested convergence on MAX density matrix=1.00D-06.
 Requested convergence on             energy=1.00D-06.
 No special actions if energy rises.
 SCF Done:  E(RB3LYP) =  -1582.23421398     A.U. after    1 cycles
            NFock=  1  Conv=0.73D-08     -V/T= 2.0095

 **********************************************************************

            Population analysis using the SCF Density.

 **********************************************************************

 Alpha  occ. eigenvalues --  -19.28319 -19.24947 -19.21907 -19.20522 -14.52609
 Alpha  occ. eigenvalues --  -14.51490 -14.50512 -14.45475 -14.45049 -14.44057
 Alpha  occ. eigenvalues --  -14.40620 -10.48149 -10.43134 -10.38315 -10.38025
 Alpha  occ. eigenvalues --  -10.36534 -10.35787 -10.32422 -10.31902 -10.31284
 Alpha  occ. eigenvalues --  -10.30781 -10.28377 -10.27721 -10.27670 -10.26746
 Alpha  occ. eigenvalues --  -10.25996 -10.25734 -10.24703 -10.24479 -10.24354
 Alpha  occ. eigenvalues --  -10.24322 -10.24211 -10.23956 -10.23618  -1.20591
 Alpha  occ. eigenvalues --   -1.16474  -1.14018  -1.12431  -1.11901  -1.05694
 Alpha  occ. eigenvalues --   -1.04763  -1.03922  -1.02289  -1.01621  -0.97500
 Alpha  occ. eigenvalues --   -0.92366  -0.89501  -0.89436  -0.86586  -0.86439
 Alpha  occ. eigenvalues --   -0.82997  -0.81067  -0.80635  -0.79222  -0.79085
 Alpha  occ. eigenvalues --   -0.78284  -0.77581  -0.74297  -0.73568  -0.73029
 Alpha  occ. eigenvalues --   -0.72031  -0.70582  -0.70120  -0.68413  -0.67968
 Alpha  occ. eigenvalues --   -0.66407  -0.65153  -0.65140  -0.64932  -0.64477
 Alpha  occ. eigenvalues --   -0.63200  -0.62399  -0.62090  -0.60622  -0.60063
 Alpha  occ. eigenvalues --   -0.59549  -0.59225  -0.58539  -0.58096  -0.57140
 Alpha  occ. eigenvalues --   -0.56083  -0.55483  -0.55018  -0.54471  -0.54102
 Alpha  occ. eigenvalues --   -0.53479  -0.53148  -0.52604  -0.52340  -0.51952
 Alpha  occ. eigenvalues --   -0.51187  -0.50431  -0.49568  -0.49242  -0.48831
 Alpha  occ. eigenvalues --   -0.48607  -0.48203  -0.48075  -0.47996  -0.46926
 Alpha  occ. eigenvalues --   -0.46686  -0.46212  -0.45760  -0.45323  -0.44975
 Alpha  occ. eigenvalues --   -0.44667  -0.43984  -0.43509  -0.43314  -0.42951
 Alpha  occ. eigenvalues --   -0.41820  -0.41286  -0.40824  -0.40806  -0.40456
 Alpha  occ. eigenvalues --   -0.40249  -0.39398  -0.39111  -0.38974  -0.36809
 Alpha  occ. eigenvalues --   -0.35746  -0.34875  -0.33685  -0.33126  -0.32986
 Alpha  occ. eigenvalues --   -0.28027  -0.26378
 Alpha virt. eigenvalues --   -0.12644  -0.11475  -0.08088  -0.07900  -0.07057
 Alpha virt. eigenvalues --   -0.06511  -0.04416  -0.03084  -0.02763  -0.02316
 Alpha virt. eigenvalues --   -0.00931  -0.00162   0.00088   0.00490   0.00905
 Alpha virt. eigenvalues --    0.01774   0.01966   0.02284   0.03223   0.03981
 Alpha virt. eigenvalues --    0.04100   0.04368   0.04828   0.05585   0.05763
 Alpha virt. eigenvalues --    0.05938   0.06280   0.06527   0.06959   0.07105
 Alpha virt. eigenvalues --    0.08028   0.08133   0.08582   0.08617   0.08870
 Alpha virt. eigenvalues --    0.09229   0.09751   0.09929   0.10442   0.10710
 Alpha virt. eigenvalues --    0.10985   0.11570   0.11714   0.12350   0.12457
 Alpha virt. eigenvalues --    0.12992   0.13090   0.14260   0.14532   0.15130
 Alpha virt. eigenvalues --    0.15459   0.16013   0.16537   0.17191   0.17471
 Alpha virt. eigenvalues --    0.17795   0.17956   0.18972   0.20155   0.20360
 Alpha virt. eigenvalues --    0.20906   0.21699   0.22289   0.22762   0.23323
 Alpha virt. eigenvalues --    0.24599   0.26314   0.26544   0.27997   0.28371
 Alpha virt. eigenvalues --    0.29504   0.29752   0.30467   0.33363   0.34492
 Alpha virt. eigenvalues --    0.35635   0.36466   0.37859   0.38658   0.39633
 Alpha virt. eigenvalues --    0.39867   0.41441   0.42653   0.43023   0.43381
 Alpha virt. eigenvalues --    0.43969   0.44552   0.45169   0.45363   0.45604
 Alpha virt. eigenvalues --    0.45799   0.46448   0.46736   0.46795   0.47546
 Alpha virt. eigenvalues --    0.47832   0.48486   0.49114   0.50118   0.50273
 Alpha virt. eigenvalues --    0.50505   0.50767   0.51285   0.51677   0.52155
 Alpha virt. eigenvalues --    0.52485   0.52665   0.52826   0.53323   0.54067
 Alpha virt. eigenvalues --    0.54370   0.54961   0.54979   0.55375   0.55945
 Alpha virt. eigenvalues --    0.56281   0.56710   0.56845   0.56998   0.57135
 Alpha virt. eigenvalues --    0.57518   0.58615   0.58834   0.59222   0.60549
 Alpha virt. eigenvalues --    0.61157   0.61378   0.62184   0.62602   0.62889
 Alpha virt. eigenvalues --    0.63405   0.63520   0.64371   0.65055   0.66084
 Alpha virt. eigenvalues --    0.66545   0.67197   0.67358   0.68759   0.70591
 Alpha virt. eigenvalues --    0.70922   0.71141   0.71349   0.71913   0.72591
 Alpha virt. eigenvalues --    0.73810   0.74269   0.74495   0.74582   0.75040
 Alpha virt. eigenvalues --    0.75359   0.75852   0.76094   0.76489   0.77005
 Alpha virt. eigenvalues --    0.77328   0.77629   0.78122   0.78615   0.79081
 Alpha virt. eigenvalues --    0.79280   0.79660   0.79738   0.80432   0.80929
 Alpha virt. eigenvalues --    0.81350   0.81982   0.82219   0.82718   0.83107
 Alpha virt. eigenvalues --    0.83919   0.84137   0.84272   0.84655   0.84997
 Alpha virt. eigenvalues --    0.85628   0.86124   0.86296   0.87202   0.87404
 Alpha virt. eigenvalues --    0.88074   0.88594   0.89084   0.89339   0.90181
 Alpha virt. eigenvalues --    0.90623   0.90775   0.91755   0.92154   0.92812
 Alpha virt. eigenvalues --    0.93313   0.93887   0.94211   0.94887   0.95359
 Alpha virt. eigenvalues --    0.96206   0.97114   0.97739   0.98135   0.99069
 Alpha virt. eigenvalues --    1.01374   1.01394   1.02179   1.03169   1.04108
 Alpha virt. eigenvalues --    1.04476   1.05585   1.06331   1.06894   1.07359
 Alpha virt. eigenvalues --    1.08294   1.09211   1.09709   1.10729   1.11789
 Alpha virt. eigenvalues --    1.13170   1.13469   1.14309   1.15652   1.17783
 Alpha virt. eigenvalues --    1.18503   1.19207   1.19440   1.20630   1.21131
 Alpha virt. eigenvalues --    1.22638   1.24175   1.24954   1.25481   1.27127
 Alpha virt. eigenvalues --    1.28196   1.28505   1.29601   1.29840   1.30408
 Alpha virt. eigenvalues --    1.31548   1.31815   1.33667   1.34774   1.35475
 Alpha virt. eigenvalues --    1.35775   1.35873   1.37133   1.38389   1.38891
 Alpha virt. eigenvalues --    1.39775   1.40759   1.41380   1.41768   1.44019
 Alpha virt. eigenvalues --    1.44080   1.44408   1.45087   1.45610   1.47104
 Alpha virt. eigenvalues --    1.48888   1.49191   1.49805   1.50405   1.52029
 Alpha virt. eigenvalues --    1.52244   1.52961   1.55153   1.55507   1.56323
 Alpha virt. eigenvalues --    1.56657   1.58474   1.59276   1.60118   1.60775
 Alpha virt. eigenvalues --    1.63127   1.64613   1.65425   1.66485   1.66872
 Alpha virt. eigenvalues --    1.67378   1.68178   1.68592   1.69265   1.70055
 Alpha virt. eigenvalues --    1.70682   1.71292   1.71752   1.73063   1.73834
 Alpha virt. eigenvalues --    1.74318   1.75365   1.75557   1.76187   1.77608
 Alpha virt. eigenvalues --    1.78976   1.79663   1.79945   1.80795   1.81205
 Alpha virt. eigenvalues --    1.81883   1.82467   1.83393   1.83819   1.84208
 Alpha virt. eigenvalues --    1.85146   1.85538   1.86076   1.86359   1.86865
 Alpha virt. eigenvalues --    1.88322   1.88943   1.89283   1.89812   1.90915
 Alpha virt. eigenvalues --    1.91686   1.92135   1.93327   1.93670   1.94248
 Alpha virt. eigenvalues --    1.94386   1.94662   1.95654   1.96088   1.97778
 Alpha virt. eigenvalues --    1.98489   1.98831   1.99284   2.00544   2.01031
 Alpha virt. eigenvalues --    2.01972   2.02595   2.03135   2.04373   2.05702
 Alpha virt. eigenvalues --    2.06397   2.07771   2.08278   2.08875   2.09248
 Alpha virt. eigenvalues --    2.10250   2.11017   2.11925   2.12355   2.13325
 Alpha virt. eigenvalues --    2.13961   2.16653   2.18331   2.18976   2.19646
 Alpha virt. eigenvalues --    2.20267   2.20431   2.21069   2.22039   2.22214
 Alpha virt. eigenvalues --    2.22795   2.23697   2.23982   2.25589   2.26897
 Alpha virt. eigenvalues --    2.27507   2.28128   2.29267   2.30197   2.31053
 Alpha virt. eigenvalues --    2.31375   2.32898   2.33221   2.34397   2.34968
 Alpha virt. eigenvalues --    2.36395   2.36628   2.38391   2.40557   2.41371
 Alpha virt. eigenvalues --    2.42024   2.42818   2.44226   2.45083   2.45798
 Alpha virt. eigenvalues --    2.46577   2.48400   2.50205   2.50258   2.50803
 Alpha virt. eigenvalues --    2.51182   2.52084   2.53854   2.54912   2.55365
 Alpha virt. eigenvalues --    2.56056   2.56742   2.57287   2.58026   2.58251
 Alpha virt. eigenvalues --    2.59126   2.60727   2.62115   2.62973   2.64053
 Alpha virt. eigenvalues --    2.65356   2.66840   2.68039   2.68564   2.71491
 Alpha virt. eigenvalues --    2.73246   2.75870   2.76132   2.77216   2.79384
 Alpha virt. eigenvalues --    2.80916   2.86628   2.87472   2.88107   2.89362
 Alpha virt. eigenvalues --    2.92564   2.93290   2.94358   2.96996   2.97248
 Alpha virt. eigenvalues --    3.00823   3.03155   3.07076   3.12866   3.18839
 Alpha virt. eigenvalues --    3.38712   3.64541   3.72514   3.80031   3.80393
 Alpha virt. eigenvalues --    3.91452   3.95194   3.96423   3.96798   4.03327
 Alpha virt. eigenvalues --    4.03948   4.06544   4.07840   4.11739   4.12068
 Alpha virt. eigenvalues --    4.13652   4.15598   4.17840   4.18526   4.19366
 Alpha virt. eigenvalues --    4.21253   4.28717   4.30578   4.33317   4.33854
 Alpha virt. eigenvalues --    4.35212   4.36432   4.39666   4.45732   4.49636
 Alpha virt. eigenvalues --    4.53368   4.55830   4.67170   4.70251   4.73779
          Condensed to atoms (all electrons):
 Mulliken charges:
               1
     1  N   -0.768537
     2  C   -0.053618
     3  C    0.656341
     4  O   -0.625740
     5  C   -0.374549
     6  C    0.051976
     7  C   -0.008008
     8  C    0.089147
     9  C    0.311896
    10  C   -0.213902
    11  N   -0.687261
    12  C   -0.159181
    13  C   -0.139173
    14  C   -0.149301
    15  H    0.165601
    16  H    0.164341
    17  H    0.181259
    18  H    0.161273
    19  H    0.337520
    20  H    0.125084
    21  H    0.136040
    22  H    0.130746
    23  H    0.138097
    24  H    0.328171
    25  H    0.320330
    26  N   -0.624218
    27  C    0.029196
    28  C    0.586946
    29  O   -0.486637
    30  C   -0.103742
    31  C   -0.267886
    32  C   -0.479765
    33  C   -0.452416
    34  H    0.382848
    35  H    0.139585
    36  H    0.169918
    37  H    0.122517
    38  H    0.151918
    39  H    0.145157
    40  H    0.174529
    41  H    0.154215
    42  H    0.161414
    43  H    0.153546
    44  H    0.154341
    45  N   -0.630317
    46  C   -0.042273
    47  C    0.603167
    48  O   -0.532812
    49  C   -0.308873
    50  C   -0.328741
    51  C   -0.146720
    52  N   -0.613358
    53  C    0.782992
    54  N   -0.755346
    55  N   -0.767186
    56  O   -0.539427
    57  H    0.484951
    58  H    0.338276
    59  H    0.154102
    60  H    0.169129
    61  H    0.203287
    62  H    0.187090
    63  H    0.184653
    64  H    0.174025
    65  H    0.189648
    66  H    0.418456
    67  H    0.382267
    68  H    0.386294
    69  H    0.402881
    70  H    0.373819
 Sum of Mulliken charges =   1.00000
 Mulliken charges with hydrogens summed into heavy atoms:
               1
     1  N   -0.120036
     2  C    0.111983
     3  C    0.656341
     4  O   -0.625740
     5  C   -0.028949
     6  C    0.051976
     7  C    0.153265
     8  C    0.089147
     9  C    0.311896
    10  C   -0.088818
    11  N   -0.349741
    12  C   -0.023142
    13  C   -0.008427
    14  C   -0.011205
    26  N   -0.241371
    27  C    0.168782
    28  C    0.586946
    29  O   -0.486637
    30  C    0.066177
    31  C    0.006549
    32  C   -0.005864
    33  C    0.016884
    45  N   -0.292041
    46  C    0.111830
    47  C    0.603167
    48  O   -0.532812
    49  C    0.063543
    50  C    0.043002
    51  C    0.216953
    52  N   -0.194902
    53  C    0.782992
    54  N    0.013215
    55  N    0.009514
    56  O   -0.054476
 Electronic spatial extent (au):  <R**2>=        8512593.0477
 Charge=              1.0000 electrons
 Dipole moment (field-independent basis, Debye):
    X=           -458.1502    Y=            -58.3438    Z=              6.8488  Tot=            461.9010
 Quadrupole moment (field-independent basis, Debye-Ang):
   XX=          43530.9974   YY=            536.7502   ZZ=            -65.3669
   XY=           5589.4315   XZ=           -707.4472   YZ=           -129.8081
 Traceless Quadrupole moment (field-independent basis, Debye-Ang):
   XX=          28863.5372   YY=         -14130.7100   ZZ=         -14732.8271
   XY=           5589.4315   XZ=           -707.4472   YZ=           -129.8081
 Octapole moment (field-independent basis, Debye-Ang**2):
  XXX=       -4119724.0303  YYY=          -1156.8553  ZZZ=          -1459.3769  XYY=         -51834.4466
  XXY=        -533041.9122  XXZ=          71709.6782  XZZ=           5993.2809  YZZ=            688.1985
  YYZ=           1418.5155  XYZ=          13210.8165
 Hexadecapole moment (field-independent basis, Debye-Ang**3):
 XXXX=      388288650.3399 YYYY=        -114653.0971 ZZZZ=         -29769.8811 XXXY=       50599482.6368
 XXXZ=       -7153408.2555 YYYX=         121552.9546 YYYZ=            595.6766 ZZZX=         137355.6320
 ZZZY=          19360.4103 XXYY=        4968768.7858 XXZZ=        -556777.2165 YYZZ=         -13643.0289
 XXYZ=       -1325239.6974 YYXZ=        -147981.4229 ZZXY=         -61511.2234
 N-N= 3.689642037579D+03 E-N=-1.103631540540D+04  KE= 1.567310182218D+03
 Unable to Open any file for archive entry.
 1\1\GINC-QML-002\SP\RB3LYP\6-31G(d)\C23H36N7O4(1+)\KENGMITH\24-May-202
 2\0\\# B3LYP/6-31G* empiricaldispersion=gd3 guess=read geom=check nosy
 mm integral(ultrafinegrid)\\Candidate Structure: Conf:584 Charge calc 
 in gas phase\\1,1\N,0,-97.9699656614,-14.5573147032,7.3614843861\C,0,-
 96.5437319963,-14.5713986753,7.0243125137\C,0,-96.3412351021,-14.43859
 61829,5.5226045728\O,0,-95.2185355987,-14.2186699682,5.0241990616\C,0,
 -95.8905699285,-15.9216595167,7.4482428743\C,0,-95.9628815455,-16.1347
 794961,8.9261117571\C,0,-96.7568388562,-17.0337433711,9.5997177987\C,0
 ,-95.2501766306,-15.3835396768,9.930132561\C,0,-95.6562190031,-15.8854
 328701,11.1959039463\C,0,-94.3082793837,-14.3414673573,9.8777146649\N,
 0,-96.5777377994,-16.8881226253,10.961110981\C,0,-95.1503654787,-15.37
 75757591,12.3968937343\C,0,-93.8037137179,-13.8328697156,11.0678152925
 \C,0,-94.2219918573,-14.3460643391,12.3138288044\H,0,-95.9717039188,-1
 3.7604953651,7.4976884278\H,0,-96.3967908317,-16.7336185926,6.91131002
 59\H,0,-94.8515185598,-15.9060745418,7.1013782752\H,0,-97.4273099977,-
 17.7865339267,9.2069575775\H,0,-97.0060946649,-17.4637777765,11.669494
 5876\H,0,-93.972573849,-13.9474139566,8.9214687454\H,0,-95.4689717879,
 -15.7737942987,13.3570676182\H,0,-93.0725774683,-13.0298891981,11.0435
 567633\H,0,-93.8080181066,-13.9289163538,13.2272538379\H,0,-98.1193278
 658,-15.1302648614,8.1915740189\H,0,-98.2795107453,-13.6183010987,7.59
 95759132\N,0,-97.425561908,-14.6133659876,4.7650999511\C,0,-97.3691574
 66,-14.7938549989,3.319376502\C,0,-96.0159717151,-15.4471751818,2.9600
 962018\O,0,-95.8270067756,-16.6107808646,3.2710103418\C,0,-98.51513803
 26,-15.7284571003,2.8465082094\C,0,-98.466510996,-15.9137468104,1.3141
 178055\C,0,-99.8822327425,-15.1861269197,3.2936794655\C,0,-99.36217553
 65,-17.0469196961,0.8003513134\H,0,-98.2666906838,-14.820895843,5.3012
 175849\H,0,-97.5013317527,-13.8295340772,2.8243721867\H,0,-98.33091837
 38,-16.7025449755,3.3167549803\H,0,-98.7507590714,-14.9656105416,0.832
 6890462\H,0,-97.436655802,-16.1215227854,1.0033100731\H,0,-100.0434057
 67,-14.1691404974,2.9146040276\H,0,-100.6877448757,-15.8170165173,2.90
 87685898\H,0,-100.0014518875,-15.1581888574,4.3821749421\H,0,-99.08667
 45925,-18.0002571803,1.2658498919\H,0,-99.2548015613,-17.1618118741,-0
 .2834811625\H,0,-100.4224243916,-16.8664748478,1.0060751278\N,0,-95.11
 22708653,-14.8300639449,2.0859612601\C,0,-94.595425796,-13.4613643052,
 1.9728577688\C,0,-93.2225908033,-13.2885547838,2.6758817927\O,0,-92.31
 35836648,-12.685985015,2.097473702\C,0,-95.574610894,-12.3431344638,2.
 3996605257\C,0,-95.074743286,-10.8888250923,2.2677899024\C,0,-94.74838
 0335,-10.3930802734,0.8492306578\N,0,-93.450416435,-10.9465513468,0.41
 88839377\C,0,-93.0611258354,-11.2467798764,-0.8151397953\N,0,-93.64731
 33413,-10.6960979732,-1.8984648647\N,0,-92.0873001004,-12.1660828242,-
 0.9809839341\O,0,-93.0165910117,-13.776452335,3.8740939152\H,0,-93.833
 9425121,-14.150901031,4.2918826443\H,0,-94.4325617677,-15.5409685328,1
 .8248163368\H,0,-94.3580140113,-13.3194163362,0.9123822672\H,0,-96.475
 5030146,-12.4533326619,1.7854779921\H,0,-95.8601369821,-12.5108201043,
 3.4392051395\H,0,-94.2064982751,-10.7107588207,2.9156778604\H,0,-95.86
 84513852,-10.2437577525,2.6597711554\H,0,-95.5286940219,-10.7046011147
 ,0.1430139193\H,0,-94.7016325531,-9.2977784802,0.8441821174\H,0,-92.89
 84404732,-11.4041217152,1.1571382811\H,0,-93.4359812393,-11.0273791477
 ,-2.8312276309\H,0,-94.2106054323,-9.8606622096,-1.8157566093\H,0,-91.
 7257508113,-12.634121449,-0.1533948729\H,0,-91.4971091955,-12.15224390
 68,-1.8030432068\\Version=ES64L-G16RevC.01\HF=-1582.234214\RMSD=7.283e
 -09\Dipole=0.3686297,3.9165993,-6.1376974\Quadrupole=21459.332466,-105
 05.8365742,-10953.4958917,4155.6053526,-525.9696476,-96.5091559\PG=C01
  [X(C23H36N7O4)]\\@
 The archive entry for this job was punched.



 WE LOSE BECAUSE WE WIN

 GAMBLERS,

 RECOLLECTING WHICH,

 TOSS THEIR DICE AGAIN....


                          EMILY DICKINSON  BOLTS OF MELODY NO. 533
 Job cpu time:       0 days  0 hours  2 minutes  9.0 seconds.
 Elapsed time:       0 days  0 hours  0 minutes 32.7 seconds.
 File lengths (MBytes):  RWF=    296 Int=      0 D2E=      0 Chk=     40 Scr=     16
 Normal termination of Gaussian 16 at Tue May 24 23:10:38 2022.
