 Entering Gaussian System, Link 0=/opt/software/Gaussian/g16-AVX-C.01/g16/g16
 Input=charge-conf-472.com
 Output=charge-conf-472.log
 Initial command:
 /opt/software/Gaussian/g16-AVX-C.01/g16/l1.exe "/mnt/gs18/scratch/users/kengmith/Gau-36128.inp" -scrdir="/mnt/gs18/scratch/users/kengmith/"
 Entering Link 1 = /opt/software/Gaussian/g16-AVX-C.01/g16/l1.exe PID=     36147.
  
 Copyright (c) 1988-2019, Gaussian, Inc.  All Rights Reserved.
  
 This is part of the Gaussian(R) 16 program.  It is based on
 the Gaussian(R) 09 system (copyright 2009, Gaussian, Inc.),
 the Gaussian(R) 03 system (copyright 2003, Gaussian, Inc.),
 the Gaussian(R) 98 system (copyright 1998, Gaussian, Inc.),
 the Gaussian(R) 94 system (copyright 1995, Gaussian, Inc.),
 the Gaussian 92(TM) system (copyright 1992, Gaussian, Inc.),
 the Gaussian 90(TM) system (copyright 1990, Gaussian, Inc.),
 the Gaussian 88(TM) system (copyright 1988, Gaussian, Inc.),
 the Gaussian 86(TM) system (copyright 1986, Carnegie Mellon
 University), and the Gaussian 82(TM) system (copyright 1983,
 Carnegie Mellon University). Gaussian is a federally registered
 trademark of Gaussian, Inc.
  
 This software contains proprietary and confidential information,
 including trade secrets, belonging to Gaussian, Inc.
  
 This software is provided under written license and may be
 used, copied, transmitted, or stored only in accord with that
 written license.
  
 The following legend is applicable only to US Government
 contracts under FAR:
  
                    RESTRICTED RIGHTS LEGEND
  
 Use, reproduction and disclosure by the US Government is
 subject to restrictions as set forth in subparagraphs (a)
 and (c) of the Commercial Computer Software - Restricted
 Rights clause in FAR 52.227-19.
  
 Gaussian, Inc.
 340 Quinnipiac St., Bldg. 40, Wallingford CT 06492
  
  
 ---------------------------------------------------------------
 Warning -- This program may not be used in any manner that
 competes with the business of Gaussian, Inc. or will provide
 assistance to any competitor of Gaussian, Inc.  The licensee
 of this program is prohibited from giving any competitor of
 Gaussian, Inc. access to this program.  By using this program,
 the user acknowledges that Gaussian, Inc. is engaged in the
 business of creating and licensing software in the field of
 computational chemistry and represents and warrants to the
 licensee that it is not a competitor of Gaussian, Inc. and that
 it will not use this program in any manner prohibited above.
 ---------------------------------------------------------------
  

 Cite this work as:
 Gaussian 16, Revision C.01,
 M. J. Frisch, G. W. Trucks, H. B. Schlegel, G. E. Scuseria, 
 M. A. Robb, J. R. Cheeseman, G. Scalmani, V. Barone, 
 G. A. Petersson, H. Nakatsuji, X. Li, M. Caricato, A. V. Marenich, 
 J. Bloino, B. G. Janesko, R. Gomperts, B. Mennucci, H. P. Hratchian, 
 J. V. Ortiz, A. F. Izmaylov, J. L. Sonnenberg, D. Williams-Young, 
 F. Ding, F. Lipparini, F. Egidi, J. Goings, B. Peng, A. Petrone, 
 T. Henderson, D. Ranasinghe, V. G. Zakrzewski, J. Gao, N. Rega, 
 G. Zheng, W. Liang, M. Hada, M. Ehara, K. Toyota, R. Fukuda, 
 J. Hasegawa, M. Ishida, T. Nakajima, Y. Honda, O. Kitao, H. Nakai, 
 T. Vreven, K. Throssell, J. A. Montgomery, Jr., J. E. Peralta, 
 F. Ogliaro, M. J. Bearpark, J. J. Heyd, E. N. Brothers, K. N. Kudin, 
 V. N. Staroverov, T. A. Keith, R. Kobayashi, J. Normand, 
 K. Raghavachari, A. P. Rendell, J. C. Burant, S. S. Iyengar, 
 J. Tomasi, M. Cossi, J. M. Millam, M. Klene, C. Adamo, R. Cammi, 
 J. W. Ochterski, R. L. Martin, K. Morokuma, O. Farkas, 
 J. B. Foresman, and D. J. Fox, Gaussian, Inc., Wallingford CT, 2019.
 
 ******************************************
 Gaussian 16:  ES64L-G16RevC.01  3-Jul-2019
                24-May-2022 
 ******************************************
 %mem=8gb
 %nproc=4
 Will use up to    4 processors via shared memory.
 %chk=conf-472.chk
 ----------------------------------------------------------------------
 # B3LYP/6-31G* empiricaldispersion=gd3 guess=read geom=check nosymm in
 tegral(ultrafinegrid)
 ----------------------------------------------------------------------
 1/29=2,38=1,172=1/1;
 2/12=2,15=1,40=1/2;
 3/5=1,6=6,7=1,11=2,14=-4,25=1,30=1,74=-5,75=-5,116=-2,124=31/1,2,3;
 4/5=1/1;
 5/5=2,38=6/2;
 6/7=2,8=2,9=2,10=2,28=1/1;
 99/5=1,9=1/99;
 ------------------------------------------------------
 Candidate Structure: Conf:472 Charge calc in gas phase
 ------------------------------------------------------
 Structure from the checkpoint file:  "conf-472.chk"
 Charge =  1 Multiplicity = 1
 Redundant internal coordinates found in file.  (old form).
 N,0,-93.4755064234,-14.5551210287,4.7373415141
 C,0,-94.5425893801,-15.1344563294,5.6346129292
 C,0,-95.5362620265,-15.7860130813,4.65106346
 O,0,-95.0951708327,-16.6531738026,3.9031336794
 C,0,-95.0063267838,-14.0659490688,6.6356144808
 C,0,-93.8524458983,-13.5511124086,7.4452117638
 C,0,-93.3026834574,-12.2902863095,7.3757266051
 C,0,-93.0681712409,-14.2920820697,8.4047287379
 C,0,-92.0595431591,-13.413453829,8.8832345726
 C,0,-93.1278129162,-15.603639903,8.9102308347
 N,0,-92.2267847718,-12.2039177294,8.2336937293
 C,0,-91.115968448,-13.8077530526,9.837587752
 C,0,-92.1931246081,-15.9997043286,9.8571565973
 C,0,-91.1968971837,-15.1105349734,10.3139011778
 H,0,-94.0670620767,-15.961352205,6.16910366
 H,0,-95.4903257762,-13.2421953768,6.1003761263
 H,0,-95.7570252357,-14.5361154624,7.2844298546
 H,0,-93.6215882095,-11.4365432604,6.7926860624
 H,0,-91.6944647385,-11.3673707029,8.4182976281
 H,0,-93.9019089404,-16.2925888338,8.5808637219
 H,0,-90.3526854665,-13.1225781192,10.1952302298
 H,0,-92.2292436323,-17.0075128191,10.259687264
 H,0,-90.481756201,-15.4502152029,11.0569936278
 H,0,-92.7317041571,-14.1382506545,5.308387427
 H,0,-93.1090238195,-15.3042111389,4.139550591
 N,0,-96.8061416043,-15.3351097918,4.6462669148
 C,0,-97.8427731173,-15.8915023375,3.7662521224
 C,0,-97.3790306553,-15.858798432,2.2833276314
 O,0,-97.3535333695,-16.8702197438,1.6029213665
 C,0,-98.3061337205,-17.3107185549,4.1772329527
 C,0,-99.6569486175,-17.6266365211,3.4971331047
 C,0,-98.4095235416,-17.4384584759,5.7032728835
 C,0,-100.0183408926,-19.1154537086,3.5141962121
 H,0,-97.049487264,-14.5438104892,5.2247217224
 H,0,-98.6964934757,-15.2144430923,3.8751474325
 H,0,-97.5541673477,-18.0126144064,3.8035496874
 H,0,-100.4475678906,-17.0437290682,3.9947614847
 H,0,-99.6231420172,-17.2953615178,2.4549894887
 H,0,-97.4374491908,-17.3271943653,6.1937355523
 H,0,-99.0896510322,-16.6840706011,6.121896602
 H,0,-98.800094178,-18.4218323558,5.9787422839
 H,0,-100.9724618853,-19.2881963741,3.0048550337
 H,0,-100.1146185952,-19.5086555095,4.532113225
 H,0,-99.2510736746,-19.7018557272,2.9960874722
 N,0,-96.9888412039,-14.6600040076,1.720247392
 C,0,-97.0727334112,-13.2614508894,2.144322681
 C,0,-96.0685438187,-12.9129282872,3.2744167126
 O,0,-96.4809409743,-12.3826028168,4.3279928261
 C,0,-98.5249289129,-12.7848655162,2.3657547624
 C,0,-98.7584211065,-11.2990841032,2.7207325892
 C,0,-97.9816568368,-10.2552566196,1.9044560454
 N,0,-96.5651658032,-10.2336669007,2.3216781123
 C,0,-95.5206996266,-10.0298451298,1.5177738267
 N,0,-95.6707937424,-9.2887845265,0.4038230471
 N,0,-94.3347290593,-10.5728032697,1.825357193
 O,0,-94.8347185417,-13.1112806455,2.9758792559
 H,0,-93.9241062936,-13.8192947324,4.0918522647
 H,0,-96.664145374,-14.8174528419,0.7747391141
 H,0,-96.6772954272,-12.7150125686,1.2799646035
 H,0,-99.0702666241,-13.0288920327,1.4459641802
 H,0,-98.9876803977,-13.3726939727,3.1627932678
 H,0,-98.5429319033,-11.1385151593,3.7807873136
 H,0,-99.8238342304,-11.0837800996,2.5811252566
 H,0,-98.0231853658,-10.4801352282,0.8317060889
 H,0,-98.4224061191,-9.2635881737,2.0605770955
 H,0,-96.3714078914,-10.6577954983,3.2295269252
 H,0,-94.9536251369,-9.2566487961,-0.3059383253
 H,0,-96.4476316189,-8.6502028506,0.3102336079
 H,0,-94.3218238394,-11.4744508574,2.3329299346
 H,0,-93.5066528974,-10.2990873934,1.3152312493
 Recover connectivity data from disk.
                           ----------------------------
                           !    Current Parameters    !
                           ! (Angstroms and Degrees)  !
 --------------------------                            --------------------------
 ! Name  Definition              Value                                          !
 --------------------------------------------------------------------------------
 ! R1    R(1,2)                  1.5098                                         !
 ! R2    R(1,24)                 1.0262                                         !
 ! R3    R(1,25)                 1.0261                                         !
 ! R4    R(2,3)                  1.5425                                         !
 ! R5    R(2,5)                  1.5358                                         !
 ! R6    R(2,15)                 1.0934                                         !
 ! R7    R(3,4)                  1.2272                                         !
 ! R8    R(3,26)                 1.3476                                         !
 ! R9    R(5,6)                  1.5006                                         !
 ! R10   R(5,16)                 1.0951                                         !
 ! R11   R(5,17)                 1.098                                          !
 ! R12   R(6,7)                  1.3772                                         !
 ! R13   R(6,8)                  1.4439                                         !
 ! R14   R(7,11)                 1.3788                                         !
 ! R15   R(7,18)                 1.0819                                         !
 ! R16   R(8,9)                  1.4207                                         !
 ! R17   R(8,10)                 1.4069                                         !
 ! R18   R(9,11)                 1.3831                                         !
 ! R19   R(9,12)                 1.3988                                         !
 ! R20   R(10,13)                1.3882                                         !
 ! R21   R(10,20)                1.0874                                         !
 ! R22   R(11,19)                1.0086                                         !
 ! R23   R(12,14)                1.3895                                         !
 ! R24   R(12,21)                1.0863                                         !
 ! R25   R(13,14)                1.4113                                         !
 ! R26   R(13,22)                1.0858                                         !
 ! R27   R(14,23)                1.0858                                         !
 ! R28   R(26,27)                1.4692                                         !
 ! R29   R(26,34)                1.0099                                         !
 ! R30   R(27,28)                1.5541                                         !
 ! R31   R(27,30)                1.5485                                         !
 ! R32   R(27,35)                1.095                                          !
 ! R33   R(28,29)                1.2193                                         !
 ! R34   R(28,45)                1.3807                                         !
 ! R35   R(30,31)                1.545                                          !
 ! R36   R(30,32)                1.5349                                         !
 ! R37   R(30,36)                1.0944                                         !
 ! R38   R(31,33)                1.5321                                         !
 ! R39   R(31,37)                1.1011                                         !
 ! R40   R(31,38)                1.0941                                         !
 ! R41   R(32,39)                1.0945                                         !
 ! R42   R(32,40)                1.0986                                         !
 ! R43   R(32,41)                1.0934                                         !
 ! R44   R(33,42)                1.0953                                         !
 ! R45   R(33,43)                1.0955                                         !
 ! R46   R(33,44)                1.0959                                         !
 ! R47   R(45,46)                1.4638                                         !
 ! R48   R(45,58)                1.012                                          !
 ! R49   R(46,47)                1.5514                                         !
 ! R50   R(46,49)                1.5444                                         !
 ! R51   R(46,59)                1.0964                                         !
 ! R52   R(47,48)                1.2495                                         !
 ! R53   R(47,56)                1.2848                                         !
 ! R54   R(49,50)                1.5453                                         !
 ! R55   R(49,60)                1.0968                                         !
 ! R56   R(49,61)                1.0931                                         !
 ! R57   R(50,51)                1.536                                          !
 ! R58   R(50,62)                1.0936                                         !
 ! R59   R(50,63)                1.0959                                         !
 ! R60   R(51,52)                1.4768                                         !
 ! R61   R(51,64)                1.0969                                         !
 ! R62   R(51,65)                1.0964                                         !
 ! R63   R(52,53)                1.3337                                         !
 ! R64   R(52,66)                1.0206                                         !
 ! R65   R(53,54)                1.3463                                         !
 ! R66   R(53,55)                1.3401                                         !
 ! R67   R(54,67)                1.0095                                         !
 ! R68   R(54,68)                1.01                                           !
 ! R69   R(55,69)                1.0348                                         !
 ! R70   R(55,70)                1.0104                                         !
 ! R71   R(56,57)                1.605                                          !
 ! A1    A(2,1,24)             109.7215                                         !
 ! A2    A(2,1,25)             108.5754                                         !
 ! A3    A(24,1,25)            111.216                                          !
 ! A4    A(1,2,3)              103.7948                                         !
 ! A5    A(1,2,5)              109.4995                                         !
 ! A6    A(1,2,15)             105.8622                                         !
 ! A7    A(3,2,5)              120.9943                                         !
 ! A8    A(3,2,15)             105.8078                                         !
 ! A9    A(5,2,15)             109.8071                                         !
 ! A10   A(2,3,4)              117.1012                                         !
 ! A11   A(2,3,26)             117.9041                                         !
 ! A12   A(4,3,26)             124.9593                                         !
 ! A13   A(2,5,6)              110.986                                          !
 ! A14   A(2,5,16)             109.7684                                         !
 ! A15   A(2,5,17)             107.0777                                         !
 ! A16   A(6,5,16)             110.209                                          !
 ! A17   A(6,5,17)             110.7216                                         !
 ! A18   A(16,5,17)            107.9831                                         !
 ! A19   A(5,6,7)              126.4271                                         !
 ! A20   A(5,6,8)              126.8781                                         !
 ! A21   A(7,6,8)              106.6492                                         !
 ! A22   A(6,7,11)             109.7207                                         !
 ! A23   A(6,7,18)             129.1937                                         !
 ! A24   A(11,7,18)            121.0582                                         !
 ! A25   A(6,8,9)              106.9826                                         !
 ! A26   A(6,8,10)             133.9605                                         !
 ! A27   A(9,8,10)             119.0544                                         !
 ! A28   A(8,9,11)             107.2676                                         !
 ! A29   A(8,9,12)             122.3024                                         !
 ! A30   A(11,9,12)            130.4297                                         !
 ! A31   A(8,10,13)            118.8502                                         !
 ! A32   A(8,10,20)            120.7982                                         !
 ! A33   A(13,10,20)           120.3426                                         !
 ! A34   A(7,11,9)             109.3786                                         !
 ! A35   A(7,11,19)            125.2877                                         !
 ! A36   A(9,11,19)            125.1403                                         !
 ! A37   A(9,12,14)            117.3156                                         !
 ! A38   A(9,12,21)            121.3876                                         !
 ! A39   A(14,12,21)           121.2964                                         !
 ! A40   A(10,13,14)           121.0835                                         !
 ! A41   A(10,13,22)           119.6879                                         !
 ! A42   A(14,13,22)           119.2276                                         !
 ! A43   A(12,14,13)           121.3928                                         !
 ! A44   A(12,14,23)           119.3112                                         !
 ! A45   A(13,14,23)           119.2953                                         !
 ! A46   A(3,26,27)            122.7046                                         !
 ! A47   A(3,26,34)            119.1559                                         !
 ! A48   A(27,26,34)           118.0196                                         !
 ! A49   A(26,27,28)           110.6727                                         !
 ! A50   A(26,27,30)           113.5311                                         !
 ! A51   A(26,27,35)           104.8545                                         !
 ! A52   A(28,27,30)           111.213                                          !
 ! A53   A(28,27,35)           108.3319                                         !
 ! A54   A(30,27,35)           107.8784                                         !
 ! A55   A(27,28,29)           121.4183                                         !
 ! A56   A(27,28,45)           119.4548                                         !
 ! A57   A(29,28,45)           119.1268                                         !
 ! A58   A(27,30,31)           109.4025                                         !
 ! A59   A(27,30,32)           111.1198                                         !
 ! A60   A(27,30,36)           106.9525                                         !
 ! A61   A(31,30,32)           111.2077                                         !
 ! A62   A(31,30,36)           108.6201                                         !
 ! A63   A(32,30,36)           109.4139                                         !
 ! A64   A(30,31,33)           113.5793                                         !
 ! A65   A(30,31,37)           108.6981                                         !
 ! A66   A(30,31,38)           109.2916                                         !
 ! A67   A(33,31,37)           109.8774                                         !
 ! A68   A(33,31,38)           108.1877                                         !
 ! A69   A(37,31,38)           107.0003                                         !
 ! A70   A(30,32,39)           112.1643                                         !
 ! A71   A(30,32,40)           111.31                                           !
 ! A72   A(30,32,41)           110.4514                                         !
 ! A73   A(39,32,40)           108.0161                                         !
 ! A74   A(39,32,41)           107.2055                                         !
 ! A75   A(40,32,41)           107.4845                                         !
 ! A76   A(31,33,42)           110.7048                                         !
 ! A77   A(31,33,43)           112.3254                                         !
 ! A78   A(31,33,44)           110.4597                                         !
 ! A79   A(42,33,43)           107.3944                                         !
 ! A80   A(42,33,44)           107.7973                                         !
 ! A81   A(43,33,44)           107.9853                                         !
 ! A82   A(28,45,46)           134.0408                                         !
 ! A83   A(28,45,58)           109.6697                                         !
 ! A84   A(46,45,58)           115.9562                                         !
 ! A85   A(45,46,47)           112.8645                                         !
 ! A86   A(45,46,49)           112.9708                                         !
 ! A87   A(45,46,59)           103.1269                                         !
 ! A88   A(47,46,49)           115.777                                          !
 ! A89   A(47,46,59)           103.2291                                         !
 ! A90   A(49,46,59)           107.3604                                         !
 ! A91   A(46,47,48)           119.7292                                         !
 ! A92   A(46,47,56)           114.6853                                         !
 ! A93   A(48,47,56)           125.3364                                         !
 ! A94   A(46,49,50)           118.1459                                         !
 ! A95   A(46,49,60)           106.1789                                         !
 ! A96   A(46,49,61)           109.6734                                         !
 ! A97   A(50,49,60)           109.3555                                         !
 ! A98   A(50,49,61)           106.5929                                         !
 ! A99   A(60,49,61)           106.3399                                         !
 ! A100  A(49,50,51)           117.0589                                         !
 ! A101  A(49,50,62)           109.5155                                         !
 ! A102  A(49,50,63)           107.85                                           !
 ! A103  A(51,50,62)           108.4036                                         !
 ! A104  A(51,50,63)           106.884                                          !
 ! A105  A(62,50,63)           106.6312                                         !
 ! A106  A(50,51,52)           110.1727                                         !
 ! A107  A(50,51,64)           111.1789                                         !
 ! A108  A(50,51,65)           109.6155                                         !
 ! A109  A(52,51,64)           108.3981                                         !
 ! A110  A(52,51,65)           109.3982                                         !
 ! A111  A(64,51,65)           108.0284                                         !
 ! A112  A(51,52,53)           125.6686                                         !
 ! A113  A(51,52,66)           115.2977                                         !
 ! A114  A(53,52,66)           116.8086                                         !
 ! A115  A(52,53,54)           119.7057                                         !
 ! A116  A(52,53,55)           119.5243                                         !
 ! A117  A(54,53,55)           120.7688                                         !
 ! A118  A(53,54,67)           121.3352                                         !
 ! A119  A(53,54,68)           120.694                                          !
 ! A120  A(67,54,68)           117.4613                                         !
 ! A121  A(53,55,69)           118.4667                                         !
 ! A122  A(53,55,70)           119.9773                                         !
 ! A123  A(69,55,70)           118.2607                                         !
 ! A124  A(47,56,57)           116.8329                                         !
 ! D1    D(24,1,2,3)          -176.9101                                         !
 ! D2    D(24,1,2,5)            52.5894                                         !
 ! D3    D(24,1,2,15)          -65.7257                                         !
 ! D4    D(25,1,2,3)           -55.1725                                         !
 ! D5    D(25,1,2,5)           174.327                                          !
 ! D6    D(25,1,2,15)           56.012                                          !
 ! D7    D(1,2,3,4)             58.3424                                         !
 ! D8    D(1,2,3,26)          -119.6014                                         !
 ! D9    D(5,2,3,4)           -178.3963                                         !
 ! D10   D(5,2,3,26)             3.6599                                         !
 ! D11   D(15,2,3,4)           -52.8818                                         !
 ! D12   D(15,2,3,26)          129.1744                                         !
 ! D13   D(1,2,5,6)            -57.4119                                         !
 ! D14   D(1,2,5,16)            64.6623                                         !
 ! D15   D(1,2,5,17)          -178.3617                                         !
 ! D16   D(3,2,5,6)           -177.9298                                         !
 ! D17   D(3,2,5,16)           -55.8556                                         !
 ! D18   D(3,2,5,17)            61.1203                                         !
 ! D19   D(15,2,5,6)            58.4195                                         !
 ! D20   D(15,2,5,16)         -179.5062                                         !
 ! D21   D(15,2,5,17)          -62.5303                                         !
 ! D22   D(2,3,26,27)         -179.1716                                         !
 ! D23   D(2,3,26,34)            4.8892                                         !
 ! D24   D(4,3,26,27)            3.0619                                         !
 ! D25   D(4,3,26,34)         -172.8773                                         !
 ! D26   D(2,5,6,7)            111.1326                                         !
 ! D27   D(2,5,6,8)            -66.0786                                         !
 ! D28   D(16,5,6,7)           -10.6847                                         !
 ! D29   D(16,5,6,8)           172.1042                                         !
 ! D30   D(17,5,6,7)          -130.0909                                         !
 ! D31   D(17,5,6,8)            52.698                                          !
 ! D32   D(5,6,7,11)          -177.7168                                         !
 ! D33   D(5,6,7,18)             4.2019                                         !
 ! D34   D(8,6,7,11)            -0.045                                          !
 ! D35   D(8,6,7,18)          -178.1263                                         !
 ! D36   D(5,6,8,9)            177.9051                                         !
 ! D37   D(5,6,8,10)            -2.6843                                         !
 ! D38   D(7,6,8,9)              0.247                                          !
 ! D39   D(7,6,8,10)           179.6576                                         !
 ! D40   D(6,7,11,9)            -0.1823                                         !
 ! D41   D(6,7,11,19)         -175.3329                                         !
 ! D42   D(18,7,11,9)          178.0819                                         !
 ! D43   D(18,7,11,19)           2.9314                                         !
 ! D44   D(6,8,9,11)            -0.3554                                         !
 ! D45   D(6,8,9,12)           179.8219                                         !
 ! D46   D(10,8,9,11)         -179.8701                                         !
 ! D47   D(10,8,9,12)            0.3072                                         !
 ! D48   D(6,8,10,13)         -179.6772                                         !
 ! D49   D(6,8,10,20)           -0.7683                                         !
 ! D50   D(9,8,10,13)           -0.322                                          !
 ! D51   D(9,8,10,20)          178.5869                                         !
 ! D52   D(8,9,11,7)             0.3352                                         !
 ! D53   D(8,9,11,19)          175.4946                                         !
 ! D54   D(12,9,11,7)         -179.8617                                         !
 ! D55   D(12,9,11,19)          -4.7023                                         !
 ! D56   D(8,9,12,14)           -0.0448                                         !
 ! D57   D(8,9,12,21)         -179.8206                                         !
 ! D58   D(11,9,12,14)        -179.8224                                         !
 ! D59   D(11,9,12,21)           0.4019                                         !
 ! D60   D(8,10,13,14)           0.0899                                         !
 ! D61   D(8,10,13,22)         179.7336                                         !
 ! D62   D(20,10,13,14)       -178.8242                                         !
 ! D63   D(20,10,13,22)          0.8196                                         !
 ! D64   D(9,12,14,13)          -0.1978                                         !
 ! D65   D(9,12,14,23)        -179.8794                                         !
 ! D66   D(21,12,14,13)        179.5782                                         !
 ! D67   D(21,12,14,23)         -0.1034                                         !
 ! D68   D(10,13,14,12)          0.1793                                         !
 ! D69   D(10,13,14,23)        179.8609                                         !
 ! D70   D(22,13,14,12)       -179.4661                                         !
 ! D71   D(22,13,14,23)          0.2156                                         !
 ! D72   D(3,26,27,28)         -54.1124                                         !
 ! D73   D(3,26,27,30)          71.7699                                         !
 ! D74   D(3,26,27,35)        -170.7193                                         !
 ! D75   D(34,26,27,28)        121.8706                                         !
 ! D76   D(34,26,27,30)       -112.2472                                         !
 ! D77   D(34,26,27,35)          5.2637                                         !
 ! D78   D(26,27,28,29)        124.2722                                         !
 ! D79   D(26,27,28,45)        -55.8338                                         !
 ! D80   D(30,27,28,29)         -2.8984                                         !
 ! D81   D(30,27,28,45)        176.9957                                         !
 ! D82   D(35,27,28,29)       -121.2917                                         !
 ! D83   D(35,27,28,45)         58.6023                                         !
 ! D84   D(26,27,30,31)        162.6328                                         !
 ! D85   D(26,27,30,32)         39.4582                                         !
 ! D86   D(26,27,30,36)        -79.8991                                         !
 ! D87   D(28,27,30,31)        -71.7723                                         !
 ! D88   D(28,27,30,32)        165.0531                                         !
 ! D89   D(28,27,30,36)         45.6958                                         !
 ! D90   D(35,27,30,31)         46.8937                                         !
 ! D91   D(35,27,30,32)        -76.2809                                         !
 ! D92   D(35,27,30,36)        164.3619                                         !
 ! D93   D(27,28,45,46)        -10.5887                                         !
 ! D94   D(27,28,45,58)        176.5337                                         !
 ! D95   D(29,28,45,46)        169.3078                                         !
 ! D96   D(29,28,45,58)         -3.5699                                         !
 ! D97   D(27,30,31,33)        164.0688                                         !
 ! D98   D(27,30,31,37)        -73.2903                                         !
 ! D99   D(27,30,31,38)         43.1649                                         !
 ! D100  D(32,30,31,33)        -72.8087                                         !
 ! D101  D(32,30,31,37)         49.8322                                         !
 ! D102  D(32,30,31,38)        166.2874                                         !
 ! D103  D(36,30,31,33)         47.6533                                         !
 ! D104  D(36,30,31,37)        170.2942                                         !
 ! D105  D(36,30,31,38)        -73.2506                                         !
 ! D106  D(27,30,32,39)        -64.2038                                         !
 ! D107  D(27,30,32,40)         56.9529                                         !
 ! D108  D(27,30,32,41)        176.2713                                         !
 ! D109  D(31,30,32,39)        173.664                                          !
 ! D110  D(31,30,32,40)        -65.1794                                         !
 ! D111  D(31,30,32,41)         54.139                                          !
 ! D112  D(36,30,32,39)         53.6715                                         !
 ! D113  D(36,30,32,40)        174.8282                                         !
 ! D114  D(36,30,32,41)        -65.8534                                         !
 ! D115  D(30,31,33,42)       -178.9328                                         !
 ! D116  D(30,31,33,43)         61.0212                                         !
 ! D117  D(30,31,33,44)        -59.6076                                         !
 ! D118  D(37,31,33,42)         59.0787                                         !
 ! D119  D(37,31,33,43)        -60.9673                                         !
 ! D120  D(37,31,33,44)        178.404                                          !
 ! D121  D(38,31,33,42)        -57.4108                                         !
 ! D122  D(38,31,33,43)       -177.4568                                         !
 ! D123  D(38,31,33,44)         61.9144                                         !
 ! D124  D(28,45,46,47)         73.4017                                         !
 ! D125  D(28,45,46,49)        -60.3346                                         !
 ! D126  D(28,45,46,59)       -175.9052                                         !
 ! D127  D(58,45,46,47)       -114.0593                                         !
 ! D128  D(58,45,46,49)        112.2043                                         !
 ! D129  D(58,45,46,59)         -3.3662                                         !
 ! D130  D(45,46,47,48)       -126.5037                                         !
 ! D131  D(45,46,47,56)         58.927                                          !
 ! D132  D(49,46,47,48)          5.8717                                         !
 ! D133  D(49,46,47,56)       -168.6976                                         !
 ! D134  D(59,46,47,48)        122.8667                                         !
 ! D135  D(59,46,47,56)        -51.7026                                         !
 ! D136  D(45,46,49,50)       -175.8395                                         !
 ! D137  D(45,46,49,60)        -52.7063                                         !
 ! D138  D(45,46,49,61)         61.802                                          !
 ! D139  D(47,46,49,50)         51.8344                                         !
 ! D140  D(47,46,49,60)        174.9676                                         !
 ! D141  D(47,46,49,61)        -70.5241                                         !
 ! D142  D(59,46,49,50)        -62.8257                                         !
 ! D143  D(59,46,49,60)         60.3074                                         !
 ! D144  D(59,46,49,61)        174.8158                                         !
 ! D145  D(46,47,56,57)       -136.2941                                         !
 ! D146  D(48,47,56,57)         49.488                                          !
 ! D147  D(46,49,50,51)         44.8599                                         !
 ! D148  D(46,49,50,62)        -79.0003                                         !
 ! D149  D(46,49,50,63)        165.3324                                         !
 ! D150  D(60,49,50,51)        -76.6647                                         !
 ! D151  D(60,49,50,62)        159.4752                                         !
 ! D152  D(60,49,50,63)         43.8079                                         !
 ! D153  D(61,49,50,51)        168.7643                                         !
 ! D154  D(61,49,50,62)         44.9042                                         !
 ! D155  D(61,49,50,63)        -70.7631                                         !
 ! D156  D(49,50,51,52)        -74.5386                                         !
 ! D157  D(49,50,51,64)         45.6564                                         !
 ! D158  D(49,50,51,65)        165.0258                                         !
 ! D159  D(62,50,51,52)         49.8848                                         !
 ! D160  D(62,50,51,64)        170.0799                                         !
 ! D161  D(62,50,51,65)        -70.5507                                         !
 ! D162  D(63,50,51,52)        164.4806                                         !
 ! D163  D(63,50,51,64)        -75.3244                                         !
 ! D164  D(63,50,51,65)         44.045                                          !
 ! D165  D(50,51,52,53)        144.2852                                         !
 ! D166  D(50,51,52,66)        -18.1328                                         !
 ! D167  D(64,51,52,53)         22.4266                                         !
 ! D168  D(64,51,52,66)       -139.9914                                         !
 ! D169  D(65,51,52,53)        -95.1486                                         !
 ! D170  D(65,51,52,66)        102.4334                                         !
 ! D171  D(51,52,53,54)         28.2506                                         !
 ! D172  D(51,52,53,55)       -151.3558                                         !
 ! D173  D(66,52,53,54)       -169.5671                                         !
 ! D174  D(66,52,53,55)         10.8265                                         !
 ! D175  D(52,53,54,67)       -168.618                                          !
 ! D176  D(52,53,54,68)         19.7777                                         !
 ! D177  D(55,53,54,67)         10.9834                                         !
 ! D178  D(55,53,54,68)       -160.6209                                         !
 ! D179  D(52,53,55,69)         31.2506                                         !
 ! D180  D(52,53,55,70)       -169.5953                                         !
 ! D181  D(54,53,55,69)       -148.3515                                         !
 ! D182  D(54,53,55,70)         10.8026                                         !
 --------------------------------------------------------------------------------
 Symmetry turned off by external request.
 Stoichiometry    C23H36N7O4(1+)
 Framework group  C1[X(C23H36N7O4)]
 Deg. of freedom   204
 Full point group                 C1      NOp   1
                          Input orientation:                          
 ---------------------------------------------------------------------
 Center     Atomic      Atomic             Coordinates (Angstroms)
 Number     Number       Type             X           Y           Z
 ---------------------------------------------------------------------
      1          7           0      -93.475506  -14.555121    4.737342
      2          6           0      -94.542589  -15.134456    5.634613
      3          6           0      -95.536262  -15.786013    4.651063
      4          8           0      -95.095171  -16.653174    3.903134
      5          6           0      -95.006327  -14.065949    6.635614
      6          6           0      -93.852446  -13.551112    7.445212
      7          6           0      -93.302683  -12.290286    7.375727
      8          6           0      -93.068171  -14.292082    8.404729
      9          6           0      -92.059543  -13.413454    8.883235
     10          6           0      -93.127813  -15.603640    8.910231
     11          7           0      -92.226785  -12.203918    8.233694
     12          6           0      -91.115968  -13.807753    9.837588
     13          6           0      -92.193125  -15.999704    9.857157
     14          6           0      -91.196897  -15.110535   10.313901
     15          1           0      -94.067062  -15.961352    6.169104
     16          1           0      -95.490326  -13.242195    6.100376
     17          1           0      -95.757025  -14.536115    7.284430
     18          1           0      -93.621588  -11.436543    6.792686
     19          1           0      -91.694465  -11.367371    8.418298
     20          1           0      -93.901909  -16.292589    8.580864
     21          1           0      -90.352685  -13.122578   10.195230
     22          1           0      -92.229244  -17.007513   10.259687
     23          1           0      -90.481756  -15.450215   11.056994
     24          1           0      -92.731704  -14.138251    5.308387
     25          1           0      -93.109024  -15.304211    4.139551
     26          7           0      -96.806142  -15.335110    4.646267
     27          6           0      -97.842773  -15.891502    3.766252
     28          6           0      -97.379031  -15.858798    2.283328
     29          8           0      -97.353533  -16.870220    1.602921
     30          6           0      -98.306134  -17.310719    4.177233
     31          6           0      -99.656949  -17.626637    3.497133
     32          6           0      -98.409524  -17.438458    5.703273
     33          6           0     -100.018341  -19.115454    3.514196
     34          1           0      -97.049487  -14.543810    5.224722
     35          1           0      -98.696493  -15.214443    3.875147
     36          1           0      -97.554167  -18.012614    3.803550
     37          1           0     -100.447568  -17.043729    3.994761
     38          1           0      -99.623142  -17.295362    2.454989
     39          1           0      -97.437449  -17.327194    6.193736
     40          1           0      -99.089651  -16.684071    6.121897
     41          1           0      -98.800094  -18.421832    5.978742
     42          1           0     -100.972462  -19.288196    3.004855
     43          1           0     -100.114619  -19.508656    4.532113
     44          1           0      -99.251074  -19.701856    2.996087
     45          7           0      -96.988841  -14.660004    1.720247
     46          6           0      -97.072733  -13.261451    2.144323
     47          6           0      -96.068544  -12.912928    3.274417
     48          8           0      -96.480941  -12.382603    4.327993
     49          6           0      -98.524929  -12.784866    2.365755
     50          6           0      -98.758421  -11.299084    2.720733
     51          6           0      -97.981657  -10.255257    1.904456
     52          7           0      -96.565166  -10.233667    2.321678
     53          6           0      -95.520700  -10.029845    1.517774
     54          7           0      -95.670794   -9.288785    0.403823
     55          7           0      -94.334729  -10.572803    1.825357
     56          8           0      -94.834719  -13.111281    2.975879
     57          1           0      -93.924106  -13.819295    4.091852
     58          1           0      -96.664145  -14.817453    0.774739
     59          1           0      -96.677295  -12.715013    1.279965
     60          1           0      -99.070267  -13.028892    1.445964
     61          1           0      -98.987680  -13.372694    3.162793
     62          1           0      -98.542932  -11.138515    3.780787
     63          1           0      -99.823834  -11.083780    2.581125
     64          1           0      -98.023185  -10.480135    0.831706
     65          1           0      -98.422406   -9.263588    2.060577
     66          1           0      -96.371408  -10.657795    3.229527
     67          1           0      -94.953625   -9.256649   -0.305938
     68          1           0      -96.447632   -8.650203    0.310234
     69          1           0      -94.321824  -11.474451    2.332930
     70          1           0      -93.506653  -10.299087    1.315231
 ---------------------------------------------------------------------
 Rotational constants (GHZ):           0.1339806           0.0838374           0.0571057
 Standard basis: 6-31G(d) (6D, 7F)
   582 basis functions,  1096 primitive gaussians,   582 cartesian basis functions
   127 alpha electrons      127 beta electrons
       nuclear repulsion energy      3848.9834622704 Hartrees.
 NAtoms=   70 NActive=   70 NUniq=   70 SFac= 1.00D+00 NAtFMM=   60 NAOKFM=T Big=T
 Integral buffers will be    131072 words long.
 Raffenetti 2 integral format.
 Two-electron integral symmetry is turned off.
 Nuclear repulsion after empirical dispersion term =     3848.8883361910 Hartrees.
 One-electron integrals computed using PRISM.
 NBasis=   582 RedAO= T EigKep=  3.76D-04  NBF=   582
 NBsUse=   582 1.00D-06 EigRej= -1.00D+00 NBFU=   582
 Initial guess from the checkpoint file:  "conf-472.chk"
 B after Tr=     0.000000    0.000000    0.000000
         Rot=    1.000000    0.000000    0.000000    0.000000 Ang=   0.00 deg.
 Requested convergence on RMS density matrix=1.00D-08 within 128 cycles.
 Requested convergence on MAX density matrix=1.00D-06.
 Requested convergence on             energy=1.00D-06.
 No special actions if energy rises.
 SCF Done:  E(RB3LYP) =  -1582.24262488     A.U. after    1 cycles
            NFock=  1  Conv=0.90D-08     -V/T= 2.0095

 **********************************************************************

            Population analysis using the SCF Density.

 **********************************************************************

 Alpha  occ. eigenvalues --  -19.22063 -19.21552 -19.21497 -19.18851 -14.54047
 Alpha  occ. eigenvalues --  -14.52329 -14.50677 -14.50328 -14.46962 -14.46365
 Alpha  occ. eigenvalues --  -14.44015 -10.47653 -10.39497 -10.39141 -10.36730
 Alpha  occ. eigenvalues --  -10.35901 -10.35569 -10.33292 -10.32032 -10.31461
 Alpha  occ. eigenvalues --  -10.30403 -10.29916 -10.29888 -10.28988 -10.27933
 Alpha  occ. eigenvalues --  -10.27089 -10.26900 -10.26839 -10.26284 -10.25961
 Alpha  occ. eigenvalues --  -10.25557 -10.24142 -10.23799 -10.22439  -1.16295
 Alpha  occ. eigenvalues --   -1.15096  -1.14068  -1.11121  -1.09004  -1.06818
 Alpha  occ. eigenvalues --   -1.06146  -1.05295  -1.04100  -1.02728  -1.00003
 Alpha  occ. eigenvalues --   -0.92235  -0.90717  -0.90585  -0.88050  -0.85501
 Alpha  occ. eigenvalues --   -0.84871  -0.81777  -0.81288  -0.80245  -0.79404
 Alpha  occ. eigenvalues --   -0.77758  -0.77323  -0.76450  -0.73510  -0.71533
 Alpha  occ. eigenvalues --   -0.70633  -0.70608  -0.69573  -0.69362  -0.68729
 Alpha  occ. eigenvalues --   -0.68131  -0.67231  -0.66432  -0.65462  -0.64937
 Alpha  occ. eigenvalues --   -0.64541  -0.62841  -0.62475  -0.62005  -0.61230
 Alpha  occ. eigenvalues --   -0.60157  -0.59811  -0.59671  -0.57641  -0.57119
 Alpha  occ. eigenvalues --   -0.56361  -0.55389  -0.55107  -0.54848  -0.54256
 Alpha  occ. eigenvalues --   -0.53456  -0.53134  -0.52728  -0.52079  -0.51704
 Alpha  occ. eigenvalues --   -0.51425  -0.51117  -0.50739  -0.50681  -0.49912
 Alpha  occ. eigenvalues --   -0.49154  -0.48893  -0.48607  -0.48249  -0.47572
 Alpha  occ. eigenvalues --   -0.47161  -0.46429  -0.46205  -0.45523  -0.45241
 Alpha  occ. eigenvalues --   -0.44496  -0.44015  -0.43516  -0.43400  -0.42980
 Alpha  occ. eigenvalues --   -0.41729  -0.41583  -0.41510  -0.40309  -0.39963
 Alpha  occ. eigenvalues --   -0.38667  -0.38339  -0.38253  -0.37019  -0.36414
 Alpha  occ. eigenvalues --   -0.35606  -0.35514  -0.34971  -0.32498  -0.32045
 Alpha  occ. eigenvalues --   -0.30687  -0.29206
 Alpha virt. eigenvalues --   -0.12602  -0.09682  -0.09479  -0.08713  -0.07483
 Alpha virt. eigenvalues --   -0.06122  -0.05708  -0.04063  -0.04012  -0.02833
 Alpha virt. eigenvalues --   -0.02291  -0.01392  -0.00797  -0.00658   0.00083
 Alpha virt. eigenvalues --    0.00628   0.01031   0.01835   0.03172   0.03424
 Alpha virt. eigenvalues --    0.03476   0.03982   0.04309   0.04705   0.04800
 Alpha virt. eigenvalues --    0.05375   0.06143   0.06770   0.07030   0.07203
 Alpha virt. eigenvalues --    0.07599   0.07810   0.07915   0.08463   0.09091
 Alpha virt. eigenvalues --    0.09235   0.09643   0.10425   0.10572   0.10805
 Alpha virt. eigenvalues --    0.11091   0.11403   0.11644   0.12484   0.12776
 Alpha virt. eigenvalues --    0.13072   0.13466   0.13631   0.14045   0.14703
 Alpha virt. eigenvalues --    0.15008   0.15403   0.16122   0.16596   0.16857
 Alpha virt. eigenvalues --    0.17642   0.17990   0.18708   0.19056   0.19381
 Alpha virt. eigenvalues --    0.20705   0.21487   0.22263   0.23539   0.23803
 Alpha virt. eigenvalues --    0.23856   0.25305   0.26048   0.26561   0.27235
 Alpha virt. eigenvalues --    0.28742   0.29168   0.29772   0.31352   0.32489
 Alpha virt. eigenvalues --    0.34323   0.35343   0.37216   0.37874   0.38587
 Alpha virt. eigenvalues --    0.40717   0.41114   0.41433   0.41760   0.41959
 Alpha virt. eigenvalues --    0.42536   0.43328   0.43637   0.44171   0.44936
 Alpha virt. eigenvalues --    0.45373   0.45809   0.46078   0.46877   0.47153
 Alpha virt. eigenvalues --    0.47654   0.48079   0.48259   0.48650   0.49109
 Alpha virt. eigenvalues --    0.49788   0.50076   0.50478   0.50965   0.51493
 Alpha virt. eigenvalues --    0.52012   0.52660   0.52788   0.53136   0.53564
 Alpha virt. eigenvalues --    0.53649   0.54134   0.54323   0.54809   0.54866
 Alpha virt. eigenvalues --    0.55366   0.55765   0.56582   0.56976   0.57245
 Alpha virt. eigenvalues --    0.57726   0.58235   0.59244   0.59728   0.60278
 Alpha virt. eigenvalues --    0.60812   0.61047   0.61391   0.61913   0.63171
 Alpha virt. eigenvalues --    0.63941   0.64501   0.65028   0.65629   0.66389
 Alpha virt. eigenvalues --    0.66961   0.67721   0.68641   0.69132   0.70511
 Alpha virt. eigenvalues --    0.70939   0.71303   0.71527   0.72273   0.72399
 Alpha virt. eigenvalues --    0.73230   0.73930   0.74065   0.74668   0.75112
 Alpha virt. eigenvalues --    0.75379   0.75849   0.76067   0.76248   0.77233
 Alpha virt. eigenvalues --    0.77511   0.77838   0.78044   0.78358   0.78793
 Alpha virt. eigenvalues --    0.78850   0.79047   0.79365   0.79959   0.80446
 Alpha virt. eigenvalues --    0.80900   0.81489   0.82199   0.82576   0.82747
 Alpha virt. eigenvalues --    0.83425   0.83955   0.84512   0.84553   0.85037
 Alpha virt. eigenvalues --    0.85215   0.86108   0.86524   0.86620   0.86970
 Alpha virt. eigenvalues --    0.87606   0.88228   0.88858   0.89277   0.89791
 Alpha virt. eigenvalues --    0.90413   0.90877   0.91489   0.92055   0.92770
 Alpha virt. eigenvalues --    0.93285   0.93826   0.94303   0.95048   0.95558
 Alpha virt. eigenvalues --    0.96213   0.97162   0.97506   0.98388   0.98581
 Alpha virt. eigenvalues --    0.99602   1.00039   1.00810   1.01995   1.03585
 Alpha virt. eigenvalues --    1.04036   1.04784   1.05709   1.06287   1.07628
 Alpha virt. eigenvalues --    1.08706   1.09469   1.10299   1.10990   1.11919
 Alpha virt. eigenvalues --    1.13701   1.14150   1.14675   1.15672   1.16438
 Alpha virt. eigenvalues --    1.17109   1.17639   1.18600   1.19944   1.21439
 Alpha virt. eigenvalues --    1.21817   1.22158   1.23520   1.24976   1.25140
 Alpha virt. eigenvalues --    1.25898   1.27087   1.27376   1.29754   1.30331
 Alpha virt. eigenvalues --    1.30708   1.31505   1.32908   1.33352   1.34782
 Alpha virt. eigenvalues --    1.35892   1.36454   1.36806   1.38382   1.39085
 Alpha virt. eigenvalues --    1.40080   1.40873   1.41801   1.42342   1.42682
 Alpha virt. eigenvalues --    1.43599   1.44858   1.45553   1.46475   1.47176
 Alpha virt. eigenvalues --    1.48790   1.49532   1.50103   1.52053   1.53152
 Alpha virt. eigenvalues --    1.53751   1.54014   1.54158   1.55292   1.57547
 Alpha virt. eigenvalues --    1.58626   1.60203   1.61505   1.61885   1.63215
 Alpha virt. eigenvalues --    1.63911   1.65007   1.66718   1.67176   1.67746
 Alpha virt. eigenvalues --    1.68046   1.68406   1.69808   1.70004   1.70711
 Alpha virt. eigenvalues --    1.71232   1.71737   1.72974   1.73552   1.74791
 Alpha virt. eigenvalues --    1.75394   1.76327   1.77223   1.77647   1.78699
 Alpha virt. eigenvalues --    1.79159   1.80185   1.80916   1.81066   1.81664
 Alpha virt. eigenvalues --    1.82345   1.82650   1.83330   1.83486   1.84229
 Alpha virt. eigenvalues --    1.84245   1.85286   1.86215   1.86691   1.87010
 Alpha virt. eigenvalues --    1.87464   1.87834   1.88836   1.89669   1.90114
 Alpha virt. eigenvalues --    1.90698   1.91505   1.92280   1.92517   1.93141
 Alpha virt. eigenvalues --    1.93966   1.94620   1.95286   1.95611   1.95778
 Alpha virt. eigenvalues --    1.97019   1.97611   1.98266   1.98807   1.99252
 Alpha virt. eigenvalues --    1.99992   2.01956   2.02532   2.03420   2.04538
 Alpha virt. eigenvalues --    2.05257   2.05890   2.06290   2.07236   2.08114
 Alpha virt. eigenvalues --    2.08487   2.09784   2.10442   2.11834   2.13063
 Alpha virt. eigenvalues --    2.14685   2.15881   2.16436   2.16842   2.17704
 Alpha virt. eigenvalues --    2.19071   2.19619   2.20240   2.21170   2.21886
 Alpha virt. eigenvalues --    2.22888   2.24267   2.24580   2.25249   2.26022
 Alpha virt. eigenvalues --    2.26537   2.27282   2.29266   2.29988   2.30354
 Alpha virt. eigenvalues --    2.30946   2.31858   2.32393   2.32646   2.35128
 Alpha virt. eigenvalues --    2.37029   2.38379   2.39411   2.39944   2.41512
 Alpha virt. eigenvalues --    2.41598   2.42909   2.43919   2.44527   2.45205
 Alpha virt. eigenvalues --    2.45863   2.46665   2.47336   2.48675   2.49948
 Alpha virt. eigenvalues --    2.51013   2.51394   2.52224   2.52912   2.54364
 Alpha virt. eigenvalues --    2.55187   2.57471   2.57607   2.58951   2.59437
 Alpha virt. eigenvalues --    2.59796   2.60050   2.60336   2.60945   2.62707
 Alpha virt. eigenvalues --    2.64469   2.66106   2.67705   2.69508   2.69723
 Alpha virt. eigenvalues --    2.72457   2.73777   2.75980   2.77652   2.80979
 Alpha virt. eigenvalues --    2.83907   2.87473   2.88512   2.90540   2.91994
 Alpha virt. eigenvalues --    2.92958   2.94120   2.95923   2.96697   2.98138
 Alpha virt. eigenvalues --    3.04573   3.06011   3.09057   3.09504   3.16336
 Alpha virt. eigenvalues --    3.35985   3.66085   3.73857   3.78036   3.82618
 Alpha virt. eigenvalues --    3.88334   3.94068   3.97762   4.00361   4.01670
 Alpha virt. eigenvalues --    4.04154   4.05613   4.09836   4.11540   4.12431
 Alpha virt. eigenvalues --    4.13324   4.15825   4.18291   4.19425   4.22709
 Alpha virt. eigenvalues --    4.25353   4.28176   4.30395   4.32355   4.34935
 Alpha virt. eigenvalues --    4.37036   4.37965   4.44709   4.47807   4.51345
 Alpha virt. eigenvalues --    4.52762   4.60502   4.62668   4.67360   4.71477
          Condensed to atoms (all electrons):
 Mulliken charges:
               1
     1  N   -0.761267
     2  C   -0.107936
     3  C    0.627540
     4  O   -0.513945
     5  C   -0.412452
     6  C    0.012241
     7  C   -0.010502
     8  C    0.088115
     9  C    0.309290
    10  C   -0.215179
    11  N   -0.682554
    12  C   -0.157418
    13  C   -0.136690
    14  C   -0.147885
    15  H    0.217132
    16  H    0.214233
    17  H    0.182515
    18  H    0.162139
    19  H    0.341346
    20  H    0.129434
    21  H    0.143301
    22  H    0.145686
    23  H    0.149493
    24  H    0.389599
    25  H    0.405922
    26  N   -0.624941
    27  C   -0.062941
    28  C    0.626310
    29  O   -0.482441
    30  C   -0.067443
    31  C   -0.265924
    32  C   -0.459484
    33  C   -0.452718
    34  H    0.365480
    35  H    0.160735
    36  H    0.180109
    37  H    0.120001
    38  H    0.157116
    39  H    0.133454
    40  H    0.131242
    41  H    0.168849
    42  H    0.152191
    43  H    0.146671
    44  H    0.162152
    45  N   -0.612603
    46  C   -0.016539
    47  C    0.592851
    48  O   -0.566944
    49  C   -0.268474
    50  C   -0.309065
    51  C   -0.158156
    52  N   -0.604239
    53  C    0.771292
    54  N   -0.751030
    55  N   -0.779120
    56  O   -0.637407
    57  H    0.434255
    58  H    0.338866
    59  H    0.136766
    60  H    0.157881
    61  H    0.161685
    62  H    0.187853
    63  H    0.172606
    64  H    0.174226
    65  H    0.182906
    66  H    0.390127
    67  H    0.378104
    68  H    0.385797
    69  H    0.416865
    70  H    0.360920
 Sum of Mulliken charges =   1.00000
 Mulliken charges with hydrogens summed into heavy atoms:
               1
     1  N    0.468509
     2  C    0.109196
     3  C    0.627540
     4  O   -0.513945
     5  C   -0.015705
     6  C    0.012241
     7  C    0.151637
     8  C    0.088115
     9  C    0.309290
    10  C   -0.085745
    11  N   -0.341208
    12  C   -0.014116
    13  C    0.008996
    14  C    0.001608
    26  N   -0.259461
    27  C    0.097794
    28  C    0.626310
    29  O   -0.482441
    30  C    0.112666
    31  C    0.011193
    32  C   -0.025939
    33  C    0.008296
    45  N   -0.273737
    46  C    0.120227
    47  C    0.592851
    48  O   -0.566944
    49  C    0.051092
    50  C    0.051394
    51  C    0.198977
    52  N   -0.214112
    53  C    0.771292
    54  N    0.012871
    55  N   -0.001336
    56  O   -0.637407
 Electronic spatial extent (au):  <R**2>=        8526221.5310
 Charge=              1.0000 electrons
 Dipole moment (field-independent basis, Debye):
    X=           -455.0425    Y=            -51.8084    Z=             16.3030  Tot=            458.2724
 Quadrupole moment (field-independent basis, Debye-Ang):
   XX=          42954.7329   YY=            369.8575   ZZ=            -90.7643
   XY=           4898.9793   XZ=          -1520.9909   YZ=           -218.9930
 Traceless Quadrupole moment (field-independent basis, Debye-Ang):
   XX=          28543.4576   YY=         -14041.4179   ZZ=         -14502.0397
   XY=           4898.9793   XZ=          -1520.9909   YZ=           -218.9930
 Octapole moment (field-independent basis, Debye-Ang**2):
  XXX=       -4039566.9887  YYY=           2129.9227  ZZZ=          -2024.0749  XYY=         -34629.4432
  XXY=        -460983.0392  XXZ=         141144.1081  XZZ=           9065.0789  YZZ=           1307.8199
  YYZ=           2108.1976  XYZ=          20467.3149
 Hexadecapole moment (field-independent basis, Debye-Ang**3):
 XXXX=      378373389.7294 YYYY=        -176423.0102 ZZZZ=         -29799.6238 XXXY=       43153054.5163
 XXXZ=      -13023684.8027 YYYX=        -214769.3293 YYYZ=          -2935.3904 ZZZX=         194375.1535
 ZZZY=          29722.9618 XXYY=        3206606.0614 XXZZ=        -908871.9010 YYZZ=         -25204.6899
 XXYZ=       -1901783.0549 YYXZ=        -196472.3082 ZZXY=        -130281.5447
 N-N= 3.848888336191D+03 E-N=-1.135403501952D+04  KE= 1.567323371792D+03
 Unable to Open any file for archive entry.
 1\1\GINC-QML-002\SP\RB3LYP\6-31G(d)\C23H36N7O4(1+)\KENGMITH\24-May-202
 2\0\\# B3LYP/6-31G* empiricaldispersion=gd3 guess=read geom=check nosy
 mm integral(ultrafinegrid)\\Candidate Structure: Conf:472 Charge calc 
 in gas phase\\1,1\N,0,-93.4755064234,-14.5551210287,4.7373415141\C,0,-
 94.5425893801,-15.1344563294,5.6346129292\C,0,-95.5362620265,-15.78601
 30813,4.65106346\O,0,-95.0951708327,-16.6531738026,3.9031336794\C,0,-9
 5.0063267838,-14.0659490688,6.6356144808\C,0,-93.8524458983,-13.551112
 4086,7.4452117638\C,0,-93.3026834574,-12.2902863095,7.3757266051\C,0,-
 93.0681712409,-14.2920820697,8.4047287379\C,0,-92.0595431591,-13.41345
 3829,8.8832345726\C,0,-93.1278129162,-15.603639903,8.9102308347\N,0,-9
 2.2267847718,-12.2039177294,8.2336937293\C,0,-91.115968448,-13.8077530
 526,9.837587752\C,0,-92.1931246081,-15.9997043286,9.8571565973\C,0,-91
 .1968971837,-15.1105349734,10.3139011778\H,0,-94.0670620767,-15.961352
 205,6.16910366\H,0,-95.4903257762,-13.2421953768,6.1003761263\H,0,-95.
 7570252357,-14.5361154624,7.2844298546\H,0,-93.6215882095,-11.43654326
 04,6.7926860624\H,0,-91.6944647385,-11.3673707029,8.4182976281\H,0,-93
 .9019089404,-16.2925888338,8.5808637219\H,0,-90.3526854665,-13.1225781
 192,10.1952302298\H,0,-92.2292436323,-17.0075128191,10.259687264\H,0,-
 90.481756201,-15.4502152029,11.0569936278\H,0,-92.7317041571,-14.13825
 06545,5.308387427\H,0,-93.1090238195,-15.3042111389,4.139550591\N,0,-9
 6.8061416043,-15.3351097918,4.6462669148\C,0,-97.8427731173,-15.891502
 3375,3.7662521224\C,0,-97.3790306553,-15.858798432,2.2833276314\O,0,-9
 7.3535333695,-16.8702197438,1.6029213665\C,0,-98.3061337205,-17.310718
 5549,4.1772329527\C,0,-99.6569486175,-17.6266365211,3.4971331047\C,0,-
 98.4095235416,-17.4384584759,5.7032728835\C,0,-100.0183408926,-19.1154
 537086,3.5141962121\H,0,-97.049487264,-14.5438104892,5.2247217224\H,0,
 -98.6964934757,-15.2144430923,3.8751474325\H,0,-97.5541673477,-18.0126
 144064,3.8035496874\H,0,-100.4475678906,-17.0437290682,3.9947614847\H,
 0,-99.6231420172,-17.2953615178,2.4549894887\H,0,-97.4374491908,-17.32
 71943653,6.1937355523\H,0,-99.0896510322,-16.6840706011,6.121896602\H,
 0,-98.800094178,-18.4218323558,5.9787422839\H,0,-100.9724618853,-19.28
 81963741,3.0048550337\H,0,-100.1146185952,-19.5086555095,4.532113225\H
 ,0,-99.2510736746,-19.7018557272,2.9960874722\N,0,-96.9888412039,-14.6
 600040076,1.720247392\C,0,-97.0727334112,-13.2614508894,2.144322681\C,
 0,-96.0685438187,-12.9129282872,3.2744167126\O,0,-96.4809409743,-12.38
 26028168,4.3279928261\C,0,-98.5249289129,-12.7848655162,2.3657547624\C
 ,0,-98.7584211065,-11.2990841032,2.7207325892\C,0,-97.9816568368,-10.2
 552566196,1.9044560454\N,0,-96.5651658032,-10.2336669007,2.3216781123\
 C,0,-95.5206996266,-10.0298451298,1.5177738267\N,0,-95.6707937424,-9.2
 887845265,0.4038230471\N,0,-94.3347290593,-10.5728032697,1.825357193\O
 ,0,-94.8347185417,-13.1112806455,2.9758792559\H,0,-93.9241062936,-13.8
 192947324,4.0918522647\H,0,-96.664145374,-14.8174528419,0.7747391141\H
 ,0,-96.6772954272,-12.7150125686,1.2799646035\H,0,-99.0702666241,-13.0
 288920327,1.4459641802\H,0,-98.9876803977,-13.3726939727,3.1627932678\
 H,0,-98.5429319033,-11.1385151593,3.7807873136\H,0,-99.8238342304,-11.
 0837800996,2.5811252566\H,0,-98.0231853658,-10.4801352282,0.8317060889
 \H,0,-98.4224061191,-9.2635881737,2.0605770955\H,0,-96.3714078914,-10.
 6577954983,3.2295269252\H,0,-94.9536251369,-9.2566487961,-0.3059383253
 \H,0,-96.4476316189,-8.6502028506,0.3102336079\H,0,-94.3218238394,-11.
 4744508574,2.3329299346\H,0,-93.5066528974,-10.2990873934,1.3152312493
 \\Version=ES64L-G16RevC.01\HF=-1582.2426249\RMSD=9.012e-09\Dipole=1.82
 33533,6.2071578,-2.3155694\Quadrupole=21221.3611056,-10439.4500601,-10
 781.9110456,3642.2710384,-1130.8194357,-162.8159249\PG=C01 [X(C23H36N7
 O4)]\\@
 The archive entry for this job was punched.


 WHAT, THEN, IS TIME?  IF NO ONE ASKS ME, I KNOW WHAT IT IS.
 IF I WISH TO EXPLAIN WHAT IT IS TO HIM WHO ASKS ME, I DO NOT KNOW.
                                   -- ST. AUGUSTINE (FIFTH CENTURY)
 Job cpu time:       0 days  0 hours  2 minutes 28.5 seconds.
 Elapsed time:       0 days  0 hours  0 minutes 37.7 seconds.
 File lengths (MBytes):  RWF=    296 Int=      0 D2E=      0 Chk=     40 Scr=     16
 Normal termination of Gaussian 16 at Tue May 24 23:10:43 2022.
