 Entering Gaussian System, Link 0=/opt/software/Gaussian/g16-AVX2-C.01/g16/g16
 Input=charge-conf-750.com
 Output=charge-conf-750.log
 Initial command:
 /opt/software/Gaussian/g16-AVX2-C.01/g16/l1.exe "/mnt/gs18/scratch/users/kengmith/Gau-8019.inp" -scrdir="/mnt/gs18/scratch/users/kengmith/"
 Entering Link 1 = /opt/software/Gaussian/g16-AVX2-C.01/g16/l1.exe PID=      8033.
  
 Copyright (c) 1988-2019, Gaussian, Inc.  All Rights Reserved.
  
 This is part of the Gaussian(R) 16 program.  It is based on
 the Gaussian(R) 09 system (copyright 2009, Gaussian, Inc.),
 the Gaussian(R) 03 system (copyright 2003, Gaussian, Inc.),
 the Gaussian(R) 98 system (copyright 1998, Gaussian, Inc.),
 the Gaussian(R) 94 system (copyright 1995, Gaussian, Inc.),
 the Gaussian 92(TM) system (copyright 1992, Gaussian, Inc.),
 the Gaussian 90(TM) system (copyright 1990, Gaussian, Inc.),
 the Gaussian 88(TM) system (copyright 1988, Gaussian, Inc.),
 the Gaussian 86(TM) system (copyright 1986, Carnegie Mellon
 University), and the Gaussian 82(TM) system (copyright 1983,
 Carnegie Mellon University). Gaussian is a federally registered
 trademark of Gaussian, Inc.
  
 This software contains proprietary and confidential information,
 including trade secrets, belonging to Gaussian, Inc.
  
 This software is provided under written license and may be
 used, copied, transmitted, or stored only in accord with that
 written license.
  
 The following legend is applicable only to US Government
 contracts under FAR:
  
                    RESTRICTED RIGHTS LEGEND
  
 Use, reproduction and disclosure by the US Government is
 subject to restrictions as set forth in subparagraphs (a)
 and (c) of the Commercial Computer Software - Restricted
 Rights clause in FAR 52.227-19.
  
 Gaussian, Inc.
 340 Quinnipiac St., Bldg. 40, Wallingford CT 06492
  
  
 ---------------------------------------------------------------
 Warning -- This program may not be used in any manner that
 competes with the business of Gaussian, Inc. or will provide
 assistance to any competitor of Gaussian, Inc.  The licensee
 of this program is prohibited from giving any competitor of
 Gaussian, Inc. access to this program.  By using this program,
 the user acknowledges that Gaussian, Inc. is engaged in the
 business of creating and licensing software in the field of
 computational chemistry and represents and warrants to the
 licensee that it is not a competitor of Gaussian, Inc. and that
 it will not use this program in any manner prohibited above.
 ---------------------------------------------------------------
  

 Cite this work as:
 Gaussian 16, Revision C.01,
 M. J. Frisch, G. W. Trucks, H. B. Schlegel, G. E. Scuseria, 
 M. A. Robb, J. R. Cheeseman, G. Scalmani, V. Barone, 
 G. A. Petersson, H. Nakatsuji, X. Li, M. Caricato, A. V. Marenich, 
 J. Bloino, B. G. Janesko, R. Gomperts, B. Mennucci, H. P. Hratchian, 
 J. V. Ortiz, A. F. Izmaylov, J. L. Sonnenberg, D. Williams-Young, 
 F. Ding, F. Lipparini, F. Egidi, J. Goings, B. Peng, A. Petrone, 
 T. Henderson, D. Ranasinghe, V. G. Zakrzewski, J. Gao, N. Rega, 
 G. Zheng, W. Liang, M. Hada, M. Ehara, K. Toyota, R. Fukuda, 
 J. Hasegawa, M. Ishida, T. Nakajima, Y. Honda, O. Kitao, H. Nakai, 
 T. Vreven, K. Throssell, J. A. Montgomery, Jr., J. E. Peralta, 
 F. Ogliaro, M. J. Bearpark, J. J. Heyd, E. N. Brothers, K. N. Kudin, 
 V. N. Staroverov, T. A. Keith, R. Kobayashi, J. Normand, 
 K. Raghavachari, A. P. Rendell, J. C. Burant, S. S. Iyengar, 
 J. Tomasi, M. Cossi, J. M. Millam, M. Klene, C. Adamo, R. Cammi, 
 J. W. Ochterski, R. L. Martin, K. Morokuma, O. Farkas, 
 J. B. Foresman, and D. J. Fox, Gaussian, Inc., Wallingford CT, 2019.
 
 ******************************************
 Gaussian 16:  ES64L-G16RevC.01  3-Jul-2019
                25-May-2022 
 ******************************************
 %mem=8gb
 %nproc=4
 Will use up to    4 processors via shared memory.
 %chk=conf-750.chk
 ----------------------------------------------------------------------
 # B3LYP/6-31G* empiricaldispersion=gd3 guess=read geom=check nosymm in
 tegral(ultrafinegrid)
 ----------------------------------------------------------------------
 1/29=2,38=1,172=1/1;
 2/12=2,15=1,40=1/2;
 3/5=1,6=6,7=1,11=2,14=-4,25=1,30=1,74=-5,75=-5,116=-2,124=31/1,2,3;
 4/5=1/1;
 5/5=2,38=6/2;
 6/7=2,8=2,9=2,10=2,28=1/1;
 99/5=1,9=1/99;
 ------------------------------------------------------
 Candidate Structure: Conf:750 Charge calc in gas phase
 ------------------------------------------------------
 Structure from the checkpoint file:  "conf-750.chk"
 Charge =  1 Multiplicity = 1
 Redundant internal coordinates found in file.  (old form).
 N,0,-7.6386320326,15.5157678693,11.0652122141
 C,0,-8.8556314825,16.2023970203,10.4816792171
 C,0,-8.2429608116,17.2594439405,9.5305792113
 O,0,-7.0503198364,17.1336396624,9.2431301417
 C,0,-9.7270499999,16.732977593,11.639691037
 C,0,-9.94917631,15.6778233291,12.7052633492
 C,0,-9.1825877091,15.686533003,13.8798267456
 C,0,-10.8774639053,14.6471085058,12.500152839
 C,0,-9.3501610173,14.6826005202,14.8366823584
 C,0,-11.0428952459,13.6448145552,13.4565211191
 C,0,-10.2785098577,13.6612829413,14.6263215053
 H,0,-7.1466757282,16.1834586438,11.7152622233
 H,0,-9.400908012,15.4411250395,9.9132648705
 H,0,-9.2354990097,17.6097351532,12.0723186351
 H,0,-10.6839955434,17.0535134345,11.2220147048
 H,0,-8.4607682228,16.4830984167,14.0441436076
 H,0,-11.4856948809,14.637481165,11.5974962463
 H,0,-8.7592765556,14.7030030544,15.7476970708
 H,0,-11.772490479,12.8572368775,13.2930426506
 H,0,-10.4108256814,12.8836490006,15.3725085719
 H,0,-6.9710010225,15.317529003,10.309074169
 H,0,-7.9028226052,14.674156942,11.585677557
 N,0,-8.9557604476,18.3386049352,9.1353115328
 C,0,-8.1983540231,19.4602171761,8.5149510376
 C,0,-7.102505422,19.9127058999,9.4968369348
 O,0,-5.9297273773,20.0469250876,9.1696277344
 C,0,-9.3008020535,20.4884521922,8.1990238751
 C,0,-10.5441135398,19.6138628104,7.964817946
 C,0,-10.4186612661,18.5370917375,9.051849942
 H,0,-7.6787790845,19.1153994237,7.6178843891
 H,0,-9.4584488526,21.1548226012,9.0553624205
 H,0,-9.0365631734,21.1073179056,7.3393090742
 H,0,-11.4814670549,20.1699479248,8.043311263
 H,0,-10.5024295869,19.1502743389,6.9733894524
 H,0,-10.9241312801,17.6012481172,8.7979754958
 H,0,-10.8184748857,18.9029184748,10.005818096
 N,0,-7.5266321557,20.0856542868,10.7904259081
 C,0,-6.5669166191,20.014418065,11.8994635733
 C,0,-6.1113700412,18.5444872004,11.9179998139
 O,0,-6.7286493659,17.6800376912,12.5376592762
 C,0,-7.2091900114,20.4550645623,13.2140904
 C,0,-6.2741081613,20.342788404,14.4284452419
 C,0,-4.9712239635,21.1446393152,14.3109340202
 C,0,-4.1282442752,21.1167687188,15.6030113424
 N,0,-3.6421093976,19.810677501,16.0434599016
 O,0,-5.0904092668,18.2109834952,11.1437551064
 H,0,-4.9040536732,18.9286682279,10.4950961008
 H,0,-8.4719561604,19.7999587885,11.014095844
 H,0,-5.7244198339,20.6595721536,11.6437427504
 H,0,-8.1048381981,19.8444379177,13.3909884946
 H,0,-7.5395064055,21.492347935,13.0829643611
 H,0,-6.8293798822,20.688527305,15.3100262118
 H,0,-6.0452781556,19.2844816203,14.6060752411
 H,0,-5.2036280078,22.1887397361,14.054938544
 H,0,-4.3541205596,20.7507504355,13.4886070766
 H,0,-3.2575553536,21.7697911742,15.4707659249
 H,0,-4.7152407171,21.548462383,16.4243635114
 H,0,-4.4130938651,19.182992065,16.2595368005
 H,0,-3.0886823639,19.3660325531,15.3129607063
 Recover connectivity data from disk.
                           ----------------------------
                           !    Current Parameters    !
                           ! (Angstroms and Degrees)  !
 --------------------------                            --------------------------
 ! Name  Definition              Value                                          !
 --------------------------------------------------------------------------------
 ! R1    R(1,2)                  1.5143                                         !
 ! R2    R(1,12)                 1.0538                                         !
 ! R3    R(1,21)                 1.028                                          !
 ! R4    R(1,22)                 1.0242                                         !
 ! R5    R(2,3)                  1.5483                                         !
 ! R6    R(2,5)                  1.5433                                         !
 ! R7    R(2,13)                 1.0954                                         !
 ! R8    R(3,4)                  1.2332                                         !
 ! R9    R(3,23)                 1.3524                                         !
 ! R10   R(5,6)                  1.516                                          !
 ! R11   R(5,14)                 1.0943                                         !
 ! R12   R(5,15)                 1.0922                                         !
 ! R13   R(6,7)                  1.4026                                         !
 ! R14   R(6,8)                  1.4022                                         !
 ! R15   R(7,9)                  1.397                                          !
 ! R16   R(7,16)                 1.0874                                         !
 ! R17   R(8,10)                 1.3952                                         !
 ! R18   R(8,17)                 1.0885                                         !
 ! R19   R(9,11)                 1.3961                                         !
 ! R20   R(9,18)                 1.0861                                         !
 ! R21   R(10,11)                1.3975                                         !
 ! R22   R(10,19)                1.086                                          !
 ! R23   R(11,20)                1.0858                                         !
 ! R24   R(23,24)                1.4888                                         !
 ! R25   R(23,29)                1.4787                                         !
 ! R26   R(24,25)                1.5394                                         !
 ! R27   R(24,27)                1.5403                                         !
 ! R28   R(24,30)                1.0925                                         !
 ! R29   R(25,26)                1.2249                                         !
 ! R30   R(25,37)                1.3723                                         !
 ! R31   R(27,28)                1.538                                          !
 ! R32   R(27,31)                1.0965                                         !
 ! R33   R(27,32)                1.0918                                         !
 ! R34   R(28,29)                1.5352                                         !
 ! R35   R(28,33)                1.0927                                         !
 ! R36   R(28,34)                1.0953                                         !
 ! R37   R(29,35)                1.0935                                         !
 ! R38   R(29,36)                1.0971                                         !
 ! R39   R(37,38)                1.4684                                         !
 ! R40   R(37,48)                1.0126                                         !
 ! R41   R(38,39)                1.539                                          !
 ! R42   R(38,41)                1.528                                          !
 ! R43   R(38,49)                1.0915                                         !
 ! R44   R(39,40)                1.2297                                         !
 ! R45   R(39,46)                1.324                                          !
 ! R46   R(41,42)                1.5368                                         !
 ! R47   R(41,50)                1.0983                                         !
 ! R48   R(41,51)                1.0965                                         !
 ! R49   R(42,43)                1.5344                                         !
 ! R50   R(42,52)                1.0977                                         !
 ! R51   R(42,53)                1.0972                                         !
 ! R52   R(43,44)                1.543                                          !
 ! R53   R(43,54)                1.0999                                         !
 ! R54   R(43,55)                1.101                                          !
 ! R55   R(44,45)                1.4616                                         !
 ! R56   R(44,56)                1.0964                                         !
 ! R57   R(44,57)                1.098                                          !
 ! R58   R(45,58)                1.0174                                         !
 ! R59   R(45,59)                1.0186                                         !
 ! R60   R(46,47)                0.9852                                         !
 ! A1    A(2,1,12)             109.0029                                         !
 ! A2    A(2,1,21)             109.0229                                         !
 ! A3    A(2,1,22)             111.1686                                         !
 ! A4    A(12,1,21)            105.8273                                         !
 ! A5    A(12,1,22)            109.1239                                         !
 ! A6    A(21,1,22)            112.5099                                         !
 ! A7    A(1,2,3)              103.1946                                         !
 ! A8    A(1,2,5)              108.6949                                         !
 ! A9    A(1,2,13)             106.5525                                         !
 ! A10   A(3,2,5)              116.72                                           !
 ! A11   A(3,2,13)             110.6508                                         !
 ! A12   A(5,2,13)             110.3163                                         !
 ! A13   A(2,3,4)              117.143                                          !
 ! A14   A(2,3,23)             121.0482                                         !
 ! A15   A(4,3,23)             121.5341                                         !
 ! A16   A(2,5,6)              111.7684                                         !
 ! A17   A(2,5,14)             108.5696                                         !
 ! A18   A(2,5,15)             107.9785                                         !
 ! A19   A(6,5,14)             110.2178                                         !
 ! A20   A(6,5,15)             110.1626                                         !
 ! A21   A(14,5,15)            108.0359                                         !
 ! A22   A(5,6,7)              120.2791                                         !
 ! A23   A(5,6,8)              120.3855                                         !
 ! A24   A(7,6,8)              119.2671                                         !
 ! A25   A(6,7,9)              120.2358                                         !
 ! A26   A(6,7,16)             119.5949                                         !
 ! A27   A(9,7,16)             120.1683                                         !
 ! A28   A(6,8,10)             120.4171                                         !
 ! A29   A(6,8,17)             119.85                                           !
 ! A30   A(10,8,17)            119.7243                                         !
 ! A31   A(7,9,11)             120.1507                                         !
 ! A32   A(7,9,18)             119.7221                                         !
 ! A33   A(11,9,18)            120.1263                                         !
 ! A34   A(8,10,11)            120.0307                                         !
 ! A35   A(8,10,19)            119.8327                                         !
 ! A36   A(11,10,19)           120.1347                                         !
 ! A37   A(9,11,10)            119.8975                                         !
 ! A38   A(9,11,20)            120.0918                                         !
 ! A39   A(10,11,20)           120.0099                                         !
 ! A40   A(3,23,24)            117.053                                          !
 ! A41   A(3,23,29)            130.1708                                         !
 ! A42   A(24,23,29)           112.2511                                         !
 ! A43   A(23,24,25)           108.5312                                         !
 ! A44   A(23,24,27)           102.9594                                         !
 ! A45   A(23,24,30)           110.2617                                         !
 ! A46   A(25,24,27)           116.3671                                         !
 ! A47   A(25,24,30)           106.1382                                         !
 ! A48   A(27,24,30)           112.4992                                         !
 ! A49   A(24,25,26)           122.9141                                         !
 ! A50   A(24,25,37)           114.7268                                         !
 ! A51   A(26,25,37)           122.2692                                         !
 ! A52   A(24,27,28)           103.31                                           !
 ! A53   A(24,27,31)           110.3911                                         !
 ! A54   A(24,27,32)           111.5119                                         !
 ! A55   A(28,27,31)           110.3827                                         !
 ! A56   A(28,27,32)           113.4579                                         !
 ! A57   A(31,27,32)           107.7766                                         !
 ! A58   A(27,28,29)           103.0003                                         !
 ! A59   A(27,28,33)           113.1487                                         !
 ! A60   A(27,28,34)           110.3505                                         !
 ! A61   A(29,28,33)           112.097                                          !
 ! A62   A(29,28,34)           109.9357                                         !
 ! A63   A(33,28,34)           108.2446                                         !
 ! A64   A(23,29,28)           102.4134                                         !
 ! A65   A(23,29,35)           110.8268                                         !
 ! A66   A(23,29,36)           110.8675                                         !
 ! A67   A(28,29,35)           113.4595                                         !
 ! A68   A(28,29,36)           110.6111                                         !
 ! A69   A(35,29,36)           108.5891                                         !
 ! A70   A(25,37,38)           120.2555                                         !
 ! A71   A(25,37,48)           117.4652                                         !
 ! A72   A(38,37,48)           115.4463                                         !
 ! A73   A(37,38,39)           104.4122                                         !
 ! A74   A(37,38,41)           111.1669                                         !
 ! A75   A(37,38,49)           107.389                                          !
 ! A76   A(39,38,41)           112.9222                                         !
 ! A77   A(39,38,49)           109.8087                                         !
 ! A78   A(41,38,49)           110.8266                                         !
 ! A79   A(38,39,40)           121.9301                                         !
 ! A80   A(38,39,46)           117.5022                                         !
 ! A81   A(40,39,46)           120.3085                                         !
 ! A82   A(38,41,42)           113.7666                                         !
 ! A83   A(38,41,50)           108.7233                                         !
 ! A84   A(38,41,51)           107.25                                           !
 ! A85   A(42,41,50)           109.1655                                         !
 ! A86   A(42,41,51)           110.299                                          !
 ! A87   A(50,41,51)           107.4303                                         !
 ! A88   A(41,42,43)           114.707                                          !
 ! A89   A(41,42,52)           107.6862                                         !
 ! A90   A(41,42,53)           108.9832                                         !
 ! A91   A(43,42,52)           109.0522                                         !
 ! A92   A(43,42,53)           109.8381                                         !
 ! A93   A(52,42,53)           106.2161                                         !
 ! A94   A(42,43,44)           112.9752                                         !
 ! A95   A(42,43,54)           109.5422                                         !
 ! A96   A(42,43,55)           110.2537                                         !
 ! A97   A(44,43,54)           109.1165                                         !
 ! A98   A(44,43,55)           108.2256                                         !
 ! A99   A(54,43,55)           106.5118                                         !
 ! A100  A(43,44,45)           116.7566                                         !
 ! A101  A(43,44,56)           108.7901                                         !
 ! A102  A(43,44,57)           109.101                                          !
 ! A103  A(45,44,56)           107.726                                          !
 ! A104  A(45,44,57)           107.6822                                         !
 ! A105  A(56,44,57)           106.2972                                         !
 ! A106  A(44,45,58)           111.3012                                         !
 ! A107  A(44,45,59)           110.7733                                         !
 ! A108  A(58,45,59)           107.1405                                         !
 ! A109  A(39,46,47)           110.3278                                         !
 ! D1    D(12,1,2,3)            70.1418                                         !
 ! D2    D(12,1,2,5)           -54.3912                                         !
 ! D3    D(12,1,2,13)         -173.27                                           !
 ! D4    D(21,1,2,3)           -44.9365                                         !
 ! D5    D(21,1,2,5)          -169.4695                                         !
 ! D6    D(21,1,2,13)           71.6517                                         !
 ! D7    D(22,1,2,3)          -169.5316                                         !
 ! D8    D(22,1,2,5)            65.9355                                         !
 ! D9    D(22,1,2,13)          -52.9434                                         !
 ! D10   D(1,2,3,4)             14.7569                                         !
 ! D11   D(1,2,3,23)          -159.3122                                         !
 ! D12   D(5,2,3,4)            133.8741                                         !
 ! D13   D(5,2,3,23)           -40.195                                          !
 ! D14   D(13,2,3,4)           -98.8883                                         !
 ! D15   D(13,2,3,23)           87.0426                                         !
 ! D16   D(1,2,5,6)            -48.0918                                         !
 ! D17   D(1,2,5,14)            73.6922                                         !
 ! D18   D(1,2,5,15)          -169.41                                           !
 ! D19   D(3,2,5,6)           -164.2033                                         !
 ! D20   D(3,2,5,14)           -42.4193                                         !
 ! D21   D(3,2,5,15)            74.4785                                         !
 ! D22   D(13,2,5,6)            68.3952                                         !
 ! D23   D(13,2,5,14)         -169.8208                                         !
 ! D24   D(13,2,5,15)          -52.923                                          !
 ! D25   D(2,3,23,24)          165.0063                                         !
 ! D26   D(2,3,23,29)          -24.0401                                         !
 ! D27   D(4,3,23,24)           -8.8005                                         !
 ! D28   D(4,3,23,29)          162.153                                          !
 ! D29   D(2,5,6,7)             99.6822                                         !
 ! D30   D(2,5,6,8)            -77.2908                                         !
 ! D31   D(14,5,6,7)           -21.1477                                         !
 ! D32   D(14,5,6,8)           161.8792                                         !
 ! D33   D(15,5,6,7)          -140.2722                                         !
 ! D34   D(15,5,6,8)            42.7547                                         !
 ! D35   D(5,6,7,9)           -177.3973                                         !
 ! D36   D(5,6,7,16)             2.9651                                         !
 ! D37   D(8,6,7,9)             -0.3905                                         !
 ! D38   D(8,6,7,16)           179.9718                                         !
 ! D39   D(5,6,8,10)           177.3552                                         !
 ! D40   D(5,6,8,17)            -3.7166                                         !
 ! D41   D(7,6,8,10)             0.3517                                         !
 ! D42   D(7,6,8,17)           179.2799                                         !
 ! D43   D(6,7,9,11)             0.2616                                         !
 ! D44   D(6,7,9,18)          -179.3868                                         !
 ! D45   D(16,7,9,11)          179.8971                                         !
 ! D46   D(16,7,9,18)            0.2487                                         !
 ! D47   D(6,8,10,11)           -0.1829                                         !
 ! D48   D(6,8,10,19)          179.3138                                         !
 ! D49   D(17,8,10,11)        -179.1124                                         !
 ! D50   D(17,8,10,19)           0.3843                                         !
 ! D51   D(7,9,11,10)           -0.0889                                         !
 ! D52   D(7,9,11,20)         -179.7538                                         !
 ! D53   D(18,9,11,10)         179.5581                                         !
 ! D54   D(18,9,11,20)          -0.1068                                         !
 ! D55   D(8,10,11,9)            0.0494                                         !
 ! D56   D(8,10,11,20)         179.7146                                         !
 ! D57   D(19,10,11,9)        -179.4458                                         !
 ! D58   D(19,10,11,20)          0.2194                                         !
 ! D59   D(3,23,24,25)         -56.0459                                         !
 ! D60   D(3,23,24,27)        -179.9488                                         !
 ! D61   D(3,23,24,30)          59.8178                                         !
 ! D62   D(29,23,24,25)        131.413                                          !
 ! D63   D(29,23,24,27)          7.5101                                         !
 ! D64   D(29,23,24,30)       -112.7233                                         !
 ! D65   D(3,23,29,28)        -154.0559                                         !
 ! D66   D(3,23,29,35)         -32.7333                                         !
 ! D67   D(3,23,29,36)          87.9317                                         !
 ! D68   D(24,23,29,28)         17.2419                                         !
 ! D69   D(24,23,29,35)        138.5645                                         !
 ! D70   D(24,23,29,36)       -100.7705                                         !
 ! D71   D(23,24,25,26)        129.6806                                         !
 ! D72   D(23,24,25,37)        -46.9391                                         !
 ! D73   D(27,24,25,26)       -114.8427                                         !
 ! D74   D(27,24,25,37)         68.5375                                         !
 ! D75   D(30,24,25,26)         11.1765                                         !
 ! D76   D(30,24,25,37)       -165.4433                                         !
 ! D77   D(23,24,27,28)        -29.2024                                         !
 ! D78   D(23,24,27,31)         88.817                                          !
 ! D79   D(23,24,27,32)       -151.4065                                         !
 ! D80   D(25,24,27,28)       -147.7614                                         !
 ! D81   D(25,24,27,31)        -29.742                                          !
 ! D82   D(25,24,27,32)         90.0345                                         !
 ! D83   D(30,24,27,28)         89.4799                                         !
 ! D84   D(30,24,27,31)       -152.5007                                         !
 ! D85   D(30,24,27,32)        -32.7242                                         !
 ! D86   D(24,25,37,38)        156.9609                                         !
 ! D87   D(24,25,37,48)          7.2142                                         !
 ! D88   D(26,25,37,38)        -19.6831                                         !
 ! D89   D(26,25,37,48)       -169.4299                                         !
 ! D90   D(24,27,28,29)         40.2462                                         !
 ! D91   D(24,27,28,33)        161.4836                                         !
 ! D92   D(24,27,28,34)        -77.0677                                         !
 ! D93   D(31,27,28,29)        -77.7791                                         !
 ! D94   D(31,27,28,33)         43.4583                                         !
 ! D95   D(31,27,28,34)        164.9071                                         !
 ! D96   D(32,27,28,29)        161.1383                                         !
 ! D97   D(32,27,28,33)        -77.6243                                         !
 ! D98   D(32,27,28,34)         43.8245                                         !
 ! D99   D(27,28,29,23)        -34.9075                                         !
 ! D100  D(27,28,29,35)       -154.4046                                         !
 ! D101  D(27,28,29,36)         83.2866                                         !
 ! D102  D(33,28,29,23)       -156.8575                                         !
 ! D103  D(33,28,29,35)         83.6454                                         !
 ! D104  D(33,28,29,36)        -38.6634                                         !
 ! D105  D(34,28,29,23)         82.6991                                         !
 ! D106  D(34,28,29,35)        -36.798                                          !
 ! D107  D(34,28,29,36)       -159.1068                                         !
 ! D108  D(25,37,38,39)        -67.0727                                         !
 ! D109  D(25,37,38,41)        170.872                                          !
 ! D110  D(25,37,38,49)         49.487                                          !
 ! D111  D(48,37,38,39)         83.2533                                         !
 ! D112  D(48,37,38,41)        -38.802                                          !
 ! D113  D(48,37,38,49)       -160.1871                                         !
 ! D114  D(37,38,39,40)        -86.8598                                         !
 ! D115  D(37,38,39,46)         87.305                                          !
 ! D116  D(41,38,39,40)         34.0344                                         !
 ! D117  D(41,38,39,46)       -151.8008                                         !
 ! D118  D(49,38,39,40)        158.2715                                         !
 ! D119  D(49,38,39,46)        -27.5637                                         !
 ! D120  D(37,38,41,42)        177.3691                                         !
 ! D121  D(37,38,41,50)         55.4976                                         !
 ! D122  D(37,38,41,51)        -60.3781                                         !
 ! D123  D(39,38,41,42)         60.3988                                         !
 ! D124  D(39,38,41,50)        -61.4727                                         !
 ! D125  D(39,38,41,51)       -177.3484                                         !
 ! D126  D(49,38,41,42)        -63.2786                                         !
 ! D127  D(49,38,41,50)        174.8499                                         !
 ! D128  D(49,38,41,51)         58.9741                                         !
 ! D129  D(38,39,46,47)        -13.6829                                         !
 ! D130  D(40,39,46,47)        160.5811                                         !
 ! D131  D(38,41,42,43)         58.0028                                         !
 ! D132  D(38,41,42,52)        179.5944                                         !
 ! D133  D(38,41,42,53)        -65.5921                                         !
 ! D134  D(50,41,42,43)        179.629                                          !
 ! D135  D(50,41,42,52)        -58.7793                                         !
 ! D136  D(50,41,42,53)         56.0341                                         !
 ! D137  D(51,41,42,43)        -62.552                                          !
 ! D138  D(51,41,42,52)         59.0397                                         !
 ! D139  D(51,41,42,53)        173.8532                                         !
 ! D140  D(41,42,43,44)        174.3247                                         !
 ! D141  D(41,42,43,54)         52.4588                                         !
 ! D142  D(41,42,43,55)        -64.4413                                         !
 ! D143  D(52,42,43,44)         53.4815                                         !
 ! D144  D(52,42,43,54)        -68.3844                                         !
 ! D145  D(52,42,43,55)        174.7156                                         !
 ! D146  D(53,42,43,44)        -62.5378                                         !
 ! D147  D(53,42,43,54)        175.5962                                         !
 ! D148  D(53,42,43,55)         58.6962                                         !
 ! D149  D(42,43,44,45)         62.203                                          !
 ! D150  D(42,43,44,56)       -175.6759                                         !
 ! D151  D(42,43,44,57)        -60.1123                                         !
 ! D152  D(54,43,44,45)       -175.692                                          !
 ! D153  D(54,43,44,56)        -53.5708                                         !
 ! D154  D(54,43,44,57)         61.9928                                         !
 ! D155  D(55,43,44,45)        -60.1725                                         !
 ! D156  D(55,43,44,56)         61.9486                                         !
 ! D157  D(55,43,44,57)        177.5122                                         !
 ! D158  D(43,44,45,58)        -62.1562                                         !
 ! D159  D(43,44,45,59)         56.9365                                         !
 ! D160  D(56,44,45,58)        175.1694                                         !
 ! D161  D(56,44,45,59)        -65.7379                                         !
 ! D162  D(57,44,45,58)         60.8944                                         !
 ! D163  D(57,44,45,59)        179.9871                                         !
 --------------------------------------------------------------------------------
 Symmetry turned off by external request.
 Stoichiometry    C20H31N4O4(1+)
 Framework group  C1[X(C20H31N4O4)]
 Deg. of freedom   171
 Full point group                 C1      NOp   1
                          Input orientation:                          
 ---------------------------------------------------------------------
 Center     Atomic      Atomic             Coordinates (Angstroms)
 Number     Number       Type             X           Y           Z
 ---------------------------------------------------------------------
      1          7           0       -7.638632   15.515768   11.065212
      2          6           0       -8.855631   16.202397   10.481679
      3          6           0       -8.242961   17.259444    9.530579
      4          8           0       -7.050320   17.133640    9.243130
      5          6           0       -9.727050   16.732978   11.639691
      6          6           0       -9.949176   15.677823   12.705263
      7          6           0       -9.182588   15.686533   13.879827
      8          6           0      -10.877464   14.647109   12.500153
      9          6           0       -9.350161   14.682601   14.836682
     10          6           0      -11.042895   13.644815   13.456521
     11          6           0      -10.278510   13.661283   14.626322
     12          1           0       -7.146676   16.183459   11.715262
     13          1           0       -9.400908   15.441125    9.913265
     14          1           0       -9.235499   17.609735   12.072319
     15          1           0      -10.683996   17.053513   11.222015
     16          1           0       -8.460768   16.483098   14.044144
     17          1           0      -11.485695   14.637481   11.597496
     18          1           0       -8.759277   14.703003   15.747697
     19          1           0      -11.772490   12.857237   13.293043
     20          1           0      -10.410826   12.883649   15.372509
     21          1           0       -6.971001   15.317529   10.309074
     22          1           0       -7.902823   14.674157   11.585678
     23          7           0       -8.955760   18.338605    9.135312
     24          6           0       -8.198354   19.460217    8.514951
     25          6           0       -7.102505   19.912706    9.496837
     26          8           0       -5.929727   20.046925    9.169628
     27          6           0       -9.300802   20.488452    8.199024
     28          6           0      -10.544114   19.613863    7.964818
     29          6           0      -10.418661   18.537092    9.051850
     30          1           0       -7.678779   19.115399    7.617884
     31          1           0       -9.458449   21.154823    9.055362
     32          1           0       -9.036563   21.107318    7.339309
     33          1           0      -11.481467   20.169948    8.043311
     34          1           0      -10.502430   19.150274    6.973389
     35          1           0      -10.924131   17.601248    8.797975
     36          1           0      -10.818475   18.902918   10.005818
     37          7           0       -7.526632   20.085654   10.790426
     38          6           0       -6.566917   20.014418   11.899464
     39          6           0       -6.111370   18.544487   11.918000
     40          8           0       -6.728649   17.680038   12.537659
     41          6           0       -7.209190   20.455065   13.214090
     42          6           0       -6.274108   20.342788   14.428445
     43          6           0       -4.971224   21.144639   14.310934
     44          6           0       -4.128244   21.116769   15.603011
     45          7           0       -3.642109   19.810678   16.043460
     46          8           0       -5.090409   18.210983   11.143755
     47          1           0       -4.904054   18.928668   10.495096
     48          1           0       -8.471956   19.799959   11.014096
     49          1           0       -5.724420   20.659572   11.643743
     50          1           0       -8.104838   19.844438   13.390988
     51          1           0       -7.539506   21.492348   13.082964
     52          1           0       -6.829380   20.688527   15.310026
     53          1           0       -6.045278   19.284482   14.606075
     54          1           0       -5.203628   22.188740   14.054939
     55          1           0       -4.354121   20.750750   13.488607
     56          1           0       -3.257555   21.769791   15.470766
     57          1           0       -4.715241   21.548462   16.424364
     58          1           0       -4.413094   19.182992   16.259537
     59          1           0       -3.088682   19.366033   15.312961
 ---------------------------------------------------------------------
 Rotational constants (GHZ):           0.1760078           0.1451407           0.0924229
 Standard basis: 6-31G(d) (6D, 7F)
   482 basis functions,   908 primitive gaussians,   482 cartesian basis functions
   105 alpha electrons      105 beta electrons
       nuclear repulsion energy      2881.2297182665 Hartrees.
 NAtoms=   59 NActive=   59 NUniq=   59 SFac= 1.00D+00 NAtFMM=   60 NAOKFM=F Big=F
 Integral buffers will be    131072 words long.
 Raffenetti 2 integral format.
 Two-electron integral symmetry is turned off.
 Nuclear repulsion after empirical dispersion term =     2881.1513657842 Hartrees.
 One-electron integrals computed using PRISM.
 NBasis=   482 RedAO= T EigKep=  4.67D-04  NBF=   482
 NBsUse=   482 1.00D-06 EigRej= -1.00D+00 NBFU=   482
 Initial guess from the checkpoint file:  "conf-750.chk"
 B after Tr=     0.000000    0.000000    0.000000
         Rot=    1.000000    0.000000    0.000000    0.000000 Ang=   0.00 deg.
 Requested convergence on RMS density matrix=1.00D-08 within 128 cycles.
 Requested convergence on MAX density matrix=1.00D-06.
 Requested convergence on             energy=1.00D-06.
 No special actions if energy rises.
 SCF Done:  E(RB3LYP) =  -1300.60332222     A.U. after    1 cycles
            NFock=  1  Conv=0.88D-08     -V/T= 2.0095

 **********************************************************************

            Population analysis using the SCF Density.

 **********************************************************************

 Alpha  occ. eigenvalues --  -19.31796 -19.27864 -19.26720 -19.24934 -14.58249
 Alpha  occ. eigenvalues --  -14.51159 -14.49386 -14.38207 -10.45512 -10.44053
 Alpha  occ. eigenvalues --  -10.41946 -10.40940 -10.36484 -10.36244 -10.36182
 Alpha  occ. eigenvalues --  -10.34099 -10.31977 -10.31842 -10.31757 -10.30635
 Alpha  occ. eigenvalues --  -10.30374 -10.30281 -10.30063 -10.29998 -10.29784
 Alpha  occ. eigenvalues --  -10.28106 -10.27894 -10.26701  -1.23468  -1.19547
 Alpha  occ. eigenvalues --   -1.16731  -1.14998  -1.12923  -1.08789  -1.05629
 Alpha  occ. eigenvalues --   -0.97548  -0.95137  -0.94168  -0.91890  -0.91608
 Alpha  occ. eigenvalues --   -0.88547  -0.86378  -0.85663  -0.84456  -0.80236
 Alpha  occ. eigenvalues --   -0.79025  -0.78069  -0.74975  -0.73784  -0.73137
 Alpha  occ. eigenvalues --   -0.72305  -0.72118  -0.71548  -0.70983  -0.69896
 Alpha  occ. eigenvalues --   -0.69207  -0.67677  -0.66432  -0.63936  -0.63174
 Alpha  occ. eigenvalues --   -0.62961  -0.62553  -0.61602  -0.60374  -0.59324
 Alpha  occ. eigenvalues --   -0.58170  -0.57594  -0.57190  -0.56703  -0.56512
 Alpha  occ. eigenvalues --   -0.56023  -0.55537  -0.55062  -0.54549  -0.53893
 Alpha  occ. eigenvalues --   -0.53402  -0.53130  -0.52705  -0.52298  -0.51879
 Alpha  occ. eigenvalues --   -0.51377  -0.50999  -0.50329  -0.49683  -0.49392
 Alpha  occ. eigenvalues --   -0.48507  -0.47988  -0.47262  -0.47237  -0.46815
 Alpha  occ. eigenvalues --   -0.45614  -0.45246  -0.45051  -0.44520  -0.44181
 Alpha  occ. eigenvalues --   -0.42503  -0.42016  -0.40985  -0.40751  -0.40058
 Alpha  occ. eigenvalues --   -0.37959  -0.37691  -0.36372  -0.36064  -0.30097
 Alpha virt. eigenvalues --   -0.14451  -0.13722  -0.11939  -0.11629  -0.11207
 Alpha virt. eigenvalues --   -0.07354  -0.06978  -0.04748  -0.02963  -0.02763
 Alpha virt. eigenvalues --   -0.01956  -0.01271  -0.00659   0.00054   0.00199
 Alpha virt. eigenvalues --    0.00948   0.01434   0.01597   0.01981   0.02133
 Alpha virt. eigenvalues --    0.03194   0.03741   0.04080   0.04592   0.04856
 Alpha virt. eigenvalues --    0.04987   0.05107   0.05851   0.06140   0.06413
 Alpha virt. eigenvalues --    0.06728   0.07357   0.08044   0.08282   0.08533
 Alpha virt. eigenvalues --    0.08982   0.09349   0.09722   0.10337   0.10557
 Alpha virt. eigenvalues --    0.10806   0.10999   0.11631   0.12491   0.13032
 Alpha virt. eigenvalues --    0.13052   0.14343   0.14908   0.15530   0.16032
 Alpha virt. eigenvalues --    0.16276   0.17151   0.18304   0.19888   0.20520
 Alpha virt. eigenvalues --    0.20816   0.21436   0.22422   0.23649   0.24228
 Alpha virt. eigenvalues --    0.24781   0.27319   0.27966   0.28589   0.32634
 Alpha virt. eigenvalues --    0.34077   0.35732   0.37674   0.38508   0.39118
 Alpha virt. eigenvalues --    0.39931   0.40391   0.41581   0.41806   0.42554
 Alpha virt. eigenvalues --    0.43144   0.43325   0.43393   0.44167   0.44411
 Alpha virt. eigenvalues --    0.45443   0.45987   0.46276   0.47235   0.47778
 Alpha virt. eigenvalues --    0.48416   0.48940   0.49404   0.49478   0.49709
 Alpha virt. eigenvalues --    0.50305   0.50869   0.51009   0.51170   0.51560
 Alpha virt. eigenvalues --    0.51694   0.52009   0.52394   0.53698   0.54108
 Alpha virt. eigenvalues --    0.54519   0.55333   0.55420   0.56785   0.57032
 Alpha virt. eigenvalues --    0.58437   0.59006   0.60344   0.60408   0.61872
 Alpha virt. eigenvalues --    0.62263   0.62932   0.63874   0.64383   0.66142
 Alpha virt. eigenvalues --    0.66522   0.67139   0.67546   0.67835   0.68863
 Alpha virt. eigenvalues --    0.69417   0.70315   0.71260   0.71882   0.72107
 Alpha virt. eigenvalues --    0.72347   0.72876   0.73307   0.73801   0.74109
 Alpha virt. eigenvalues --    0.74493   0.74704   0.75320   0.75870   0.75927
 Alpha virt. eigenvalues --    0.76035   0.77066   0.77447   0.77692   0.78963
 Alpha virt. eigenvalues --    0.79733   0.80027   0.80378   0.80750   0.81349
 Alpha virt. eigenvalues --    0.81437   0.82602   0.82882   0.83654   0.84135
 Alpha virt. eigenvalues --    0.84485   0.85272   0.85550   0.86196   0.87287
 Alpha virt. eigenvalues --    0.87681   0.87935   0.88479   0.90118   0.90696
 Alpha virt. eigenvalues --    0.91854   0.91925   0.92467   0.93099   0.93636
 Alpha virt. eigenvalues --    0.94471   0.96263   0.96951   0.97428   0.98254
 Alpha virt. eigenvalues --    1.00307   1.01443   1.02027   1.02407   1.03680
 Alpha virt. eigenvalues --    1.04833   1.05465   1.06205   1.07425   1.08292
 Alpha virt. eigenvalues --    1.09368   1.10535   1.11980   1.14350   1.14693
 Alpha virt. eigenvalues --    1.15298   1.16923   1.17082   1.20288   1.21307
 Alpha virt. eigenvalues --    1.22968   1.24166   1.24778   1.25418   1.26170
 Alpha virt. eigenvalues --    1.28371   1.29931   1.30234   1.31044   1.32519
 Alpha virt. eigenvalues --    1.33055   1.33766   1.34101   1.34967   1.36985
 Alpha virt. eigenvalues --    1.37895   1.38455   1.39209   1.39406   1.40261
 Alpha virt. eigenvalues --    1.41956   1.44222   1.44756   1.45490   1.47252
 Alpha virt. eigenvalues --    1.49071   1.50160   1.50682   1.52767   1.55307
 Alpha virt. eigenvalues --    1.57909   1.59266   1.59928   1.60426   1.61204
 Alpha virt. eigenvalues --    1.62307   1.63536   1.63923   1.64565   1.65618
 Alpha virt. eigenvalues --    1.67040   1.67753   1.68571   1.69001   1.69912
 Alpha virt. eigenvalues --    1.70701   1.71075   1.72409   1.72762   1.73614
 Alpha virt. eigenvalues --    1.74200   1.75289   1.76548   1.77054   1.77527
 Alpha virt. eigenvalues --    1.78538   1.78853   1.79498   1.79996   1.82058
 Alpha virt. eigenvalues --    1.82563   1.83372   1.84578   1.85404   1.85866
 Alpha virt. eigenvalues --    1.86335   1.87634   1.88022   1.88553   1.89856
 Alpha virt. eigenvalues --    1.91013   1.91376   1.92506   1.92731   1.93559
 Alpha virt. eigenvalues --    1.94497   1.95095   1.95444   1.95576   1.96261
 Alpha virt. eigenvalues --    1.97075   1.97827   1.99522   2.00191   2.01047
 Alpha virt. eigenvalues --    2.01509   2.02976   2.03634   2.04306   2.05914
 Alpha virt. eigenvalues --    2.06387   2.07872   2.09123   2.10027   2.11477
 Alpha virt. eigenvalues --    2.11657   2.13263   2.14763   2.16342   2.17551
 Alpha virt. eigenvalues --    2.19369   2.19513   2.20019   2.20950   2.22303
 Alpha virt. eigenvalues --    2.23565   2.25270   2.26491   2.27605   2.27800
 Alpha virt. eigenvalues --    2.28972   2.30287   2.32146   2.33090   2.34142
 Alpha virt. eigenvalues --    2.34647   2.37641   2.37894   2.39778   2.40537
 Alpha virt. eigenvalues --    2.41394   2.42206   2.43814   2.45062   2.46577
 Alpha virt. eigenvalues --    2.46842   2.48107   2.49780   2.50457   2.50701
 Alpha virt. eigenvalues --    2.51840   2.53760   2.54368   2.54853   2.58118
 Alpha virt. eigenvalues --    2.59232   2.60196   2.61415   2.62122   2.63034
 Alpha virt. eigenvalues --    2.63122   2.64426   2.65514   2.66328   2.67022
 Alpha virt. eigenvalues --    2.69682   2.73103   2.78351   2.80193   2.84489
 Alpha virt. eigenvalues --    2.85847   2.90357   2.91387   2.92675   2.94170
 Alpha virt. eigenvalues --    2.97145   3.02266   3.06291   3.29519   3.70808
 Alpha virt. eigenvalues --    3.72031   3.84969   3.89633   3.93746   3.95563
 Alpha virt. eigenvalues --    3.98548   4.00976   4.05703   4.07625   4.08892
 Alpha virt. eigenvalues --    4.13023   4.13577   4.18814   4.21353   4.22187
 Alpha virt. eigenvalues --    4.23925   4.26269   4.29890   4.34438   4.38699
 Alpha virt. eigenvalues --    4.40987   4.43804   4.44749   4.51166   4.55948
 Alpha virt. eigenvalues --    4.59309   4.63650
          Condensed to atoms (all electrons):
 Mulliken charges:
               1
     1  N   -0.755567
     2  C   -0.114891
     3  C    0.624093
     4  O   -0.515691
     5  C   -0.384842
     6  C    0.115686
     7  C   -0.216619
     8  C   -0.187301
     9  C   -0.126738
    10  C   -0.125988
    11  C   -0.123875
    12  H    0.447929
    13  H    0.218697
    14  H    0.182047
    15  H    0.189238
    16  H    0.169152
    17  H    0.137349
    18  H    0.163645
    19  H    0.164701
    20  H    0.167015
    21  H    0.420660
    22  H    0.408798
    23  N   -0.485605
    24  C   -0.022810
    25  C    0.616703
    26  O   -0.515927
    27  C   -0.321087
    28  C   -0.299707
    29  C   -0.149767
    30  H    0.213563
    31  H    0.170169
    32  H    0.202062
    33  H    0.187558
    34  H    0.183293
    35  H    0.180632
    36  H    0.170534
    37  N   -0.593732
    38  C   -0.061036
    39  C    0.643240
    40  O   -0.526130
    41  C   -0.286612
    42  C   -0.279778
    43  C   -0.271815
    44  C   -0.147662
    45  N   -0.699152
    46  O   -0.548727
    47  H    0.462621
    48  H    0.337643
    49  H    0.202590
    50  H    0.142879
    51  H    0.171980
    52  H    0.157471
    53  H    0.141805
    54  H    0.142236
    55  H    0.120677
    56  H    0.159538
    57  H    0.152350
    58  H    0.297254
    59  H    0.295250
 Sum of Mulliken charges =   1.00000
 Mulliken charges with hydrogens summed into heavy atoms:
               1
     1  N    0.521821
     2  C    0.103806
     3  C    0.624093
     4  O   -0.515691
     5  C   -0.013558
     6  C    0.115686
     7  C   -0.047467
     8  C   -0.049951
     9  C    0.036906
    10  C    0.038713
    11  C    0.043140
    23  N   -0.485605
    24  C    0.190754
    25  C    0.616703
    26  O   -0.515927
    27  C    0.051145
    28  C    0.071143
    29  C    0.201399
    37  N   -0.256088
    38  C    0.141554
    39  C    0.643240
    40  O   -0.526130
    41  C    0.028246
    42  C    0.019498
    43  C   -0.008902
    44  C    0.164226
    45  N   -0.106648
    46  O   -0.086106
 Electronic spatial extent (au):  <R**2>=         406269.5577
 Charge=              1.0000 electrons
 Dipole moment (field-independent basis, Debye):
    X=            -44.2727    Y=             82.5905    Z=             52.4372  Tot=            107.3822
 Quadrupole moment (field-independent basis, Debye-Ang):
   XX=            249.0213   YY=           1297.8447   ZZ=            422.3569
   XY=           -760.0219   XZ=           -477.8883   YZ=            890.7604
 Traceless Quadrupole moment (field-independent basis, Debye-Ang):
   XX=           -407.3863   YY=            641.4371   ZZ=           -234.0507
   XY=           -760.0219   XZ=           -477.8883   YZ=            890.7604
 Octapole moment (field-independent basis, Debye-Ang**2):
  XXX=            -51.6513  YYY=          17679.4051  ZZZ=            874.3256  XYY=         -12127.9181
  XXY=           4102.3451  XXZ=           2441.8196  XZZ=          -4081.5959  YZZ=           6854.2368
  YYZ=          13700.0780  XYZ=          -8080.9606
 Hexadecapole moment (field-independent basis, Debye-Ang**3):
 XXXX=         -27504.4352 YYYY=         167486.2128 ZZZZ=         -65833.3790 XXXY=           1638.3934
 XXXZ=           3914.7311 YYYX=        -174514.5453 YYYZ=         178443.6736 ZZZX=         -18106.8124
 ZZZY=           5149.7649 XXYY=          58955.9247 XXZZ=          13787.4201 YYZZ=          92360.2519
 XXYZ=          38591.0333 YYXZ=        -126146.3172 ZZXY=         -66668.5480
 N-N= 2.881151365784D+03 E-N=-8.762562630133D+03  KE= 1.288384114807D+03
 Unable to Open any file for archive entry.
 1\1\GINC-LAC-311\SP\RB3LYP\6-31G(d)\C20H31N4O4(1+)\KENGMITH\25-May-202
 2\0\\# B3LYP/6-31G* empiricaldispersion=gd3 guess=read geom=check nosy
 mm integral(ultrafinegrid)\\Candidate Structure: Conf:750 Charge calc 
 in gas phase\\1,1\N,0,-7.6386320326,15.5157678693,11.0652122141\C,0,-8
 .8556314825,16.2023970203,10.4816792171\C,0,-8.2429608116,17.259443940
 5,9.5305792113\O,0,-7.0503198364,17.1336396624,9.2431301417\C,0,-9.727
 0499999,16.732977593,11.639691037\C,0,-9.94917631,15.6778233291,12.705
 2633492\C,0,-9.1825877091,15.686533003,13.8798267456\C,0,-10.877463905
 3,14.6471085058,12.500152839\C,0,-9.3501610173,14.6826005202,14.836682
 3584\C,0,-11.0428952459,13.6448145552,13.4565211191\C,0,-10.2785098577
 ,13.6612829413,14.6263215053\H,0,-7.1466757282,16.1834586438,11.715262
 2233\H,0,-9.400908012,15.4411250395,9.9132648705\H,0,-9.2354990097,17.
 6097351532,12.0723186351\H,0,-10.6839955434,17.0535134345,11.222014704
 8\H,0,-8.4607682228,16.4830984167,14.0441436076\H,0,-11.4856948809,14.
 637481165,11.5974962463\H,0,-8.7592765556,14.7030030544,15.7476970708\
 H,0,-11.772490479,12.8572368775,13.2930426506\H,0,-10.4108256814,12.88
 36490006,15.3725085719\H,0,-6.9710010225,15.317529003,10.309074169\H,0
 ,-7.9028226052,14.674156942,11.585677557\N,0,-8.9557604476,18.33860493
 52,9.1353115328\C,0,-8.1983540231,19.4602171761,8.5149510376\C,0,-7.10
 2505422,19.9127058999,9.4968369348\O,0,-5.9297273773,20.0469250876,9.1
 696277344\C,0,-9.3008020535,20.4884521922,8.1990238751\C,0,-10.5441135
 398,19.6138628104,7.964817946\C,0,-10.4186612661,18.5370917375,9.05184
 9942\H,0,-7.6787790845,19.1153994237,7.6178843891\H,0,-9.4584488526,21
 .1548226012,9.0553624205\H,0,-9.0365631734,21.1073179056,7.3393090742\
 H,0,-11.4814670549,20.1699479248,8.043311263\H,0,-10.5024295869,19.150
 2743389,6.9733894524\H,0,-10.9241312801,17.6012481172,8.7979754958\H,0
 ,-10.8184748857,18.9029184748,10.005818096\N,0,-7.5266321557,20.085654
 2868,10.7904259081\C,0,-6.5669166191,20.014418065,11.8994635733\C,0,-6
 .1113700412,18.5444872004,11.9179998139\O,0,-6.7286493659,17.680037691
 2,12.5376592762\C,0,-7.2091900114,20.4550645623,13.2140904\C,0,-6.2741
 081613,20.342788404,14.4284452419\C,0,-4.9712239635,21.1446393152,14.3
 109340202\C,0,-4.1282442752,21.1167687188,15.6030113424\N,0,-3.6421093
 976,19.810677501,16.0434599016\O,0,-5.0904092668,18.2109834952,11.1437
 551064\H,0,-4.9040536732,18.9286682279,10.4950961008\H,0,-8.4719561604
 ,19.7999587885,11.014095844\H,0,-5.7244198339,20.6595721536,11.6437427
 504\H,0,-8.1048381981,19.8444379177,13.3909884946\H,0,-7.5395064055,21
 .492347935,13.0829643611\H,0,-6.8293798822,20.688527305,15.3100262118\
 H,0,-6.0452781556,19.2844816203,14.6060752411\H,0,-5.2036280078,22.188
 7397361,14.054938544\H,0,-4.3541205596,20.7507504355,13.4886070766\H,0
 ,-3.2575553536,21.7697911742,15.4707659249\H,0,-4.7152407171,21.548462
 383,16.4243635114\H,0,-4.4130938651,19.182992065,16.2595368005\H,0,-3.
 0886823639,19.3660325531,15.3129607063\\Version=ES64L-G16RevC.01\HF=-1
 300.6033222\RMSD=8.763e-09\Dipole=-2.6630637,-1.7035524,-1.4982284\Qua
 drupole=-302.881737,476.892728,-174.0109911,-565.0576624,-355.2982616,
 662.2585157\PG=C01 [X(C20H31N4O4)]\\@
 The archive entry for this job was punched.


 IT IS DOUBTED WHETHER A MAN EVER BRINGS HIS FACULTIES TO BEAR WITH THEIR FULL FORCE
 ON A SUBJECT UNTIL HE WRITES UPON IT.

                          -- CICERO
 Job cpu time:       0 days  0 hours  1 minutes 15.3 seconds.
 Elapsed time:       0 days  0 hours  0 minutes 19.2 seconds.
 File lengths (MBytes):  RWF=    240 Int=      0 D2E=      0 Chk=     32 Scr=     16
 Normal termination of Gaussian 16 at Wed May 25 19:10:03 2022.
