 Entering Gaussian System, Link 0=/opt/software/Gaussian/g16-AVX2-C.01/g16/g16
 Input=charge-conf-669.com
 Output=charge-conf-669.log
 Initial command:
 /opt/software/Gaussian/g16-AVX2-C.01/g16/l1.exe "/mnt/gs18/scratch/users/kengmith/Gau-2348.inp" -scrdir="/mnt/gs18/scratch/users/kengmith/"
 Entering Link 1 = /opt/software/Gaussian/g16-AVX2-C.01/g16/l1.exe PID=      2363.
  
 Copyright (c) 1988-2019, Gaussian, Inc.  All Rights Reserved.
  
 This is part of the Gaussian(R) 16 program.  It is based on
 the Gaussian(R) 09 system (copyright 2009, Gaussian, Inc.),
 the Gaussian(R) 03 system (copyright 2003, Gaussian, Inc.),
 the Gaussian(R) 98 system (copyright 1998, Gaussian, Inc.),
 the Gaussian(R) 94 system (copyright 1995, Gaussian, Inc.),
 the Gaussian 92(TM) system (copyright 1992, Gaussian, Inc.),
 the Gaussian 90(TM) system (copyright 1990, Gaussian, Inc.),
 the Gaussian 88(TM) system (copyright 1988, Gaussian, Inc.),
 the Gaussian 86(TM) system (copyright 1986, Carnegie Mellon
 University), and the Gaussian 82(TM) system (copyright 1983,
 Carnegie Mellon University). Gaussian is a federally registered
 trademark of Gaussian, Inc.
  
 This software contains proprietary and confidential information,
 including trade secrets, belonging to Gaussian, Inc.
  
 This software is provided under written license and may be
 used, copied, transmitted, or stored only in accord with that
 written license.
  
 The following legend is applicable only to US Government
 contracts under FAR:
  
                    RESTRICTED RIGHTS LEGEND
  
 Use, reproduction and disclosure by the US Government is
 subject to restrictions as set forth in subparagraphs (a)
 and (c) of the Commercial Computer Software - Restricted
 Rights clause in FAR 52.227-19.
  
 Gaussian, Inc.
 340 Quinnipiac St., Bldg. 40, Wallingford CT 06492
  
  
 ---------------------------------------------------------------
 Warning -- This program may not be used in any manner that
 competes with the business of Gaussian, Inc. or will provide
 assistance to any competitor of Gaussian, Inc.  The licensee
 of this program is prohibited from giving any competitor of
 Gaussian, Inc. access to this program.  By using this program,
 the user acknowledges that Gaussian, Inc. is engaged in the
 business of creating and licensing software in the field of
 computational chemistry and represents and warrants to the
 licensee that it is not a competitor of Gaussian, Inc. and that
 it will not use this program in any manner prohibited above.
 ---------------------------------------------------------------
  

 Cite this work as:
 Gaussian 16, Revision C.01,
 M. J. Frisch, G. W. Trucks, H. B. Schlegel, G. E. Scuseria, 
 M. A. Robb, J. R. Cheeseman, G. Scalmani, V. Barone, 
 G. A. Petersson, H. Nakatsuji, X. Li, M. Caricato, A. V. Marenich, 
 J. Bloino, B. G. Janesko, R. Gomperts, B. Mennucci, H. P. Hratchian, 
 J. V. Ortiz, A. F. Izmaylov, J. L. Sonnenberg, D. Williams-Young, 
 F. Ding, F. Lipparini, F. Egidi, J. Goings, B. Peng, A. Petrone, 
 T. Henderson, D. Ranasinghe, V. G. Zakrzewski, J. Gao, N. Rega, 
 G. Zheng, W. Liang, M. Hada, M. Ehara, K. Toyota, R. Fukuda, 
 J. Hasegawa, M. Ishida, T. Nakajima, Y. Honda, O. Kitao, H. Nakai, 
 T. Vreven, K. Throssell, J. A. Montgomery, Jr., J. E. Peralta, 
 F. Ogliaro, M. J. Bearpark, J. J. Heyd, E. N. Brothers, K. N. Kudin, 
 V. N. Staroverov, T. A. Keith, R. Kobayashi, J. Normand, 
 K. Raghavachari, A. P. Rendell, J. C. Burant, S. S. Iyengar, 
 J. Tomasi, M. Cossi, J. M. Millam, M. Klene, C. Adamo, R. Cammi, 
 J. W. Ochterski, R. L. Martin, K. Morokuma, O. Farkas, 
 J. B. Foresman, and D. J. Fox, Gaussian, Inc., Wallingford CT, 2019.
 
 ******************************************
 Gaussian 16:  ES64L-G16RevC.01  3-Jul-2019
                25-May-2022 
 ******************************************
 %mem=8gb
 %nproc=4
 Will use up to    4 processors via shared memory.
 %chk=conf-669.chk
 ----------------------------------------------------------------------
 # B3LYP/6-31G* empiricaldispersion=gd3 guess=read geom=check nosymm in
 tegral(ultrafinegrid)
 ----------------------------------------------------------------------
 1/29=2,38=1,172=1/1;
 2/12=2,15=1,40=1/2;
 3/5=1,6=6,7=1,11=2,14=-4,25=1,30=1,74=-5,75=-5,116=-2,124=31/1,2,3;
 4/5=1/1;
 5/5=2,38=6/2;
 6/7=2,8=2,9=2,10=2,28=1/1;
 99/5=1,9=1/99;
 ------------------------------------------------------
 Candidate Structure: Conf:669 Charge calc in gas phase
 ------------------------------------------------------
 Structure from the checkpoint file:  "conf-669.chk"
 Charge =  1 Multiplicity = 1
 Redundant internal coordinates found in file.  (old form).
 N,0,-7.2005858768,18.3351135217,14.3359029283
 C,0,-7.6251830435,19.5753632787,13.5828920504
 C,0,-9.100670235,19.2917209285,13.2102711368
 O,0,-9.6369161625,18.2979695518,13.7112373816
 C,0,-6.6605643483,19.7683215007,12.3892209967
 C,0,-5.2084405326,19.6286268801,12.7988164721
 C,0,-4.5330066166,18.4164380219,12.5876494907
 C,0,-4.5424475322,20.6814113894,13.4423130263
 C,0,-3.2089133196,18.2665329892,13.007136898
 C,0,-3.2200290242,20.5295039821,13.8604374797
 C,0,-2.5518063236,19.3213801093,13.643519763
 H,0,-7.2668137839,17.5181147756,13.6715554293
 H,0,-7.5416226031,20.4154186239,14.2806532366
 H,0,-6.9037741744,19.0238289051,11.6262306633
 H,0,-6.8415772816,20.7587929095,11.9672724236
 H,0,-5.0457602398,17.5974002213,12.0875713441
 H,0,-5.0536940844,21.6291172941,13.6004990408
 H,0,-2.6904889462,17.3288987815,12.8293728414
 H,0,-2.7092081746,21.3550215056,14.3471692037
 H,0,-1.5209843862,19.2059006914,13.9646480225
 H,0,-7.8478178814,18.1478192155,15.1072884682
 H,0,-6.2332429177,18.4268501767,14.6645398016
 N,0,-9.708571921,20.0528092241,12.2780671229
 C,0,-10.9935576482,19.573402427,11.7026032265
 C,0,-10.840066599,18.1948796588,11.0239167717
 O,0,-11.7529301728,17.395491629,11.0018314605
 C,0,-11.3918141071,20.7140942406,10.744625448
 C,0,-10.7495575223,21.9576867128,11.3793966827
 C,0,-9.3867629788,21.4320180599,11.8496695966
 H,0,-11.7275658066,19.4317193137,12.4995070927
 H,0,-10.969134236,20.5346645022,9.7489290787
 H,0,-12.4758253066,20.7864326334,10.6400382341
 H,0,-10.6483058516,22.7943183104,10.6835810539
 H,0,-11.3368987318,22.2953972791,12.2402542347
 H,0,-8.9557094303,22.0057736861,12.6751553594
 H,0,-8.6724190092,21.4236110719,11.0172488978
 N,0,-9.6071674655,17.9790303877,10.4388534458
 C,0,-9.0254071787,16.6377247359,10.2723583772
 C,0,-8.602545514,16.2635193549,11.6948193255
 O,0,-7.5378017603,16.6362944184,12.1988752436
 C,0,-7.8735199587,16.7237303612,9.2668371916
 C,0,-7.0513092698,15.4463864298,9.049468575
 C,0,-7.8453433062,14.2317931099,8.5115569754
 C,0,-7.9430559504,13.0991182712,9.5375079841
 N,0,-8.5866096581,13.5878009639,10.7671189268
 O,0,-9.6005237671,15.7440579216,12.3977220659
 H,0,-9.3869750687,15.7950827055,13.3471202233
 H,0,-8.9210315545,18.7098180526,10.5758584201
 H,0,-9.8206861866,15.9694506131,9.9456906065
 H,0,-7.191710592,17.5209091268,9.597386296
 H,0,-8.3107195184,17.0583368561,8.3183705487
 H,0,-6.2468699525,15.7025460073,8.350541406
 H,0,-6.5680944421,15.1781041685,9.9956253989
 H,0,-7.3744514607,13.8385139968,7.6033114419
 H,0,-8.8588265085,14.5355916871,8.2112498305
 H,0,-8.4529310398,12.230186754,9.0925013229
 H,0,-6.9301146342,12.7719537928,9.8022672028
 H,0,-9.5964017235,13.640202126,10.6378535955
 H,0,-8.4422569199,12.9307667867,11.5316959468
 Recover connectivity data from disk.
                           ----------------------------
                           !    Current Parameters    !
                           ! (Angstroms and Degrees)  !
 --------------------------                            --------------------------
 ! Name  Definition              Value                                          !
 --------------------------------------------------------------------------------
 ! R1    R(1,2)                  1.5118                                         !
 ! R2    R(1,12)                 1.0551                                         !
 ! R3    R(1,21)                 1.0242                                         !
 ! R4    R(1,22)                 1.0258                                         !
 ! R5    R(2,3)                  1.548                                          !
 ! R6    R(2,5)                  1.5468                                         !
 ! R7    R(2,13)                 1.0952                                         !
 ! R8    R(3,4)                  1.2353                                         !
 ! R9    R(3,23)                 1.3483                                         !
 ! R10   R(5,6)                  1.5152                                         !
 ! R11   R(5,14)                 1.0934                                         !
 ! R12   R(5,15)                 1.0917                                         !
 ! R13   R(6,7)                  1.4036                                         !
 ! R14   R(6,8)                  1.4021                                         !
 ! R15   R(7,9)                  1.397                                          !
 ! R16   R(7,16)                 1.088                                          !
 ! R17   R(8,10)                 1.3952                                         !
 ! R18   R(8,17)                 1.0884                                         !
 ! R19   R(9,11)                 1.3962                                         !
 ! R20   R(9,18)                 1.0861                                         !
 ! R21   R(10,11)                1.3975                                         !
 ! R22   R(10,19)                1.086                                          !
 ! R23   R(11,20)                1.0858                                         !
 ! R24   R(23,24)                1.4873                                         !
 ! R25   R(23,29)                1.4796                                         !
 ! R26   R(24,25)                1.5442                                         !
 ! R27   R(24,27)                1.5419                                         !
 ! R28   R(24,30)                1.0927                                         !
 ! R29   R(25,26)                1.2136                                         !
 ! R30   R(25,37)                1.3816                                         !
 ! R31   R(27,28)                1.5369                                         !
 ! R32   R(27,31)                1.0965                                         !
 ! R33   R(27,32)                1.0914                                         !
 ! R34   R(28,29)                1.5345                                         !
 ! R35   R(28,33)                1.0929                                         !
 ! R36   R(28,34)                1.0955                                         !
 ! R37   R(29,35)                1.0938                                         !
 ! R38   R(29,36)                1.0969                                         !
 ! R39   R(37,38)                1.4715                                         !
 ! R40   R(37,48)                1.0117                                         !
 ! R41   R(38,39)                1.5304                                         !
 ! R42   R(38,41)                1.5314                                         !
 ! R43   R(38,49)                1.0889                                         !
 ! R44   R(39,40)                1.2356                                         !
 ! R45   R(39,46)                1.3266                                         !
 ! R46   R(41,42)                1.5346                                         !
 ! R47   R(41,50)                1.0998                                         !
 ! R48   R(41,51)                1.0967                                         !
 ! R49   R(42,43)                1.5476                                         !
 ! R50   R(42,52)                1.096                                          !
 ! R51   R(42,53)                1.0958                                         !
 ! R52   R(43,44)                1.5314                                         !
 ! R53   R(43,54)                1.096                                          !
 ! R54   R(43,55)                1.0998                                         !
 ! R55   R(44,45)                1.4714                                         !
 ! R56   R(44,56)                1.1014                                         !
 ! R57   R(44,57)                1.0969                                         !
 ! R58   R(45,58)                1.0194                                         !
 ! R59   R(45,59)                1.0184                                         !
 ! R60   R(46,47)                0.9745                                         !
 ! A1    A(2,1,12)             107.6978                                         !
 ! A2    A(2,1,21)             110.3451                                         !
 ! A3    A(2,1,22)             110.5531                                         !
 ! A4    A(12,1,21)            107.0351                                         !
 ! A5    A(12,1,22)            109.2796                                         !
 ! A6    A(21,1,22)            111.7773                                         !
 ! A7    A(1,2,3)              103.7257                                         !
 ! A8    A(1,2,5)              108.1539                                         !
 ! A9    A(1,2,13)             106.887                                          !
 ! A10   A(3,2,5)              115.5632                                         !
 ! A11   A(3,2,13)             111.5067                                         !
 ! A12   A(5,2,13)             110.3884                                         !
 ! A13   A(2,3,4)              117.6151                                         !
 ! A14   A(2,3,23)             119.5215                                         !
 ! A15   A(4,3,23)             122.5998                                         !
 ! A16   A(2,5,6)              112.1815                                         !
 ! A17   A(2,5,14)             108.3515                                         !
 ! A18   A(2,5,15)             107.9413                                         !
 ! A19   A(6,5,14)             109.8172                                         !
 ! A20   A(6,5,15)             110.3052                                         !
 ! A21   A(14,5,15)            108.1291                                         !
 ! A22   A(5,6,7)              120.0072                                         !
 ! A23   A(5,6,8)              120.6663                                         !
 ! A24   A(7,6,8)              119.2691                                         !
 ! A25   A(6,7,9)              120.2369                                         !
 ! A26   A(6,7,16)             119.5028                                         !
 ! A27   A(9,7,16)             120.2584                                         !
 ! A28   A(6,8,10)             120.3964                                         !
 ! A29   A(6,8,17)             119.8274                                         !
 ! A30   A(10,8,17)            119.7666                                         !
 ! A31   A(7,9,11)             120.1227                                         !
 ! A32   A(7,9,18)             119.7303                                         !
 ! A33   A(11,9,18)            120.1454                                         !
 ! A34   A(8,10,11)            120.0522                                         !
 ! A35   A(8,10,19)            119.8272                                         !
 ! A36   A(11,10,19)           120.1187                                         !
 ! A37   A(9,11,10)            119.9214                                         !
 ! A38   A(9,11,20)            120.0813                                         !
 ! A39   A(10,11,20)           119.9963                                         !
 ! A40   A(3,23,24)            118.3657                                         !
 ! A41   A(3,23,29)            128.9253                                         !
 ! A42   A(24,23,29)           112.1066                                         !
 ! A43   A(23,24,25)           111.8341                                         !
 ! A44   A(23,24,27)           103.0074                                         !
 ! A45   A(23,24,30)           109.8759                                         !
 ! A46   A(25,24,27)           114.3955                                         !
 ! A47   A(25,24,30)           105.7573                                         !
 ! A48   A(27,24,30)           112.0579                                         !
 ! A49   A(24,25,26)           121.4166                                         !
 ! A50   A(24,25,37)           114.4739                                         !
 ! A51   A(26,25,37)           124.0976                                         !
 ! A52   A(24,27,28)           103.5367                                         !
 ! A53   A(24,27,31)           110.0938                                         !
 ! A54   A(24,27,32)           111.4134                                         !
 ! A55   A(28,27,31)           110.2664                                         !
 ! A56   A(28,27,32)           113.6409                                         !
 ! A57   A(31,27,32)           107.86                                           !
 ! A58   A(27,28,29)           102.7397                                         !
 ! A59   A(27,28,33)           113.2784                                         !
 ! A60   A(27,28,34)           110.4849                                         !
 ! A61   A(29,28,33)           112.0299                                         !
 ! A62   A(29,28,34)           109.9335                                         !
 ! A63   A(33,28,34)           108.3004                                         !
 ! A64   A(23,29,28)           102.4092                                         !
 ! A65   A(23,29,35)           110.864                                          !
 ! A66   A(23,29,36)           110.7446                                         !
 ! A67   A(28,29,35)           113.677                                          !
 ! A68   A(28,29,36)           110.3899                                         !
 ! A69   A(35,29,36)           108.6681                                         !
 ! A70   A(25,37,38)           122.8958                                         !
 ! A71   A(25,37,48)           115.7841                                         !
 ! A72   A(38,37,48)           113.9294                                         !
 ! A73   A(37,38,39)           103.1176                                         !
 ! A74   A(37,38,41)           108.6913                                         !
 ! A75   A(37,38,49)           107.7346                                         !
 ! A76   A(39,38,41)           114.593                                          !
 ! A77   A(39,38,49)           109.3028                                         !
 ! A78   A(41,38,49)           112.7568                                         !
 ! A79   A(38,39,40)           122.9215                                         !
 ! A80   A(38,39,46)           112.3558                                         !
 ! A81   A(40,39,46)           123.3836                                         !
 ! A82   A(38,41,42)           116.6962                                         !
 ! A83   A(38,41,50)           108.0383                                         !
 ! A84   A(38,41,51)           106.5667                                         !
 ! A85   A(42,41,50)           108.2853                                         !
 ! A86   A(42,41,51)           110.1856                                         !
 ! A87   A(50,41,51)           106.6137                                         !
 ! A88   A(41,42,43)           115.3156                                         !
 ! A89   A(41,42,52)           106.8006                                         !
 ! A90   A(41,42,53)           108.5279                                         !
 ! A91   A(43,42,52)           109.7769                                         !
 ! A92   A(43,42,53)           109.5256                                         !
 ! A93   A(52,42,53)           106.5104                                         !
 ! A94   A(42,43,44)           112.3566                                         !
 ! A95   A(42,43,54)           110.4383                                         !
 ! A96   A(42,43,55)           110.5431                                         !
 ! A97   A(44,43,54)           108.4925                                         !
 ! A98   A(44,43,55)           109.1742                                         !
 ! A99   A(54,43,55)           105.5898                                         !
 ! A100  A(43,44,45)           110.0067                                         !
 ! A101  A(43,44,56)           110.0226                                         !
 ! A102  A(43,44,57)           108.8684                                         !
 ! A103  A(45,44,56)           113.4035                                         !
 ! A104  A(45,44,57)           107.5332                                         !
 ! A105  A(56,44,57)           106.8411                                         !
 ! A106  A(44,45,58)           110.1435                                         !
 ! A107  A(44,45,59)           110.557                                          !
 ! A108  A(58,45,59)           105.5918                                         !
 ! A109  A(39,46,47)           109.3212                                         !
 ! D1    D(12,1,2,3)            62.6347                                         !
 ! D2    D(12,1,2,5)           -60.5642                                         !
 ! D3    D(12,1,2,13)         -179.4257                                         !
 ! D4    D(21,1,2,3)           -53.8714                                         !
 ! D5    D(21,1,2,5)          -177.0703                                         !
 ! D6    D(21,1,2,13)           64.0682                                         !
 ! D7    D(22,1,2,3)          -178.0389                                         !
 ! D8    D(22,1,2,5)            58.7622                                         !
 ! D9    D(22,1,2,13)          -60.0993                                         !
 ! D10   D(1,2,3,4)              9.076                                          !
 ! D11   D(1,2,3,23)          -165.1809                                         !
 ! D12   D(5,2,3,4)            127.2639                                         !
 ! D13   D(5,2,3,23)           -46.993                                          !
 ! D14   D(13,2,3,4)          -105.6101                                         !
 ! D15   D(13,2,3,23)           80.1331                                         !
 ! D16   D(1,2,5,6)            -47.2687                                         !
 ! D17   D(1,2,5,14)            74.1291                                         !
 ! D18   D(1,2,5,15)          -168.9992                                         !
 ! D19   D(3,2,5,6)           -162.9675                                         !
 ! D20   D(3,2,5,14)           -41.5696                                         !
 ! D21   D(3,2,5,15)            75.302                                          !
 ! D22   D(13,2,5,6)            69.3467                                         !
 ! D23   D(13,2,5,14)         -169.2555                                         !
 ! D24   D(13,2,5,15)          -52.3838                                         !
 ! D25   D(2,3,23,24)          165.576                                          !
 ! D26   D(2,3,23,29)          -24.0902                                         !
 ! D27   D(4,3,23,24)           -8.3824                                         !
 ! D28   D(4,3,23,29)          161.9514                                         !
 ! D29   D(2,5,6,7)             98.5807                                         !
 ! D30   D(2,5,6,8)            -78.6428                                         !
 ! D31   D(14,5,6,7)           -21.9723                                         !
 ! D32   D(14,5,6,8)           160.8041                                         !
 ! D33   D(15,5,6,7)          -141.0503                                         !
 ! D34   D(15,5,6,8)            41.7261                                         !
 ! D35   D(5,6,7,9)           -177.6853                                         !
 ! D36   D(5,6,7,16)             2.8141                                         !
 ! D37   D(8,6,7,9)             -0.423                                          !
 ! D38   D(8,6,7,16)          -179.9236                                         !
 ! D39   D(5,6,8,10)           177.6676                                         !
 ! D40   D(5,6,8,17)            -3.4584                                         !
 ! D41   D(7,6,8,10)             0.4237                                         !
 ! D42   D(7,6,8,17)           179.2978                                         !
 ! D43   D(6,7,9,11)             0.2307                                         !
 ! D44   D(6,7,9,18)          -179.3001                                         !
 ! D45   D(16,7,9,11)          179.7275                                         !
 ! D46   D(16,7,9,18)            0.1967                                         !
 ! D47   D(6,8,10,11)           -0.2314                                         !
 ! D48   D(6,8,10,19)          179.2602                                         !
 ! D49   D(17,8,10,11)        -179.1061                                         !
 ! D50   D(17,8,10,19)           0.3855                                         !
 ! D51   D(7,9,11,10)           -0.034                                          !
 ! D52   D(7,9,11,20)         -179.6805                                         !
 ! D53   D(18,9,11,10)         179.4948                                         !
 ! D54   D(18,9,11,20)          -0.1517                                         !
 ! D55   D(8,10,11,9)            0.0341                                         !
 ! D56   D(8,10,11,20)         179.6809                                         !
 ! D57   D(19,10,11,9)        -179.4561                                         !
 ! D58   D(19,10,11,20)          0.1908                                         !
 ! D59   D(3,23,24,25)         -58.9279                                         !
 ! D60   D(3,23,24,27)         177.7583                                         !
 ! D61   D(3,23,24,30)          58.1967                                         !
 ! D62   D(29,23,24,25)        129.1774                                         !
 ! D63   D(29,23,24,27)          5.8636                                         !
 ! D64   D(29,23,24,30)       -113.6981                                         !
 ! D65   D(3,23,29,28)        -151.972                                          !
 ! D66   D(3,23,29,35)         -30.3775                                         !
 ! D67   D(3,23,29,36)          90.33                                           !
 ! D68   D(24,23,29,28)         18.8518                                         !
 ! D69   D(24,23,29,35)        140.4463                                         !
 ! D70   D(24,23,29,36)        -98.8462                                         !
 ! D71   D(23,24,25,26)        148.4861                                         !
 ! D72   D(23,24,25,37)        -32.7168                                         !
 ! D73   D(27,24,25,26)        -94.9015                                         !
 ! D74   D(27,24,25,37)         83.8956                                         !
 ! D75   D(30,24,25,26)         28.9078                                         !
 ! D76   D(30,24,25,37)       -152.295                                          !
 ! D77   D(23,24,27,28)        -28.262                                          !
 ! D78   D(23,24,27,31)         89.6069                                         !
 ! D79   D(23,24,27,32)       -150.7729                                         !
 ! D80   D(25,24,27,28)       -149.8565                                         !
 ! D81   D(25,24,27,31)        -31.9875                                         !
 ! D82   D(25,24,27,32)         87.6326                                         !
 ! D83   D(30,24,27,28)         89.7786                                         !
 ! D84   D(30,24,27,31)       -152.3524                                         !
 ! D85   D(30,24,27,32)        -32.7323                                         !
 ! D86   D(24,25,37,38)        152.4842                                         !
 ! D87   D(24,25,37,48)          4.3871                                         !
 ! D88   D(26,25,37,38)        -28.7554                                         !
 ! D89   D(26,25,37,48)       -176.8525                                         !
 ! D90   D(24,27,28,29)         40.1497                                         !
 ! D91   D(24,27,28,33)        161.2076                                         !
 ! D92   D(24,27,28,34)        -77.0821                                         !
 ! D93   D(31,27,28,29)        -77.5989                                         !
 ! D94   D(31,27,28,33)         43.459                                          !
 ! D95   D(31,27,28,34)        165.1693                                         !
 ! D96   D(32,27,28,29)        161.1684                                         !
 ! D97   D(32,27,28,33)        -77.7737                                         !
 ! D98   D(32,27,28,34)         43.9366                                         !
 ! D99   D(27,28,29,23)        -35.7653                                         !
 ! D100  D(27,28,29,35)       -155.4134                                         !
 ! D101  D(27,28,29,36)         82.1848                                         !
 ! D102  D(33,28,29,23)       -157.6742                                         !
 ! D103  D(33,28,29,35)         82.6777                                         !
 ! D104  D(33,28,29,36)        -39.724                                          !
 ! D105  D(34,28,29,23)         81.8576                                         !
 ! D106  D(34,28,29,35)        -37.7905                                         !
 ! D107  D(34,28,29,36)       -160.1923                                         !
 ! D108  D(25,37,38,39)        -73.5123                                         !
 ! D109  D(25,37,38,41)        164.4856                                         !
 ! D110  D(25,37,38,49)         42.0109                                         !
 ! D111  D(48,37,38,39)         75.1142                                         !
 ! D112  D(48,37,38,41)        -46.8879                                         !
 ! D113  D(48,37,38,49)       -169.3626                                         !
 ! D114  D(37,38,39,40)        -82.7039                                         !
 ! D115  D(37,38,39,46)         84.4724                                         !
 ! D116  D(41,38,39,40)         35.2356                                         !
 ! D117  D(41,38,39,46)       -157.5881                                         !
 ! D118  D(49,38,39,40)        162.9015                                         !
 ! D119  D(49,38,39,46)        -29.9222                                         !
 ! D120  D(37,38,41,42)        174.6722                                         !
 ! D121  D(37,38,41,50)         52.457                                          !
 ! D122  D(37,38,41,51)        -61.7854                                         !
 ! D123  D(39,38,41,42)         59.9429                                         !
 ! D124  D(39,38,41,50)        -62.2722                                         !
 ! D125  D(39,38,41,51)       -176.5146                                         !
 ! D126  D(49,38,41,42)        -65.946                                          !
 ! D127  D(49,38,41,50)        171.8388                                         !
 ! D128  D(49,38,41,51)         57.5964                                         !
 ! D129  D(38,39,46,47)       -161.4583                                         !
 ! D130  D(40,39,46,47)          5.6491                                         !
 ! D131  D(38,41,42,43)         60.8096                                         !
 ! D132  D(38,41,42,52)       -176.9268                                         !
 ! D133  D(38,41,42,53)        -62.453                                          !
 ! D134  D(50,41,42,43)       -177.1041                                         !
 ! D135  D(50,41,42,52)        -54.8405                                         !
 ! D136  D(50,41,42,53)         59.6332                                         !
 ! D137  D(51,41,42,43)        -60.8528                                         !
 ! D138  D(51,41,42,52)         61.4108                                         !
 ! D139  D(51,41,42,53)        175.8846                                         !
 ! D140  D(41,42,43,44)       -112.7976                                         !
 ! D141  D(41,42,43,54)        125.9193                                         !
 ! D142  D(41,42,43,55)          9.4364                                         !
 ! D143  D(52,42,43,44)        126.5468                                         !
 ! D144  D(52,42,43,54)          5.2636                                         !
 ! D145  D(52,42,43,55)       -111.2192                                         !
 ! D146  D(53,42,43,44)          9.9352                                         !
 ! D147  D(53,42,43,54)       -111.348                                          !
 ! D148  D(53,42,43,55)        132.1692                                         !
 ! D149  D(42,43,44,45)         58.2839                                         !
 ! D150  D(42,43,44,56)       -176.083                                          !
 ! D151  D(42,43,44,57)        -59.313                                          !
 ! D152  D(54,43,44,45)       -179.3254                                         !
 ! D153  D(54,43,44,56)        -53.6922                                         !
 ! D154  D(54,43,44,57)         63.0778                                         !
 ! D155  D(55,43,44,45)        -64.7227                                         !
 ! D156  D(55,43,44,56)         60.9105                                         !
 ! D157  D(55,43,44,57)        177.6804                                         !
 ! D158  D(43,44,45,58)         78.3865                                         !
 ! D159  D(43,44,45,59)       -165.2974                                         !
 ! D160  D(56,44,45,58)        -45.299                                          !
 ! D161  D(56,44,45,59)         71.0172                                         !
 ! D162  D(57,44,45,58)       -163.1913                                         !
 ! D163  D(57,44,45,59)        -46.8751                                         !
 --------------------------------------------------------------------------------
 Symmetry turned off by external request.
 Stoichiometry    C20H31N4O4(1+)
 Framework group  C1[X(C20H31N4O4)]
 Deg. of freedom   171
 Full point group                 C1      NOp   1
                          Input orientation:                          
 ---------------------------------------------------------------------
 Center     Atomic      Atomic             Coordinates (Angstroms)
 Number     Number       Type             X           Y           Z
 ---------------------------------------------------------------------
      1          7           0       -7.200586   18.335114   14.335903
      2          6           0       -7.625183   19.575363   13.582892
      3          6           0       -9.100670   19.291721   13.210271
      4          8           0       -9.636916   18.297970   13.711237
      5          6           0       -6.660564   19.768322   12.389221
      6          6           0       -5.208441   19.628627   12.798816
      7          6           0       -4.533007   18.416438   12.587649
      8          6           0       -4.542448   20.681411   13.442313
      9          6           0       -3.208913   18.266533   13.007137
     10          6           0       -3.220029   20.529504   13.860437
     11          6           0       -2.551806   19.321380   13.643520
     12          1           0       -7.266814   17.518115   13.671555
     13          1           0       -7.541623   20.415419   14.280653
     14          1           0       -6.903774   19.023829   11.626231
     15          1           0       -6.841577   20.758793   11.967272
     16          1           0       -5.045760   17.597400   12.087571
     17          1           0       -5.053694   21.629117   13.600499
     18          1           0       -2.690489   17.328899   12.829373
     19          1           0       -2.709208   21.355022   14.347169
     20          1           0       -1.520984   19.205901   13.964648
     21          1           0       -7.847818   18.147819   15.107288
     22          1           0       -6.233243   18.426850   14.664540
     23          7           0       -9.708572   20.052809   12.278067
     24          6           0      -10.993558   19.573402   11.702603
     25          6           0      -10.840067   18.194880   11.023917
     26          8           0      -11.752930   17.395492   11.001831
     27          6           0      -11.391814   20.714094   10.744625
     28          6           0      -10.749558   21.957687   11.379397
     29          6           0       -9.386763   21.432018   11.849670
     30          1           0      -11.727566   19.431719   12.499507
     31          1           0      -10.969134   20.534665    9.748929
     32          1           0      -12.475825   20.786433   10.640038
     33          1           0      -10.648306   22.794318   10.683581
     34          1           0      -11.336899   22.295397   12.240254
     35          1           0       -8.955709   22.005774   12.675155
     36          1           0       -8.672419   21.423611   11.017249
     37          7           0       -9.607167   17.979030   10.438853
     38          6           0       -9.025407   16.637725   10.272358
     39          6           0       -8.602546   16.263519   11.694819
     40          8           0       -7.537802   16.636294   12.198875
     41          6           0       -7.873520   16.723730    9.266837
     42          6           0       -7.051309   15.446386    9.049469
     43          6           0       -7.845343   14.231793    8.511557
     44          6           0       -7.943056   13.099118    9.537508
     45          7           0       -8.586610   13.587801   10.767119
     46          8           0       -9.600524   15.744058   12.397722
     47          1           0       -9.386975   15.795083   13.347120
     48          1           0       -8.921032   18.709818   10.575858
     49          1           0       -9.820686   15.969451    9.945691
     50          1           0       -7.191711   17.520909    9.597386
     51          1           0       -8.310720   17.058337    8.318371
     52          1           0       -6.246870   15.702546    8.350541
     53          1           0       -6.568094   15.178104    9.995625
     54          1           0       -7.374451   13.838514    7.603311
     55          1           0       -8.858827   14.535592    8.211250
     56          1           0       -8.452931   12.230187    9.092501
     57          1           0       -6.930115   12.771954    9.802267
     58          1           0       -9.596402   13.640202   10.637854
     59          1           0       -8.442257   12.930767   11.531696
 ---------------------------------------------------------------------
 Rotational constants (GHZ):           0.1936444           0.1504766           0.1001474
 Standard basis: 6-31G(d) (6D, 7F)
   482 basis functions,   908 primitive gaussians,   482 cartesian basis functions
   105 alpha electrons      105 beta electrons
       nuclear repulsion energy      2925.7431961932 Hartrees.
 NAtoms=   59 NActive=   59 NUniq=   59 SFac= 1.00D+00 NAtFMM=   60 NAOKFM=F Big=F
 Integral buffers will be    131072 words long.
 Raffenetti 2 integral format.
 Two-electron integral symmetry is turned off.
 Nuclear repulsion after empirical dispersion term =     2925.6618411773 Hartrees.
 One-electron integrals computed using PRISM.
 NBasis=   482 RedAO= T EigKep=  4.67D-04  NBF=   482
 NBsUse=   482 1.00D-06 EigRej= -1.00D+00 NBFU=   482
 Initial guess from the checkpoint file:  "conf-669.chk"
 B after Tr=     0.000000    0.000000    0.000000
         Rot=    1.000000    0.000000    0.000000    0.000000 Ang=   0.00 deg.
 Requested convergence on RMS density matrix=1.00D-08 within 128 cycles.
 Requested convergence on MAX density matrix=1.00D-06.
 Requested convergence on             energy=1.00D-06.
 No special actions if energy rises.
 SCF Done:  E(RB3LYP) =  -1300.60345142     A.U. after    2 cycles
            NFock=  2  Conv=0.96D-08     -V/T= 2.0095

 **********************************************************************

            Population analysis using the SCF Density.

 **********************************************************************

 Alpha  occ. eigenvalues --  -19.30759 -19.26608 -19.26224 -19.21768 -14.58521
 Alpha  occ. eigenvalues --  -14.50372 -14.46616 -14.40447 -10.44259 -10.43565
 Alpha  occ. eigenvalues --  -10.40718 -10.39109 -10.35715 -10.34549 -10.34118
 Alpha  occ. eigenvalues --  -10.33832 -10.31955 -10.30812 -10.30626 -10.30500
 Alpha  occ. eigenvalues --  -10.30402 -10.30069 -10.30031 -10.29813 -10.28789
 Alpha  occ. eigenvalues --  -10.28645 -10.26715 -10.26180  -1.22422  -1.18816
 Alpha  occ. eigenvalues --   -1.13939  -1.13569  -1.12760  -1.07972  -1.03219
 Alpha  occ. eigenvalues --   -0.97500  -0.96727  -0.93707  -0.91290  -0.89760
 Alpha  occ. eigenvalues --   -0.87336  -0.86108  -0.85662  -0.83945  -0.79901
 Alpha  occ. eigenvalues --   -0.79105  -0.77363  -0.74422  -0.73612  -0.72597
 Alpha  occ. eigenvalues --   -0.71687  -0.71333  -0.70600  -0.69699  -0.69174
 Alpha  occ. eigenvalues --   -0.67693  -0.65883  -0.64812  -0.63415  -0.62615
 Alpha  occ. eigenvalues --   -0.62193  -0.61804  -0.60410  -0.59386  -0.59219
 Alpha  occ. eigenvalues --   -0.57563  -0.57045  -0.56998  -0.56143  -0.55768
 Alpha  occ. eigenvalues --   -0.55331  -0.54768  -0.54130  -0.53719  -0.53164
 Alpha  occ. eigenvalues --   -0.52922  -0.52412  -0.52213  -0.51297  -0.51052
 Alpha  occ. eigenvalues --   -0.50771  -0.50316  -0.49565  -0.48924  -0.48191
 Alpha  occ. eigenvalues --   -0.47491  -0.47199  -0.47065  -0.45855  -0.45651
 Alpha  occ. eigenvalues --   -0.45320  -0.45231  -0.44634  -0.43633  -0.42106
 Alpha  occ. eigenvalues --   -0.41503  -0.40985  -0.40590  -0.40244  -0.38744
 Alpha  occ. eigenvalues --   -0.36399  -0.36128  -0.35979  -0.34727  -0.32794
 Alpha virt. eigenvalues --   -0.13683  -0.11966  -0.11689  -0.11594  -0.07998
 Alpha virt. eigenvalues --   -0.07517  -0.05688  -0.04582  -0.03370  -0.02358
 Alpha virt. eigenvalues --   -0.02155  -0.01788  -0.00688  -0.00199   0.00471
 Alpha virt. eigenvalues --    0.01891   0.02018   0.02200   0.02505   0.02797
 Alpha virt. eigenvalues --    0.03541   0.03860   0.04301   0.05115   0.05419
 Alpha virt. eigenvalues --    0.05903   0.06100   0.06604   0.06777   0.06928
 Alpha virt. eigenvalues --    0.07206   0.07699   0.08425   0.08685   0.09377
 Alpha virt. eigenvalues --    0.09596   0.10113   0.10607   0.11071   0.11280
 Alpha virt. eigenvalues --    0.11481   0.12040   0.12839   0.13231   0.13971
 Alpha virt. eigenvalues --    0.14711   0.15196   0.15908   0.16213   0.16728
 Alpha virt. eigenvalues --    0.17092   0.17900   0.19563   0.20127   0.20806
 Alpha virt. eigenvalues --    0.21386   0.21997   0.22712   0.23436   0.24558
 Alpha virt. eigenvalues --    0.25581   0.27928   0.29239   0.29798   0.32755
 Alpha virt. eigenvalues --    0.35851   0.36597   0.39149   0.39737   0.40101
 Alpha virt. eigenvalues --    0.40968   0.41804   0.42400   0.42871   0.43155
 Alpha virt. eigenvalues --    0.43286   0.43767   0.43808   0.44637   0.45341
 Alpha virt. eigenvalues --    0.45826   0.46072   0.46574   0.47252   0.48387
 Alpha virt. eigenvalues --    0.48733   0.49421   0.49668   0.49907   0.50144
 Alpha virt. eigenvalues --    0.50551   0.51097   0.51482   0.52017   0.52109
 Alpha virt. eigenvalues --    0.52630   0.52911   0.53888   0.54183   0.54374
 Alpha virt. eigenvalues --    0.55652   0.56627   0.56708   0.57540   0.57708
 Alpha virt. eigenvalues --    0.58602   0.59436   0.60971   0.62192   0.62744
 Alpha virt. eigenvalues --    0.63266   0.63363   0.64137   0.65954   0.66613
 Alpha virt. eigenvalues --    0.67249   0.68177   0.68695   0.69009   0.69887
 Alpha virt. eigenvalues --    0.70619   0.71648   0.72400   0.72551   0.72923
 Alpha virt. eigenvalues --    0.73329   0.73557   0.74272   0.74485   0.74874
 Alpha virt. eigenvalues --    0.75134   0.75318   0.75769   0.76635   0.77040
 Alpha virt. eigenvalues --    0.77231   0.78239   0.78462   0.79028   0.79683
 Alpha virt. eigenvalues --    0.80207   0.80682   0.81432   0.81673   0.82288
 Alpha virt. eigenvalues --    0.82922   0.83245   0.83450   0.84298   0.84688
 Alpha virt. eigenvalues --    0.85202   0.85740   0.86739   0.87438   0.87858
 Alpha virt. eigenvalues --    0.88309   0.89406   0.89536   0.90527   0.91386
 Alpha virt. eigenvalues --    0.91488   0.91820   0.93458   0.93776   0.95179
 Alpha virt. eigenvalues --    0.96137   0.97308   0.97708   0.98497   0.99443
 Alpha virt. eigenvalues --    1.00052   1.01931   1.02482   1.03746   1.04362
 Alpha virt. eigenvalues --    1.05882   1.06106   1.06626   1.07439   1.07731
 Alpha virt. eigenvalues --    1.08975   1.12268   1.13251   1.13554   1.14678
 Alpha virt. eigenvalues --    1.16307   1.17373   1.19816   1.21137   1.21373
 Alpha virt. eigenvalues --    1.23663   1.25008   1.25869   1.27172   1.28474
 Alpha virt. eigenvalues --    1.30451   1.30933   1.31814   1.32130   1.33300
 Alpha virt. eigenvalues --    1.34266   1.35245   1.36085   1.37272   1.37403
 Alpha virt. eigenvalues --    1.38073   1.39770   1.40595   1.40985   1.42974
 Alpha virt. eigenvalues --    1.43846   1.44349   1.45585   1.47687   1.49576
 Alpha virt. eigenvalues --    1.50462   1.51902   1.53262   1.55428   1.55767
 Alpha virt. eigenvalues --    1.58259   1.60052   1.60919   1.61553   1.63583
 Alpha virt. eigenvalues --    1.64486   1.65356   1.65928   1.66076   1.66651
 Alpha virt. eigenvalues --    1.67314   1.68267   1.68851   1.69510   1.70537
 Alpha virt. eigenvalues --    1.71227   1.71411   1.72997   1.73216   1.74548
 Alpha virt. eigenvalues --    1.75870   1.76023   1.77552   1.77766   1.78682
 Alpha virt. eigenvalues --    1.79121   1.79592   1.80480   1.81554   1.82110
 Alpha virt. eigenvalues --    1.83396   1.84369   1.85381   1.86257   1.86455
 Alpha virt. eigenvalues --    1.87503   1.87853   1.88088   1.89129   1.90050
 Alpha virt. eigenvalues --    1.91093   1.92193   1.92591   1.93602   1.93996
 Alpha virt. eigenvalues --    1.94567   1.95186   1.96059   1.97250   1.97825
 Alpha virt. eigenvalues --    1.98191   1.99377   2.00472   2.01940   2.02519
 Alpha virt. eigenvalues --    2.03043   2.03791   2.04868   2.05538   2.06515
 Alpha virt. eigenvalues --    2.06876   2.09301   2.10193   2.10637   2.12013
 Alpha virt. eigenvalues --    2.14457   2.15523   2.16808   2.17400   2.18542
 Alpha virt. eigenvalues --    2.19546   2.19822   2.21774   2.22670   2.23942
 Alpha virt. eigenvalues --    2.24564   2.25876   2.28113   2.28763   2.29771
 Alpha virt. eigenvalues --    2.30610   2.30715   2.31618   2.33755   2.34053
 Alpha virt. eigenvalues --    2.35337   2.38104   2.39912   2.40567   2.41813
 Alpha virt. eigenvalues --    2.41955   2.43842   2.46005   2.46217   2.47464
 Alpha virt. eigenvalues --    2.48392   2.50499   2.51317   2.51558   2.52352
 Alpha virt. eigenvalues --    2.53377   2.54188   2.54414   2.56981   2.58109
 Alpha virt. eigenvalues --    2.59706   2.60549   2.61481   2.63069   2.63170
 Alpha virt. eigenvalues --    2.64227   2.64764   2.66142   2.67780   2.71376
 Alpha virt. eigenvalues --    2.72702   2.75637   2.79562   2.80707   2.86326
 Alpha virt. eigenvalues --    2.87405   2.91797   2.92734   2.93108   2.95383
 Alpha virt. eigenvalues --    2.98910   3.03873   3.08095   3.29497   3.72045
 Alpha virt. eigenvalues --    3.75653   3.85671   3.91207   3.94624   3.98525
 Alpha virt. eigenvalues --    3.99681   4.01523   4.06258   4.08650   4.09335
 Alpha virt. eigenvalues --    4.13144   4.14463   4.18937   4.22324   4.25492
 Alpha virt. eigenvalues --    4.26308   4.29361   4.31409   4.40137   4.41530
 Alpha virt. eigenvalues --    4.42274   4.45119   4.45549   4.51878   4.57890
 Alpha virt. eigenvalues --    4.59536   4.67694
          Condensed to atoms (all electrons):
 Mulliken charges:
               1
     1  N   -0.750879
     2  C   -0.116889
     3  C    0.621802
     4  O   -0.538980
     5  C   -0.389505
     6  C    0.110569
     7  C   -0.221733
     8  C   -0.184353
     9  C   -0.125997
    10  C   -0.126070
    11  C   -0.123772
    12  H    0.440936
    13  H    0.214809
    14  H    0.194444
    15  H    0.190868
    16  H    0.172812
    17  H    0.138627
    18  H    0.163775
    19  H    0.164859
    20  H    0.166760
    21  H    0.409697
    22  H    0.407580
    23  N   -0.482518
    24  C   -0.025925
    25  C    0.619451
    26  O   -0.475490
    27  C   -0.316570
    28  C   -0.297395
    29  C   -0.150540
    30  H    0.208614
    31  H    0.172232
    32  H    0.200233
    33  H    0.184146
    34  H    0.178310
    35  H    0.173666
    36  H    0.173468
    37  N   -0.624908
    38  C   -0.014170
    39  C    0.683378
    40  O   -0.559706
    41  C   -0.289832
    42  C   -0.259369
    43  C   -0.266910
    44  C   -0.152102
    45  N   -0.743593
    46  O   -0.522652
    47  H    0.416697
    48  H    0.327796
    49  H    0.200208
    50  H    0.129635
    51  H    0.169228
    52  H    0.149231
    53  H    0.157605
    54  H    0.156306
    55  H    0.139325
    56  H    0.143815
    57  H    0.151312
    58  H    0.315523
    59  H    0.312141
 Sum of Mulliken charges =   1.00000
 Mulliken charges with hydrogens summed into heavy atoms:
               1
     1  N    0.507335
     2  C    0.097920
     3  C    0.621802
     4  O   -0.538980
     5  C   -0.004193
     6  C    0.110569
     7  C   -0.048921
     8  C   -0.045726
     9  C    0.037778
    10  C    0.038788
    11  C    0.042988
    23  N   -0.482518
    24  C    0.182689
    25  C    0.619451
    26  O   -0.475490
    27  C    0.055895
    28  C    0.065061
    29  C    0.196594
    37  N   -0.297112
    38  C    0.186037
    39  C    0.683378
    40  O   -0.559706
    41  C    0.009031
    42  C    0.047468
    43  C    0.028721
    44  C    0.143025
    45  N   -0.115929
    46  O   -0.105955
 Electronic spatial extent (au):  <R**2>=         407338.3865
 Charge=              1.0000 electrons
 Dipole moment (field-independent basis, Debye):
    X=            -34.3379    Y=             90.7852    Z=             61.9629  Tot=            115.1540
 Quadrupole moment (field-independent basis, Debye-Ang):
   XX=             97.3371   YY=           1599.5856   ZZ=            661.0451
   XY=           -659.7695   XZ=           -433.2013   YZ=           1176.8481
 Traceless Quadrupole moment (field-independent basis, Debye-Ang):
   XX=           -688.6522   YY=            813.5963   ZZ=           -124.9441
   XY=           -659.7695   XZ=           -433.2013   YZ=           1176.8481
 Octapole moment (field-independent basis, Debye-Ang**2):
  XXX=           1904.3386  YYY=          26070.8277  ZZZ=           5478.9108  XYY=         -11776.7145
  XXY=           2197.1371  XXZ=           1320.7690  XZZ=          -4368.5976  YZZ=          12722.1013
  YYZ=          20963.1841  XYZ=          -8341.6816
 Hexadecapole moment (field-independent basis, Debye-Ang**3):
 XXXX=         -53265.6929 YYYY=         376338.4890 ZZZZ=          17953.7314 XXXY=          29188.8849
 XXXZ=          20542.5200 YYYX=        -194415.1825 YYYZ=         347693.7137 ZZZX=         -31402.9618
 ZZZY=         108203.0316 XXYY=          39405.3648 XXZZ=           7499.8984 YYZZ=         226908.4081
 XXYZ=          28927.9768 YYXZ=        -150086.9176 ZZXY=         -85460.6238
 N-N= 2.925661841177D+03 E-N=-8.853167823076D+03  KE= 1.288380440152D+03
 Unable to Open any file for archive entry.
 1\1\GINC-LAC-309\SP\RB3LYP\6-31G(d)\C20H31N4O4(1+)\KENGMITH\25-May-202
 2\0\\# B3LYP/6-31G* empiricaldispersion=gd3 guess=read geom=check nosy
 mm integral(ultrafinegrid)\\Candidate Structure: Conf:669 Charge calc 
 in gas phase\\1,1\N,0,-7.2005858768,18.3351135217,14.3359029283\C,0,-7
 .6251830435,19.5753632787,13.5828920504\C,0,-9.100670235,19.2917209285
 ,13.2102711368\O,0,-9.6369161625,18.2979695518,13.7112373816\C,0,-6.66
 05643483,19.7683215007,12.3892209967\C,0,-5.2084405326,19.6286268801,1
 2.7988164721\C,0,-4.5330066166,18.4164380219,12.5876494907\C,0,-4.5424
 475322,20.6814113894,13.4423130263\C,0,-3.2089133196,18.2665329892,13.
 007136898\C,0,-3.2200290242,20.5295039821,13.8604374797\C,0,-2.5518063
 236,19.3213801093,13.643519763\H,0,-7.2668137839,17.5181147756,13.6715
 554293\H,0,-7.5416226031,20.4154186239,14.2806532366\H,0,-6.9037741744
 ,19.0238289051,11.6262306633\H,0,-6.8415772816,20.7587929095,11.967272
 4236\H,0,-5.0457602398,17.5974002213,12.0875713441\H,0,-5.0536940844,2
 1.6291172941,13.6004990408\H,0,-2.6904889462,17.3288987815,12.82937284
 14\H,0,-2.7092081746,21.3550215056,14.3471692037\H,0,-1.5209843862,19.
 2059006914,13.9646480225\H,0,-7.8478178814,18.1478192155,15.1072884682
 \H,0,-6.2332429177,18.4268501767,14.6645398016\N,0,-9.708571921,20.052
 8092241,12.2780671229\C,0,-10.9935576482,19.573402427,11.7026032265\C,
 0,-10.840066599,18.1948796588,11.0239167717\O,0,-11.7529301728,17.3954
 91629,11.0018314605\C,0,-11.3918141071,20.7140942406,10.744625448\C,0,
 -10.7495575223,21.9576867128,11.3793966827\C,0,-9.3867629788,21.432018
 0599,11.8496695966\H,0,-11.7275658066,19.4317193137,12.4995070927\H,0,
 -10.969134236,20.5346645022,9.7489290787\H,0,-12.4758253066,20.7864326
 334,10.6400382341\H,0,-10.6483058516,22.7943183104,10.6835810539\H,0,-
 11.3368987318,22.2953972791,12.2402542347\H,0,-8.9557094303,22.0057736
 861,12.6751553594\H,0,-8.6724190092,21.4236110719,11.0172488978\N,0,-9
 .6071674655,17.9790303877,10.4388534458\C,0,-9.0254071787,16.637724735
 9,10.2723583772\C,0,-8.602545514,16.2635193549,11.6948193255\O,0,-7.53
 78017603,16.6362944184,12.1988752436\C,0,-7.8735199587,16.7237303612,9
 .2668371916\C,0,-7.0513092698,15.4463864298,9.049468575\C,0,-7.8453433
 062,14.2317931099,8.5115569754\C,0,-7.9430559504,13.0991182712,9.53750
 79841\N,0,-8.5866096581,13.5878009639,10.7671189268\O,0,-9.6005237671,
 15.7440579216,12.3977220659\H,0,-9.3869750687,15.7950827055,13.3471202
 233\H,0,-8.9210315545,18.7098180526,10.5758584201\H,0,-9.8206861866,15
 .9694506131,9.9456906065\H,0,-7.191710592,17.5209091268,9.597386296\H,
 0,-8.3107195184,17.0583368561,8.3183705487\H,0,-6.2468699525,15.702546
 0073,8.350541406\H,0,-6.5680944421,15.1781041685,9.9956253989\H,0,-7.3
 744514607,13.8385139968,7.6033114419\H,0,-8.8588265085,14.5355916871,8
 .2112498305\H,0,-8.4529310398,12.230186754,9.0925013229\H,0,-6.9301146
 342,12.7719537928,9.8022672028\H,0,-9.5964017235,13.640202126,10.63785
 35955\H,0,-8.4422569199,12.9307667867,11.5316959468\\Version=ES64L-G16
 RevC.01\HF=-1300.6034514\RMSD=9.570e-09\Dipole=1.5778964,1.6008805,2.1
 204454\Quadrupole=-511.9960105,604.888915,-92.8929045,-490.5224453,-32
 2.0745565,874.9577122\PG=C01 [X(C20H31N4O4)]\\@
 The archive entry for this job was punched.


 SOME PEOPLE TRY TO PULL THE WOOL OVER YOUR EYES
 USING THE WRONG YARN.
 Job cpu time:       0 days  0 hours  2 minutes 12.0 seconds.
 Elapsed time:       0 days  0 hours  0 minutes 33.4 seconds.
 File lengths (MBytes):  RWF=    240 Int=      0 D2E=      0 Chk=     32 Scr=     16
 Normal termination of Gaussian 16 at Wed May 25 19:10:17 2022.
