 Entering Gaussian System, Link 0=/opt/software/Gaussian/g16-AVX2-C.01/g16/g16
 Input=charge-conf-472.com
 Output=charge-conf-472.log
 Initial command:
 /opt/software/Gaussian/g16-AVX2-C.01/g16/l1.exe "/mnt/gs18/scratch/users/kengmith/Gau-19391.inp" -scrdir="/mnt/gs18/scratch/users/kengmith/"
 Entering Link 1 = /opt/software/Gaussian/g16-AVX2-C.01/g16/l1.exe PID=     19402.
  
 Copyright (c) 1988-2019, Gaussian, Inc.  All Rights Reserved.
  
 This is part of the Gaussian(R) 16 program.  It is based on
 the Gaussian(R) 09 system (copyright 2009, Gaussian, Inc.),
 the Gaussian(R) 03 system (copyright 2003, Gaussian, Inc.),
 the Gaussian(R) 98 system (copyright 1998, Gaussian, Inc.),
 the Gaussian(R) 94 system (copyright 1995, Gaussian, Inc.),
 the Gaussian 92(TM) system (copyright 1992, Gaussian, Inc.),
 the Gaussian 90(TM) system (copyright 1990, Gaussian, Inc.),
 the Gaussian 88(TM) system (copyright 1988, Gaussian, Inc.),
 the Gaussian 86(TM) system (copyright 1986, Carnegie Mellon
 University), and the Gaussian 82(TM) system (copyright 1983,
 Carnegie Mellon University). Gaussian is a federally registered
 trademark of Gaussian, Inc.
  
 This software contains proprietary and confidential information,
 including trade secrets, belonging to Gaussian, Inc.
  
 This software is provided under written license and may be
 used, copied, transmitted, or stored only in accord with that
 written license.
  
 The following legend is applicable only to US Government
 contracts under FAR:
  
                    RESTRICTED RIGHTS LEGEND
  
 Use, reproduction and disclosure by the US Government is
 subject to restrictions as set forth in subparagraphs (a)
 and (c) of the Commercial Computer Software - Restricted
 Rights clause in FAR 52.227-19.
  
 Gaussian, Inc.
 340 Quinnipiac St., Bldg. 40, Wallingford CT 06492
  
  
 ---------------------------------------------------------------
 Warning -- This program may not be used in any manner that
 competes with the business of Gaussian, Inc. or will provide
 assistance to any competitor of Gaussian, Inc.  The licensee
 of this program is prohibited from giving any competitor of
 Gaussian, Inc. access to this program.  By using this program,
 the user acknowledges that Gaussian, Inc. is engaged in the
 business of creating and licensing software in the field of
 computational chemistry and represents and warrants to the
 licensee that it is not a competitor of Gaussian, Inc. and that
 it will not use this program in any manner prohibited above.
 ---------------------------------------------------------------
  

 Cite this work as:
 Gaussian 16, Revision C.01,
 M. J. Frisch, G. W. Trucks, H. B. Schlegel, G. E. Scuseria, 
 M. A. Robb, J. R. Cheeseman, G. Scalmani, V. Barone, 
 G. A. Petersson, H. Nakatsuji, X. Li, M. Caricato, A. V. Marenich, 
 J. Bloino, B. G. Janesko, R. Gomperts, B. Mennucci, H. P. Hratchian, 
 J. V. Ortiz, A. F. Izmaylov, J. L. Sonnenberg, D. Williams-Young, 
 F. Ding, F. Lipparini, F. Egidi, J. Goings, B. Peng, A. Petrone, 
 T. Henderson, D. Ranasinghe, V. G. Zakrzewski, J. Gao, N. Rega, 
 G. Zheng, W. Liang, M. Hada, M. Ehara, K. Toyota, R. Fukuda, 
 J. Hasegawa, M. Ishida, T. Nakajima, Y. Honda, O. Kitao, H. Nakai, 
 T. Vreven, K. Throssell, J. A. Montgomery, Jr., J. E. Peralta, 
 F. Ogliaro, M. J. Bearpark, J. J. Heyd, E. N. Brothers, K. N. Kudin, 
 V. N. Staroverov, T. A. Keith, R. Kobayashi, J. Normand, 
 K. Raghavachari, A. P. Rendell, J. C. Burant, S. S. Iyengar, 
 J. Tomasi, M. Cossi, J. M. Millam, M. Klene, C. Adamo, R. Cammi, 
 J. W. Ochterski, R. L. Martin, K. Morokuma, O. Farkas, 
 J. B. Foresman, and D. J. Fox, Gaussian, Inc., Wallingford CT, 2019.
 
 ******************************************
 Gaussian 16:  ES64L-G16RevC.01  3-Jul-2019
                25-May-2022 
 ******************************************
 %mem=8gb
 %nproc=4
 Will use up to    4 processors via shared memory.
 %chk=conf-472.chk
 ----------------------------------------------------------------------
 # B3LYP/6-31G* empiricaldispersion=gd3 guess=read geom=check nosymm in
 tegral(ultrafinegrid)
 ----------------------------------------------------------------------
 1/29=2,38=1,172=1/1;
 2/12=2,15=1,40=1/2;
 3/5=1,6=6,7=1,11=2,14=-4,25=1,30=1,74=-5,75=-5,116=-2,124=31/1,2,3;
 4/5=1/1;
 5/5=2,38=6/2;
 6/7=2,8=2,9=2,10=2,28=1/1;
 99/5=1,9=1/99;
 ------------------------------------------------------
 Candidate Structure: Conf:472 Charge calc in gas phase
 ------------------------------------------------------
 Structure from the checkpoint file:  "conf-472.chk"
 Charge =  1 Multiplicity = 1
 Redundant internal coordinates found in file.  (old form).
 N,0,-9.9870986433,18.6791343373,10.4191882093
 C,0,-9.5443810231,19.8713070302,11.2358180815
 C,0,-8.0318887453,19.9695338933,10.9038876399
 O,0,-7.6435153188,19.409459202,9.8735378094
 C,0,-9.9509830628,19.647898192,12.7096475748
 C,0,-11.3678618995,19.1218345623,12.829378343
 C,0,-11.6000453756,17.7489599767,13.0001607928
 C,0,-12.4624324827,19.9895443309,12.7074747491
 C,0,-12.9057154833,17.2561379193,13.0566592956
 C,0,-13.7666185939,19.4961551019,12.7633622066
 C,0,-13.9899225304,18.1279441733,12.9379813752
 H,0,-9.5618544812,17.818213311,10.8621071841
 H,0,-10.0688805277,20.7417861739,10.8258227056
 H,0,-9.2460670562,18.946788896,13.1632677777
 H,0,-9.8657346337,20.6021487195,13.2330084722
 H,0,-10.7549661228,17.0701443748,13.0906323781
 H,0,-12.2942553058,21.0579593951,12.5855532636
 H,0,-13.0743491965,16.1926677597,13.1990764411
 H,0,-14.6067197116,20.1792501894,12.6789204303
 H,0,-15.0048202164,17.7447689024,12.9864962902
 H,0,-9.5657352365,18.7550809611,9.4840540907
 H,0,-11.0063378597,18.5962887663,10.3916155525
 N,0,-7.1738008882,20.5720684063,11.7531377677
 C,0,-5.7214857058,20.4513041687,11.4638598173
 C,0,-5.2810320605,18.9830560296,11.3462892271
 O,0,-4.436995097,18.6386251708,10.5372182266
 C,0,-5.0729458688,21.2260838523,12.6252448667
 C,0,-6.117218186,22.3034365847,12.9535836456
 C,0,-7.4461875217,21.5437586443,12.8362864272
 H,0,-5.4968156956,20.9048803505,10.4948174949
 H,0,-4.9261150622,20.5609953993,13.4845084561
 H,0,-4.099618771,21.6312821098,12.3419400432
 H,0,-5.9856269286,22.7463322591,13.9439964492
 H,0,-6.0795307089,23.1082265421,12.2112258395
 H,0,-8.287831735,22.1915920717,12.5762430006
 H,0,-7.6802829742,21.0216576039,13.771077267
 N,0,-5.8797078253,18.1177349843,12.2380198163
 C,0,-5.9939429657,16.7115015287,11.8809103688
 C,0,-7.404018208,16.4628581815,11.3215672164
 O,0,-8.3702971165,17.0652918285,11.8149706461
 C,0,-5.7111843264,15.7660114251,13.0623992264
 C,0,-5.6159627106,14.2831531637,12.6635161476
 C,0,-4.4066716183,13.9357488033,11.7528152502
 C,0,-4.7592313228,13.4516204765,10.3427782158
 N,0,-5.3349681275,14.5336194437,9.4972990081
 O,0,-7.5560673952,15.6058439966,10.3566232725
 H,0,-6.6379177668,15.1843053677,10.0282207124
 H,0,-6.6811564007,18.4775594612,12.7415826968
 H,0,-5.2552171458,16.5490973444,11.0966856947
 H,0,-6.4954887806,15.9004286237,13.8182303699
 H,0,-4.7685912935,16.0920169025,13.5171635961
 H,0,-5.5494813367,13.6981895196,13.5865653132
 H,0,-6.5512947097,13.9673115153,12.1836440519
 H,0,-3.818035077,13.1383838418,12.2194219289
 H,0,-3.722871066,14.7935116979,11.6765116057
 H,0,-3.8662298078,13.0295579425,9.8642385021
 H,0,-5.5086447626,12.6545344501,10.3982099185
 H,0,-4.628247402,15.2527205536,9.3283449427
 H,0,-5.5714572043,14.1595998361,8.5768505366
 Recover connectivity data from disk.
                           ----------------------------
                           !    Current Parameters    !
                           ! (Angstroms and Degrees)  !
 --------------------------                            --------------------------
 ! Name  Definition              Value                                          !
 --------------------------------------------------------------------------------
 ! R1    R(1,2)                  1.5113                                         !
 ! R2    R(1,12)                 1.0574                                         !
 ! R3    R(1,21)                 1.0285                                         !
 ! R4    R(1,22)                 1.023                                          !
 ! R5    R(2,3)                  1.5516                                         !
 ! R6    R(2,5)                  1.5451                                         !
 ! R7    R(2,13)                 1.0959                                         !
 ! R8    R(3,4)                  1.2354                                         !
 ! R9    R(3,23)                 1.3493                                         !
 ! R10   R(5,6)                  1.5161                                         !
 ! R11   R(5,14)                 1.0928                                         !
 ! R12   R(5,15)                 1.0917                                         !
 ! R13   R(6,7)                  1.4028                                         !
 ! R14   R(6,8)                  1.4021                                         !
 ! R15   R(7,9)                  1.3967                                         !
 ! R16   R(7,16)                 1.0877                                         !
 ! R17   R(8,10)                 1.3955                                         !
 ! R18   R(8,17)                 1.0884                                         !
 ! R19   R(9,11)                 1.3963                                         !
 ! R20   R(9,18)                 1.0861                                         !
 ! R21   R(10,11)                1.3973                                         !
 ! R22   R(10,19)                1.0861                                         !
 ! R23   R(11,20)                1.0859                                         !
 ! R24   R(23,24)                1.4858                                         !
 ! R25   R(23,29)                1.4804                                         !
 ! R26   R(24,25)                1.5374                                         !
 ! R27   R(24,27)                1.5394                                         !
 ! R28   R(24,30)                1.0933                                         !
 ! R29   R(25,26)                1.2189                                         !
 ! R30   R(25,37)                1.3793                                         !
 ! R31   R(27,28)                1.5359                                         !
 ! R32   R(27,31)                1.0965                                         !
 ! R33   R(27,32)                1.0917                                         !
 ! R34   R(28,29)                1.5353                                         !
 ! R35   R(28,33)                1.0929                                         !
 ! R36   R(28,34)                1.0955                                         !
 ! R37   R(29,35)                1.0935                                         !
 ! R38   R(29,36)                1.096                                          !
 ! R39   R(37,38)                1.4554                                         !
 ! R40   R(37,48)                1.0126                                         !
 ! R41   R(38,39)                1.5372                                         !
 ! R42   R(38,41)                1.5394                                         !
 ! R43   R(38,49)                1.0895                                         !
 ! R44   R(39,40)                1.241                                          !
 ! R45   R(39,46)                1.2995                                         !
 ! R46   R(41,42)                1.5385                                         !
 ! R47   R(41,50)                1.0975                                         !
 ! R48   R(41,51)                1.0962                                         !
 ! R49   R(42,43)                1.5532                                         !
 ! R50   R(42,52)                1.0948                                         !
 ! R51   R(42,53)                1.0977                                         !
 ! R52   R(43,44)                1.532                                          !
 ! R53   R(43,54)                1.0954                                         !
 ! R54   R(43,55)                1.0996                                         !
 ! R55   R(44,45)                1.489                                          !
 ! R56   R(44,56)                1.0975                                         !
 ! R57   R(44,57)                1.0955                                         !
 ! R58   R(45,58)                1.0223                                         !
 ! R59   R(45,59)                1.0213                                         !
 ! R60   R(46,47)                1.0623                                         !
 ! A1    A(2,1,12)             107.3431                                         !
 ! A2    A(2,1,21)             108.2418                                         !
 ! A3    A(2,1,22)             111.7346                                         !
 ! A4    A(12,1,21)            106.0337                                         !
 ! A5    A(12,1,22)            110.2447                                         !
 ! A6    A(21,1,22)            112.9339                                         !
 ! A7    A(1,2,3)              102.7027                                         !
 ! A8    A(1,2,5)              108.9209                                         !
 ! A9    A(1,2,13)             106.5125                                         !
 ! A10   A(3,2,5)              118.0167                                         !
 ! A11   A(3,2,13)             109.6473                                         !
 ! A12   A(5,2,13)             110.2287                                         !
 ! A13   A(2,3,4)              117.1408                                         !
 ! A14   A(2,3,23)             120.9005                                         !
 ! A15   A(4,3,23)             121.8348                                         !
 ! A16   A(2,5,6)              111.8034                                         !
 ! A17   A(2,5,14)             108.6                                            !
 ! A18   A(2,5,15)             108.0804                                         !
 ! A19   A(6,5,14)             110.3305                                         !
 ! A20   A(6,5,15)             109.7804                                         !
 ! A21   A(14,5,15)            108.1453                                         !
 ! A22   A(5,6,7)              120.2564                                         !
 ! A23   A(5,6,8)              120.5285                                         !
 ! A24   A(7,6,8)              119.146                                          !
 ! A25   A(6,7,9)              120.3288                                         !
 ! A26   A(6,7,16)             119.4913                                         !
 ! A27   A(9,7,16)             120.1798                                         !
 ! A28   A(6,8,10)             120.4838                                         !
 ! A29   A(6,8,17)             119.7758                                         !
 ! A30   A(10,8,17)            119.732                                          !
 ! A31   A(7,9,11)             120.1408                                         !
 ! A32   A(7,9,18)             119.7305                                         !
 ! A33   A(11,9,18)            120.1277                                         !
 ! A34   A(8,10,11)            120.0372                                         !
 ! A35   A(8,10,19)            119.8296                                         !
 ! A36   A(11,10,19)           120.1313                                         !
 ! A37   A(9,11,10)            119.8622                                         !
 ! A38   A(9,11,20)            120.1058                                         !
 ! A39   A(10,11,20)           120.0312                                         !
 ! A40   A(3,23,24)            117.5677                                         !
 ! A41   A(3,23,29)            129.539                                          !
 ! A42   A(24,23,29)           112.065                                          !
 ! A43   A(23,24,25)           111.8736                                         !
 ! A44   A(23,24,27)           102.9449                                         !
 ! A45   A(23,24,30)           109.8604                                         !
 ! A46   A(25,24,27)           114.6873                                         !
 ! A47   A(25,24,30)           105.6381                                         !
 ! A48   A(27,24,30)           111.9211                                         !
 ! A49   A(24,25,26)           121.2671                                         !
 ! A50   A(24,25,37)           115.1738                                         !
 ! A51   A(26,25,37)           123.5349                                         !
 ! A52   A(24,27,28)           103.1723                                         !
 ! A53   A(24,27,31)           110.0208                                         !
 ! A54   A(24,27,32)           111.5085                                         !
 ! A55   A(28,27,31)           110.4261                                         !
 ! A56   A(28,27,32)           113.6601                                         !
 ! A57   A(31,27,32)           108.0058                                         !
 ! A58   A(27,28,29)           103.0103                                         !
 ! A59   A(27,28,33)           113.3365                                         !
 ! A60   A(27,28,34)           110.3063                                         !
 ! A61   A(29,28,33)           111.9622                                         !
 ! A62   A(29,28,34)           109.9686                                         !
 ! A63   A(33,28,34)           108.1943                                         !
 ! A64   A(23,29,28)           102.792                                          !
 ! A65   A(23,29,35)           110.8849                                         !
 ! A66   A(23,29,36)           110.5279                                         !
 ! A67   A(28,29,35)           113.0346                                         !
 ! A68   A(28,29,36)           110.8206                                         !
 ! A69   A(35,29,36)           108.7029                                         !
 ! A70   A(25,37,38)           118.7919                                         !
 ! A71   A(25,37,48)           116.2392                                         !
 ! A72   A(38,37,48)           113.7815                                         !
 ! A73   A(37,38,39)           108.5164                                         !
 ! A74   A(37,38,41)           112.9989                                         !
 ! A75   A(37,38,49)           105.5109                                         !
 ! A76   A(39,38,41)           110.3901                                         !
 ! A77   A(39,38,49)           109.6289                                         !
 ! A78   A(41,38,49)           109.6537                                         !
 ! A79   A(38,39,40)           119.4094                                         !
 ! A80   A(38,39,46)           118.9596                                         !
 ! A81   A(40,39,46)           121.6191                                         !
 ! A82   A(38,41,42)           113.8504                                         !
 ! A83   A(38,41,50)           108.7885                                         !
 ! A84   A(38,41,51)           107.079                                          !
 ! A85   A(42,41,50)           109.9274                                         !
 ! A86   A(42,41,51)           109.937                                          !
 ! A87   A(50,41,51)           107.0002                                         !
 ! A88   A(41,42,43)           114.5685                                         !
 ! A89   A(41,42,52)           107.4662                                         !
 ! A90   A(41,42,53)           109.751                                          !
 ! A91   A(43,42,52)           109.1207                                         !
 ! A92   A(43,42,53)           110.044                                          !
 ! A93   A(52,42,53)           105.4614                                         !
 ! A94   A(42,43,44)           115.5424                                         !
 ! A95   A(42,43,54)           109.3552                                         !
 ! A96   A(42,43,55)           110.5101                                         !
 ! A97   A(44,43,54)           106.6                                            !
 ! A98   A(44,43,55)           109.0114                                         !
 ! A99   A(54,43,55)           105.26                                           !
 ! A100  A(43,44,45)           112.4565                                         !
 ! A101  A(43,44,56)           109.6085                                         !
 ! A102  A(43,44,57)           109.9261                                         !
 ! A103  A(45,44,56)           110.2719                                         !
 ! A104  A(45,44,57)           107.0352                                         !
 ! A105  A(56,44,57)           107.3897                                         !
 ! A106  A(44,45,58)           109.7364                                         !
 ! A107  A(44,45,59)           109.5829                                         !
 ! A108  A(58,45,59)           105.5888                                         !
 ! A109  A(39,46,47)           112.9615                                         !
 ! D1    D(12,1,2,3)            70.1356                                         !
 ! D2    D(12,1,2,5)           -55.7582                                         !
 ! D3    D(12,1,2,13)         -174.6305                                         !
 ! D4    D(21,1,2,3)           -43.9184                                         !
 ! D5    D(21,1,2,5)          -169.8123                                         !
 ! D6    D(21,1,2,13)           71.3154                                         !
 ! D7    D(22,1,2,3)          -168.8837                                         !
 ! D8    D(22,1,2,5)            65.2224                                         !
 ! D9    D(22,1,2,13)          -53.6499                                         !
 ! D10   D(1,2,3,4)             19.8551                                         !
 ! D11   D(1,2,3,23)          -156.171                                          !
 ! D12   D(5,2,3,4)            139.6211                                         !
 ! D13   D(5,2,3,23)           -36.405                                          !
 ! D14   D(13,2,3,4)           -93.0895                                         !
 ! D15   D(13,2,3,23)           90.8844                                         !
 ! D16   D(1,2,5,6)            -44.6133                                         !
 ! D17   D(1,2,5,14)            77.3553                                         !
 ! D18   D(1,2,5,15)          -165.5457                                         !
 ! D19   D(3,2,5,6)           -161.0814                                         !
 ! D20   D(3,2,5,14)           -39.1127                                         !
 ! D21   D(3,2,5,15)            77.9863                                         !
 ! D22   D(13,2,5,6)            71.9075                                         !
 ! D23   D(13,2,5,14)         -166.1238                                         !
 ! D24   D(13,2,5,15)          -49.0248                                         !
 ! D25   D(2,3,23,24)          171.2019                                         !
 ! D26   D(2,3,23,29)          -20.1435                                         !
 ! D27   D(4,3,23,24)           -4.6353                                         !
 ! D28   D(4,3,23,29)          164.0193                                         !
 ! D29   D(2,5,6,7)             98.1747                                         !
 ! D30   D(2,5,6,8)            -78.7773                                         !
 ! D31   D(14,5,6,7)           -22.7946                                         !
 ! D32   D(14,5,6,8)           160.2533                                         !
 ! D33   D(15,5,6,7)          -141.8854                                         !
 ! D34   D(15,5,6,8)            41.1626                                         !
 ! D35   D(5,6,7,9)           -177.4156                                         !
 ! D36   D(5,6,7,16)             2.7197                                         !
 ! D37   D(8,6,7,9)             -0.4216                                         !
 ! D38   D(8,6,7,16)           179.7137                                         !
 ! D39   D(5,6,8,10)           177.3751                                         !
 ! D40   D(5,6,8,17)            -3.6839                                         !
 ! D41   D(7,6,8,10)             0.3896                                         !
 ! D42   D(7,6,8,17)           179.3305                                         !
 ! D43   D(6,7,9,11)             0.2535                                         !
 ! D44   D(6,7,9,18)          -179.3924                                         !
 ! D45   D(16,7,9,11)         -179.8828                                         !
 ! D46   D(16,7,9,18)            0.4714                                         !
 ! D47   D(6,8,10,11)           -0.1885                                         !
 ! D48   D(6,8,10,19)          179.3142                                         !
 ! D49   D(17,8,10,11)        -179.1298                                         !
 ! D50   D(17,8,10,19)           0.3728                                         !
 ! D51   D(7,9,11,10)           -0.0474                                         !
 ! D52   D(7,9,11,20)         -179.7227                                         !
 ! D53   D(18,9,11,10)         179.5971                                         !
 ! D54   D(18,9,11,20)          -0.0782                                         !
 ! D55   D(8,10,11,9)            0.0148                                         !
 ! D56   D(8,10,11,20)         179.6903                                         !
 ! D57   D(19,10,11,9)        -179.4863                                         !
 ! D58   D(19,10,11,20)          0.1892                                         !
 ! D59   D(3,23,24,25)         -55.595                                          !
 ! D60   D(3,23,24,27)        -179.2424                                         !
 ! D61   D(3,23,24,30)          61.3963                                         !
 ! D62   D(29,23,24,25)        133.8268                                         !
 ! D63   D(29,23,24,27)         10.1794                                         !
 ! D64   D(29,23,24,30)       -109.182                                          !
 ! D65   D(3,23,29,28)        -154.4667                                         !
 ! D66   D(3,23,29,35)         -33.396                                          !
 ! D67   D(3,23,29,36)          87.2248                                         !
 ! D68   D(24,23,29,28)         14.6873                                         !
 ! D69   D(24,23,29,35)        135.758                                          !
 ! D70   D(24,23,29,36)       -103.6212                                         !
 ! D71   D(23,24,25,26)        143.2692                                         !
 ! D72   D(23,24,25,37)        -38.4612                                         !
 ! D73   D(27,24,25,26)        -99.9731                                         !
 ! D74   D(27,24,25,37)         78.2965                                         !
 ! D75   D(30,24,25,26)         23.7619                                         !
 ! D76   D(30,24,25,37)       -157.9685                                         !
 ! D77   D(23,24,27,28)        -30.8963                                         !
 ! D78   D(23,24,27,31)         86.928                                          !
 ! D79   D(23,24,27,32)       -153.2561                                         !
 ! D80   D(25,24,27,28)       -152.6581                                         !
 ! D81   D(25,24,27,31)        -34.8338                                         !
 ! D82   D(25,24,27,32)         84.9821                                         !
 ! D83   D(30,24,27,28)         87.0249                                         !
 ! D84   D(30,24,27,31)       -155.1508                                         !
 ! D85   D(30,24,27,32)        -35.3349                                         !
 ! D86   D(24,25,37,38)        154.2199                                         !
 ! D87   D(24,25,37,48)         12.6024                                         !
 ! D88   D(26,25,37,38)        -27.5545                                         !
 ! D89   D(26,25,37,48)       -169.172                                          !
 ! D90   D(24,27,28,29)         40.3804                                         !
 ! D91   D(24,27,28,33)        161.5606                                         !
 ! D92   D(24,27,28,34)        -76.957                                          !
 ! D93   D(31,27,28,29)        -77.1593                                         !
 ! D94   D(31,27,28,33)         44.0209                                         !
 ! D95   D(31,27,28,34)        165.5033                                         !
 ! D96   D(32,27,28,29)        161.2873                                         !
 ! D97   D(32,27,28,33)        -77.5325                                         !
 ! D98   D(32,27,28,34)         43.9499                                         !
 ! D99   D(27,28,29,23)        -33.56                                           !
 ! D100  D(27,28,29,35)       -153.1491                                         !
 ! D101  D(27,28,29,36)         84.5426                                         !
 ! D102  D(33,28,29,23)       -155.6707                                         !
 ! D103  D(33,28,29,35)         84.7402                                         !
 ! D104  D(33,28,29,36)        -37.5681                                         !
 ! D105  D(34,28,29,23)         84.0157                                         !
 ! D106  D(34,28,29,35)        -35.5734                                         !
 ! D107  D(34,28,29,36)       -157.8817                                         !
 ! D108  D(25,37,38,39)        -97.706                                          !
 ! D109  D(25,37,38,41)        139.5209                                         !
 ! D110  D(25,37,38,49)         19.7202                                         !
 ! D111  D(48,37,38,39)         44.8053                                         !
 ! D112  D(48,37,38,41)        -77.9677                                         !
 ! D113  D(48,37,38,49)        162.2316                                         !
 ! D114  D(37,38,39,40)        -36.7988                                         !
 ! D115  D(37,38,39,46)        144.4295                                         !
 ! D116  D(41,38,39,40)         87.5393                                         !
 ! D117  D(41,38,39,46)        -91.2324                                         !
 ! D118  D(49,38,39,40)       -151.562                                          !
 ! D119  D(49,38,39,46)         29.6663                                         !
 ! D120  D(37,38,41,42)       -171.2302                                         !
 ! D121  D(37,38,41,50)         65.8112                                         !
 ! D122  D(37,38,41,51)        -49.5043                                         !
 ! D123  D(39,38,41,42)         67.0457                                         !
 ! D124  D(39,38,41,50)        -55.9129                                         !
 ! D125  D(39,38,41,51)       -171.2284                                         !
 ! D126  D(49,38,41,42)        -53.8383                                         !
 ! D127  D(49,38,41,50)       -176.7969                                         !
 ! D128  D(49,38,41,51)         67.8876                                         !
 ! D129  D(38,39,46,47)         -2.2316                                         !
 ! D130  D(40,39,46,47)        179.025                                          !
 ! D131  D(38,41,42,43)         66.0436                                         !
 ! D132  D(38,41,42,52)       -172.5285                                         !
 ! D133  D(38,41,42,53)        -58.3287                                         !
 ! D134  D(50,41,42,43)       -171.6224                                         !
 ! D135  D(50,41,42,52)        -50.1945                                         !
 ! D136  D(50,41,42,53)         64.0054                                         !
 ! D137  D(51,41,42,43)        -54.0853                                         !
 ! D138  D(51,41,42,52)         67.3426                                         !
 ! D139  D(51,41,42,53)       -178.4576                                         !
 ! D140  D(41,42,43,44)       -115.2242                                         !
 ! D141  D(41,42,43,54)        124.546                                          !
 ! D142  D(41,42,43,55)          9.1257                                         !
 ! D143  D(52,42,43,44)        124.2593                                         !
 ! D144  D(52,42,43,54)          4.0294                                         !
 ! D145  D(52,42,43,55)       -111.3908                                         !
 ! D146  D(53,42,43,44)          8.9926                                         !
 ! D147  D(53,42,43,54)       -111.2373                                         !
 ! D148  D(53,42,43,55)        133.3425                                         !
 ! D149  D(42,43,44,45)         69.2555                                         !
 ! D150  D(42,43,44,56)       -167.704                                          !
 ! D151  D(42,43,44,57)        -49.8892                                         !
 ! D152  D(54,43,44,45)       -169.025                                          !
 ! D153  D(54,43,44,56)        -45.9846                                         !
 ! D154  D(54,43,44,57)         71.8303                                         !
 ! D155  D(55,43,44,45)        -55.8709                                         !
 ! D156  D(55,43,44,56)         67.1696                                         !
 ! D157  D(55,43,44,57)       -175.0156                                         !
 ! D158  D(43,44,45,58)         65.6787                                         !
 ! D159  D(43,44,45,59)       -178.8117                                         !
 ! D160  D(56,44,45,58)        -56.9891                                         !
 ! D161  D(56,44,45,59)         58.5205                                         !
 ! D162  D(57,44,45,58)       -173.5016                                         !
 ! D163  D(57,44,45,59)        -57.992                                          !
 --------------------------------------------------------------------------------
 Symmetry turned off by external request.
 Stoichiometry    C20H31N4O4(1+)
 Framework group  C1[X(C20H31N4O4)]
 Deg. of freedom   171
 Full point group                 C1      NOp   1
                          Input orientation:                          
 ---------------------------------------------------------------------
 Center     Atomic      Atomic             Coordinates (Angstroms)
 Number     Number       Type             X           Y           Z
 ---------------------------------------------------------------------
      1          7           0       -9.987099   18.679134   10.419188
      2          6           0       -9.544381   19.871307   11.235818
      3          6           0       -8.031889   19.969534   10.903888
      4          8           0       -7.643515   19.409459    9.873538
      5          6           0       -9.950983   19.647898   12.709648
      6          6           0      -11.367862   19.121835   12.829378
      7          6           0      -11.600045   17.748960   13.000161
      8          6           0      -12.462432   19.989544   12.707475
      9          6           0      -12.905715   17.256138   13.056659
     10          6           0      -13.766619   19.496155   12.763362
     11          6           0      -13.989923   18.127944   12.937981
     12          1           0       -9.561854   17.818213   10.862107
     13          1           0      -10.068881   20.741786   10.825823
     14          1           0       -9.246067   18.946789   13.163268
     15          1           0       -9.865735   20.602149   13.233008
     16          1           0      -10.754966   17.070144   13.090632
     17          1           0      -12.294255   21.057959   12.585553
     18          1           0      -13.074349   16.192668   13.199076
     19          1           0      -14.606720   20.179250   12.678920
     20          1           0      -15.004820   17.744769   12.986496
     21          1           0       -9.565735   18.755081    9.484054
     22          1           0      -11.006338   18.596289   10.391616
     23          7           0       -7.173801   20.572068   11.753138
     24          6           0       -5.721486   20.451304   11.463860
     25          6           0       -5.281032   18.983056   11.346289
     26          8           0       -4.436995   18.638625   10.537218
     27          6           0       -5.072946   21.226084   12.625245
     28          6           0       -6.117218   22.303437   12.953584
     29          6           0       -7.446188   21.543759   12.836286
     30          1           0       -5.496816   20.904880   10.494817
     31          1           0       -4.926115   20.560995   13.484508
     32          1           0       -4.099619   21.631282   12.341940
     33          1           0       -5.985627   22.746332   13.943996
     34          1           0       -6.079531   23.108227   12.211226
     35          1           0       -8.287832   22.191592   12.576243
     36          1           0       -7.680283   21.021658   13.771077
     37          7           0       -5.879708   18.117735   12.238020
     38          6           0       -5.993943   16.711502   11.880910
     39          6           0       -7.404018   16.462858   11.321567
     40          8           0       -8.370297   17.065292   11.814971
     41          6           0       -5.711184   15.766011   13.062399
     42          6           0       -5.615963   14.283153   12.663516
     43          6           0       -4.406672   13.935749   11.752815
     44          6           0       -4.759231   13.451620   10.342778
     45          7           0       -5.334968   14.533619    9.497299
     46          8           0       -7.556067   15.605844   10.356623
     47          1           0       -6.637918   15.184305   10.028221
     48          1           0       -6.681156   18.477559   12.741583
     49          1           0       -5.255217   16.549097   11.096686
     50          1           0       -6.495489   15.900429   13.818230
     51          1           0       -4.768591   16.092017   13.517164
     52          1           0       -5.549481   13.698190   13.586565
     53          1           0       -6.551295   13.967312   12.183644
     54          1           0       -3.818035   13.138384   12.219422
     55          1           0       -3.722871   14.793512   11.676512
     56          1           0       -3.866230   13.029558    9.864239
     57          1           0       -5.508645   12.654534   10.398210
     58          1           0       -4.628247   15.252721    9.328345
     59          1           0       -5.571457   14.159600    8.576851
 ---------------------------------------------------------------------
 Rotational constants (GHZ):           0.2231615           0.1234424           0.0906749
 Standard basis: 6-31G(d) (6D, 7F)
   482 basis functions,   908 primitive gaussians,   482 cartesian basis functions
   105 alpha electrons      105 beta electrons
       nuclear repulsion energy      2881.9093200455 Hartrees.
 NAtoms=   59 NActive=   59 NUniq=   59 SFac= 1.00D+00 NAtFMM=   60 NAOKFM=F Big=F
 Integral buffers will be    131072 words long.
 Raffenetti 2 integral format.
 Two-electron integral symmetry is turned off.
 Nuclear repulsion after empirical dispersion term =     2881.8311887434 Hartrees.
 One-electron integrals computed using PRISM.
 NBasis=   482 RedAO= T EigKep=  4.69D-04  NBF=   482
 NBsUse=   482 1.00D-06 EigRej= -1.00D+00 NBFU=   482
 Initial guess from the checkpoint file:  "conf-472.chk"
 B after Tr=     0.000000    0.000000    0.000000
         Rot=    1.000000    0.000000    0.000000    0.000000 Ang=   0.00 deg.
 Requested convergence on RMS density matrix=1.00D-08 within 128 cycles.
 Requested convergence on MAX density matrix=1.00D-06.
 Requested convergence on             energy=1.00D-06.
 No special actions if energy rises.
 SCF Done:  E(RB3LYP) =  -1300.63393896     A.U. after    2 cycles
            NFock=  2  Conv=0.74D-08     -V/T= 2.0095

 **********************************************************************

            Population analysis using the SCF Density.

 **********************************************************************

 Alpha  occ. eigenvalues --  -19.27907 -19.25083 -19.24907 -19.21516 -14.56309
 Alpha  occ. eigenvalues --  -14.49456 -14.46310 -14.45629 -10.42851 -10.42329
 Alpha  occ. eigenvalues --  -10.39224 -10.38766 -10.34769 -10.33930 -10.33608
 Alpha  occ. eigenvalues --  -10.32333 -10.32170 -10.30816 -10.30176 -10.29981
 Alpha  occ. eigenvalues --  -10.29576 -10.29329 -10.29108 -10.29052 -10.28952
 Alpha  occ. eigenvalues --  -10.28849 -10.28521 -10.28284  -1.20144  -1.17612
 Alpha  occ. eigenvalues --   -1.13486  -1.11956  -1.10890  -1.06899  -1.02470
 Alpha  occ. eigenvalues --   -1.01515  -0.96354  -0.92476  -0.90400  -0.90321
 Alpha  occ. eigenvalues --   -0.87196  -0.85114  -0.84674  -0.84525  -0.79549
 Alpha  occ. eigenvalues --   -0.78617  -0.76248  -0.72953  -0.72403  -0.71315
 Alpha  occ. eigenvalues --   -0.71286  -0.70748  -0.69765  -0.69174  -0.68599
 Alpha  occ. eigenvalues --   -0.68263  -0.67585  -0.64999  -0.62261  -0.61781
 Alpha  occ. eigenvalues --   -0.61460  -0.61096  -0.60844  -0.58858  -0.58285
 Alpha  occ. eigenvalues --   -0.57759  -0.57169  -0.56271  -0.55921  -0.55242
 Alpha  occ. eigenvalues --   -0.54886  -0.54549  -0.54138  -0.53366  -0.53065
 Alpha  occ. eigenvalues --   -0.52361  -0.52122  -0.51917  -0.51515  -0.51003
 Alpha  occ. eigenvalues --   -0.50241  -0.50013  -0.49122  -0.49025  -0.47938
 Alpha  occ. eigenvalues --   -0.47653  -0.46705  -0.46384  -0.46157  -0.45191
 Alpha  occ. eigenvalues --   -0.45043  -0.44447  -0.44191  -0.43991  -0.43415
 Alpha  occ. eigenvalues --   -0.42767  -0.41508  -0.39755  -0.39090  -0.38373
 Alpha  occ. eigenvalues --   -0.37673  -0.35573  -0.35380  -0.35014  -0.34582
 Alpha virt. eigenvalues --   -0.12595  -0.10855  -0.10629  -0.10072  -0.07902
 Alpha virt. eigenvalues --   -0.05777  -0.04372  -0.03671  -0.02764  -0.01368
 Alpha virt. eigenvalues --   -0.00465  -0.00087   0.00564   0.01175   0.01284
 Alpha virt. eigenvalues --    0.01839   0.02812   0.02990   0.03236   0.03365
 Alpha virt. eigenvalues --    0.03841   0.04596   0.04915   0.05022   0.05505
 Alpha virt. eigenvalues --    0.05863   0.06276   0.06475   0.06979   0.07132
 Alpha virt. eigenvalues --    0.07402   0.07928   0.08478   0.09121   0.09492
 Alpha virt. eigenvalues --    0.09864   0.10030   0.10177   0.10432   0.10810
 Alpha virt. eigenvalues --    0.11684   0.11783   0.12406   0.13076   0.13958
 Alpha virt. eigenvalues --    0.14169   0.14744   0.15219   0.16298   0.17191
 Alpha virt. eigenvalues --    0.17531   0.18344   0.19074   0.20506   0.20758
 Alpha virt. eigenvalues --    0.22402   0.22704   0.24073   0.24448   0.25346
 Alpha virt. eigenvalues --    0.27572   0.29301   0.30232   0.31014   0.33983
 Alpha virt. eigenvalues --    0.36556   0.37662   0.39766   0.40098   0.40496
 Alpha virt. eigenvalues --    0.41258   0.41818   0.42434   0.42564   0.43143
 Alpha virt. eigenvalues --    0.43564   0.44127   0.44579   0.44625   0.45271
 Alpha virt. eigenvalues --    0.45758   0.46625   0.46920   0.47610   0.48581
 Alpha virt. eigenvalues --    0.48999   0.49440   0.49661   0.50366   0.50720
 Alpha virt. eigenvalues --    0.51179   0.51355   0.51952   0.52022   0.52750
 Alpha virt. eigenvalues --    0.53019   0.53799   0.54238   0.54575   0.55130
 Alpha virt. eigenvalues --    0.55810   0.56155   0.56313   0.57374   0.58377
 Alpha virt. eigenvalues --    0.59251   0.60470   0.61004   0.61031   0.62008
 Alpha virt. eigenvalues --    0.62539   0.64408   0.64932   0.65602   0.67196
 Alpha virt. eigenvalues --    0.67735   0.68226   0.69095   0.69969   0.70397
 Alpha virt. eigenvalues --    0.70803   0.71531   0.71765   0.72194   0.73071
 Alpha virt. eigenvalues --    0.73567   0.73963   0.74003   0.74604   0.74899
 Alpha virt. eigenvalues --    0.75085   0.75722   0.75993   0.76128   0.77053
 Alpha virt. eigenvalues --    0.77513   0.77731   0.78165   0.78422   0.78953
 Alpha virt. eigenvalues --    0.79673   0.80152   0.80437   0.81056   0.81803
 Alpha virt. eigenvalues --    0.82007   0.82412   0.83012   0.84099   0.84419
 Alpha virt. eigenvalues --    0.84702   0.85127   0.85344   0.86238   0.86649
 Alpha virt. eigenvalues --    0.87754   0.88290   0.89292   0.89814   0.90488
 Alpha virt. eigenvalues --    0.91678   0.91834   0.94272   0.94394   0.95164
 Alpha virt. eigenvalues --    0.95658   0.97322   0.98637   0.99828   1.00477
 Alpha virt. eigenvalues --    1.01058   1.01916   1.02450   1.03193   1.04482
 Alpha virt. eigenvalues --    1.05317   1.06167   1.07744   1.08387   1.09125
 Alpha virt. eigenvalues --    1.10596   1.12517   1.13672   1.14926   1.16103
 Alpha virt. eigenvalues --    1.16879   1.18933   1.19235   1.22650   1.24393
 Alpha virt. eigenvalues --    1.25368   1.25913   1.26608   1.27997   1.28123
 Alpha virt. eigenvalues --    1.30042   1.32232   1.32559   1.33102   1.33602
 Alpha virt. eigenvalues --    1.35226   1.35800   1.37337   1.37870   1.38496
 Alpha virt. eigenvalues --    1.39036   1.40321   1.40692   1.41309   1.42207
 Alpha virt. eigenvalues --    1.43712   1.45616   1.48063   1.49660   1.50282
 Alpha virt. eigenvalues --    1.51760   1.52595   1.54145   1.55978   1.56888
 Alpha virt. eigenvalues --    1.58453   1.59008   1.60379   1.63305   1.63816
 Alpha virt. eigenvalues --    1.64370   1.65255   1.66460   1.66631   1.67543
 Alpha virt. eigenvalues --    1.68497   1.69230   1.69680   1.69856   1.70834
 Alpha virt. eigenvalues --    1.71281   1.72109   1.73176   1.74258   1.75237
 Alpha virt. eigenvalues --    1.75483   1.76449   1.76946   1.77809   1.78228
 Alpha virt. eigenvalues --    1.79154   1.79801   1.80350   1.80990   1.82180
 Alpha virt. eigenvalues --    1.82980   1.83224   1.84756   1.86043   1.87098
 Alpha virt. eigenvalues --    1.87428   1.88365   1.89004   1.89561   1.90150
 Alpha virt. eigenvalues --    1.91433   1.92397   1.92453   1.93119   1.94154
 Alpha virt. eigenvalues --    1.94830   1.95235   1.95614   1.96229   1.97303
 Alpha virt. eigenvalues --    1.98753   1.98964   1.99707   2.00234   2.02304
 Alpha virt. eigenvalues --    2.03122   2.04080   2.04837   2.06357   2.07445
 Alpha virt. eigenvalues --    2.08070   2.09343   2.10463   2.12089   2.12568
 Alpha virt. eigenvalues --    2.13764   2.15261   2.16059   2.18485   2.18699
 Alpha virt. eigenvalues --    2.19728   2.20724   2.21547   2.22919   2.24328
 Alpha virt. eigenvalues --    2.25616   2.26326   2.27172   2.28333   2.29115
 Alpha virt. eigenvalues --    2.30150   2.30920   2.32513   2.34619   2.34991
 Alpha virt. eigenvalues --    2.35976   2.36746   2.39648   2.40337   2.41479
 Alpha virt. eigenvalues --    2.43174   2.45163   2.46427   2.47342   2.48206
 Alpha virt. eigenvalues --    2.50500   2.50676   2.51580   2.52385   2.52489
 Alpha virt. eigenvalues --    2.54776   2.54841   2.55536   2.56200   2.57574
 Alpha virt. eigenvalues --    2.59792   2.60769   2.61963   2.62623   2.64096
 Alpha virt. eigenvalues --    2.64296   2.64717   2.65574   2.66311   2.67164
 Alpha virt. eigenvalues --    2.71753   2.73699   2.80300   2.81041   2.86446
 Alpha virt. eigenvalues --    2.87405   2.92139   2.93628   2.93998   2.97624
 Alpha virt. eigenvalues --    2.99662   3.03993   3.09330   3.30564   3.73874
 Alpha virt. eigenvalues --    3.75817   3.88139   3.91483   3.98256   3.99636
 Alpha virt. eigenvalues --    4.01868   4.03797   4.06620   4.07872   4.10664
 Alpha virt. eigenvalues --    4.12810   4.14596   4.16996   4.21317   4.24171
 Alpha virt. eigenvalues --    4.26075   4.28383   4.30944   4.36382   4.40657
 Alpha virt. eigenvalues --    4.43630   4.46305   4.47058   4.54392   4.58498
 Alpha virt. eigenvalues --    4.60234   4.67094
          Condensed to atoms (all electrons):
 Mulliken charges:
               1
     1  N   -0.755161
     2  C   -0.110396
     3  C    0.636732
     4  O   -0.532004
     5  C   -0.377314
     6  C    0.110883
     7  C   -0.209895
     8  C   -0.187554
     9  C   -0.127269
    10  C   -0.126602
    11  C   -0.125138
    12  H    0.445683
    13  H    0.212605
    14  H    0.195796
    15  H    0.184236
    16  H    0.164039
    17  H    0.136951
    18  H    0.159774
    19  H    0.161173
    20  H    0.162661
    21  H    0.414139
    22  H    0.403981
    23  N   -0.488883
    24  C   -0.022263
    25  C    0.613908
    26  O   -0.500775
    27  C   -0.315065
    28  C   -0.301827
    29  C   -0.142445
    30  H    0.203219
    31  H    0.169902
    32  H    0.195289
    33  H    0.181785
    34  H    0.176480
    35  H    0.173797
    36  H    0.174159
    37  N   -0.594975
    38  C   -0.076686
    39  C    0.647159
    40  O   -0.569702
    41  C   -0.279402
    42  C   -0.290526
    43  C   -0.281043
    44  C   -0.153920
    45  N   -0.801225
    46  O   -0.589765
    47  H    0.490693
    48  H    0.334559
    49  H    0.180948
    50  H    0.153531
    51  H    0.174091
    52  H    0.168899
    53  H    0.151892
    54  H    0.173603
    55  H    0.155961
    56  H    0.168813
    57  H    0.175191
    58  H    0.354343
    59  H    0.352961
 Sum of Mulliken charges =   1.00000
 Mulliken charges with hydrogens summed into heavy atoms:
               1
     1  N    0.508641
     2  C    0.102210
     3  C    0.636732
     4  O   -0.532004
     5  C    0.002719
     6  C    0.110883
     7  C   -0.045856
     8  C   -0.050603
     9  C    0.032506
    10  C    0.034571
    11  C    0.037523
    23  N   -0.488883
    24  C    0.180956
    25  C    0.613908
    26  O   -0.500775
    27  C    0.050125
    28  C    0.056438
    29  C    0.205511
    37  N   -0.260416
    38  C    0.104262
    39  C    0.647159
    40  O   -0.569702
    41  C    0.048220
    42  C    0.030265
    43  C    0.048521
    44  C    0.190083
    45  N   -0.093921
    46  O   -0.099071
 Electronic spatial extent (au):  <R**2>=         408445.8877
 Charge=              1.0000 electrons
 Dipole moment (field-independent basis, Debye):
    X=            -40.4900    Y=             87.3026    Z=             55.4802  Tot=            111.0821
 Quadrupole moment (field-independent basis, Debye-Ang):
   XX=            225.7574   YY=           1483.2676   ZZ=            489.5828
   XY=           -760.2763   XZ=           -464.9126   YZ=           1023.8827
 Traceless Quadrupole moment (field-independent basis, Debye-Ang):
   XX=           -507.1119   YY=            750.3983   ZZ=           -243.2865
   XY=           -760.2763   XZ=           -464.9126   YZ=           1023.8827
 Octapole moment (field-independent basis, Debye-Ang**2):
  XXX=           -292.5254  YYY=          23169.8407  ZZZ=           1993.1375  XYY=         -13330.7626
  XXY=           4455.3387  XXZ=           2526.9734  XZZ=          -4117.6665  YZZ=           9229.8177
  YYZ=          17634.5423  XYZ=          -8803.3548
 Hexadecapole moment (field-independent basis, Debye-Ang**3):
 XXXX=         -21386.0143 YYYY=         312020.3138 ZZZZ=         -44743.1670 XXXY=          -8422.0207
 XXXZ=          -1543.8525 YYYX=        -215737.6587 YYYZ=         279502.6424 ZZZX=         -17032.8341
 ZZZY=          41232.1958 XXYY=          77238.6784 XXZZ=          16790.6285 YYZZ=         157506.7897
 XXYZ=          50126.6129 YYXZ=        -155114.0002 ZZXY=         -79321.5800
 N-N= 2.881831188743D+03 E-N=-8.766282311239D+03  KE= 1.288395294848D+03
 Unable to Open any file for archive entry.
 1\1\GINC-LAC-302\SP\RB3LYP\6-31G(d)\C20H31N4O4(1+)\KENGMITH\25-May-202
 2\0\\# B3LYP/6-31G* empiricaldispersion=gd3 guess=read geom=check nosy
 mm integral(ultrafinegrid)\\Candidate Structure: Conf:472 Charge calc 
 in gas phase\\1,1\N,0,-9.9870986433,18.6791343373,10.4191882093\C,0,-9
 .5443810231,19.8713070302,11.2358180815\C,0,-8.0318887453,19.969533893
 3,10.9038876399\O,0,-7.6435153188,19.409459202,9.8735378094\C,0,-9.950
 9830628,19.647898192,12.7096475748\C,0,-11.3678618995,19.1218345623,12
 .829378343\C,0,-11.6000453756,17.7489599767,13.0001607928\C,0,-12.4624
 324827,19.9895443309,12.7074747491\C,0,-12.9057154833,17.2561379193,13
 .0566592956\C,0,-13.7666185939,19.4961551019,12.7633622066\C,0,-13.989
 9225304,18.1279441733,12.9379813752\H,0,-9.5618544812,17.818213311,10.
 8621071841\H,0,-10.0688805277,20.7417861739,10.8258227056\H,0,-9.24606
 70562,18.946788896,13.1632677777\H,0,-9.8657346337,20.6021487195,13.23
 30084722\H,0,-10.7549661228,17.0701443748,13.0906323781\H,0,-12.294255
 3058,21.0579593951,12.5855532636\H,0,-13.0743491965,16.1926677597,13.1
 990764411\H,0,-14.6067197116,20.1792501894,12.6789204303\H,0,-15.00482
 02164,17.7447689024,12.9864962902\H,0,-9.5657352365,18.7550809611,9.48
 40540907\H,0,-11.0063378597,18.5962887663,10.3916155525\N,0,-7.1738008
 882,20.5720684063,11.7531377677\C,0,-5.7214857058,20.4513041687,11.463
 8598173\C,0,-5.2810320605,18.9830560296,11.3462892271\O,0,-4.436995097
 ,18.6386251708,10.5372182266\C,0,-5.0729458688,21.2260838523,12.625244
 8667\C,0,-6.117218186,22.3034365847,12.9535836456\C,0,-7.4461875217,21
 .5437586443,12.8362864272\H,0,-5.4968156956,20.9048803505,10.494817494
 9\H,0,-4.9261150622,20.5609953993,13.4845084561\H,0,-4.099618771,21.63
 12821098,12.3419400432\H,0,-5.9856269286,22.7463322591,13.9439964492\H
 ,0,-6.0795307089,23.1082265421,12.2112258395\H,0,-8.287831735,22.19159
 20717,12.5762430006\H,0,-7.6802829742,21.0216576039,13.771077267\N,0,-
 5.8797078253,18.1177349843,12.2380198163\C,0,-5.9939429657,16.71150152
 87,11.8809103688\C,0,-7.404018208,16.4628581815,11.3215672164\O,0,-8.3
 702971165,17.0652918285,11.8149706461\C,0,-5.7111843264,15.7660114251,
 13.0623992264\C,0,-5.6159627106,14.2831531637,12.6635161476\C,0,-4.406
 6716183,13.9357488033,11.7528152502\C,0,-4.7592313228,13.4516204765,10
 .3427782158\N,0,-5.3349681275,14.5336194437,9.4972990081\O,0,-7.556067
 3952,15.6058439966,10.3566232725\H,0,-6.6379177668,15.1843053677,10.02
 82207124\H,0,-6.6811564007,18.4775594612,12.7415826968\H,0,-5.25521714
 58,16.5490973444,11.0966856947\H,0,-6.4954887806,15.9004286237,13.8182
 303699\H,0,-4.7685912935,16.0920169025,13.5171635961\H,0,-5.5494813367
 ,13.6981895196,13.5865653132\H,0,-6.5512947097,13.9673115153,12.183644
 0519\H,0,-3.818035077,13.1383838418,12.2194219289\H,0,-3.722871066,14.
 7935116979,11.6765116057\H,0,-3.8662298078,13.0295579425,9.8642385021\
 H,0,-5.5086447626,12.6545344501,10.3982099185\H,0,-4.628247402,15.2527
 205536,9.3283449427\H,0,-5.5714572043,14.1595998361,8.5768505366\\Vers
 ion=ES64L-G16RevC.01\HF=-1300.633939\RMSD=7.390e-09\Dipole=-1.0428692,
 0.1360304,-0.4257924\Quadrupole=-377.0252351,557.9027592,-180.8775241,
 -565.2468283,-345.6511565,761.2316946\PG=C01 [X(C20H31N4O4)]\\@
 The archive entry for this job was punched.


 Statistics are no substitute for judgment.
                            -- Henry Clay
 Job cpu time:       0 days  0 hours  2 minutes  5.2 seconds.
 Elapsed time:       0 days  0 hours  0 minutes 31.8 seconds.
 File lengths (MBytes):  RWF=    240 Int=      0 D2E=      0 Chk=     32 Scr=     16
 Normal termination of Gaussian 16 at Wed May 25 19:10:14 2022.
