 Entering Gaussian System, Link 0=/opt/software/Gaussian/g16-AVX2-C.01/g16/g16
 Input=charge-conf-614.com
 Output=charge-conf-614.log
 Initial command:
 /opt/software/Gaussian/g16-AVX2-C.01/g16/l1.exe "/mnt/gs18/scratch/users/kengmith/Gau-29463.inp" -scrdir="/mnt/gs18/scratch/users/kengmith/"
 Entering Link 1 = /opt/software/Gaussian/g16-AVX2-C.01/g16/l1.exe PID=     29473.
  
 Copyright (c) 1988-2019, Gaussian, Inc.  All Rights Reserved.
  
 This is part of the Gaussian(R) 16 program.  It is based on
 the Gaussian(R) 09 system (copyright 2009, Gaussian, Inc.),
 the Gaussian(R) 03 system (copyright 2003, Gaussian, Inc.),
 the Gaussian(R) 98 system (copyright 1998, Gaussian, Inc.),
 the Gaussian(R) 94 system (copyright 1995, Gaussian, Inc.),
 the Gaussian 92(TM) system (copyright 1992, Gaussian, Inc.),
 the Gaussian 90(TM) system (copyright 1990, Gaussian, Inc.),
 the Gaussian 88(TM) system (copyright 1988, Gaussian, Inc.),
 the Gaussian 86(TM) system (copyright 1986, Carnegie Mellon
 University), and the Gaussian 82(TM) system (copyright 1983,
 Carnegie Mellon University). Gaussian is a federally registered
 trademark of Gaussian, Inc.
  
 This software contains proprietary and confidential information,
 including trade secrets, belonging to Gaussian, Inc.
  
 This software is provided under written license and may be
 used, copied, transmitted, or stored only in accord with that
 written license.
  
 The following legend is applicable only to US Government
 contracts under FAR:
  
                    RESTRICTED RIGHTS LEGEND
  
 Use, reproduction and disclosure by the US Government is
 subject to restrictions as set forth in subparagraphs (a)
 and (c) of the Commercial Computer Software - Restricted
 Rights clause in FAR 52.227-19.
  
 Gaussian, Inc.
 340 Quinnipiac St., Bldg. 40, Wallingford CT 06492
  
  
 ---------------------------------------------------------------
 Warning -- This program may not be used in any manner that
 competes with the business of Gaussian, Inc. or will provide
 assistance to any competitor of Gaussian, Inc.  The licensee
 of this program is prohibited from giving any competitor of
 Gaussian, Inc. access to this program.  By using this program,
 the user acknowledges that Gaussian, Inc. is engaged in the
 business of creating and licensing software in the field of
 computational chemistry and represents and warrants to the
 licensee that it is not a competitor of Gaussian, Inc. and that
 it will not use this program in any manner prohibited above.
 ---------------------------------------------------------------
  

 Cite this work as:
 Gaussian 16, Revision C.01,
 M. J. Frisch, G. W. Trucks, H. B. Schlegel, G. E. Scuseria, 
 M. A. Robb, J. R. Cheeseman, G. Scalmani, V. Barone, 
 G. A. Petersson, H. Nakatsuji, X. Li, M. Caricato, A. V. Marenich, 
 J. Bloino, B. G. Janesko, R. Gomperts, B. Mennucci, H. P. Hratchian, 
 J. V. Ortiz, A. F. Izmaylov, J. L. Sonnenberg, D. Williams-Young, 
 F. Ding, F. Lipparini, F. Egidi, J. Goings, B. Peng, A. Petrone, 
 T. Henderson, D. Ranasinghe, V. G. Zakrzewski, J. Gao, N. Rega, 
 G. Zheng, W. Liang, M. Hada, M. Ehara, K. Toyota, R. Fukuda, 
 J. Hasegawa, M. Ishida, T. Nakajima, Y. Honda, O. Kitao, H. Nakai, 
 T. Vreven, K. Throssell, J. A. Montgomery, Jr., J. E. Peralta, 
 F. Ogliaro, M. J. Bearpark, J. J. Heyd, E. N. Brothers, K. N. Kudin, 
 V. N. Staroverov, T. A. Keith, R. Kobayashi, J. Normand, 
 K. Raghavachari, A. P. Rendell, J. C. Burant, S. S. Iyengar, 
 J. Tomasi, M. Cossi, J. M. Millam, M. Klene, C. Adamo, R. Cammi, 
 J. W. Ochterski, R. L. Martin, K. Morokuma, O. Farkas, 
 J. B. Foresman, and D. J. Fox, Gaussian, Inc., Wallingford CT, 2019.
 
 ******************************************
 Gaussian 16:  ES64L-G16RevC.01  3-Jul-2019
                25-May-2022 
 ******************************************
 %mem=8gb
 %nproc=4
 Will use up to    4 processors via shared memory.
 %chk=conf-614.chk
 ----------------------------------------------------------------------
 # B3LYP/6-31G* empiricaldispersion=gd3 guess=read geom=check nosymm in
 tegral(ultrafinegrid)
 ----------------------------------------------------------------------
 1/29=2,38=1,172=1/1;
 2/12=2,15=1,40=1/2;
 3/5=1,6=6,7=1,11=2,14=-4,25=1,30=1,74=-5,75=-5,116=-2,124=31/1,2,3;
 4/5=1/1;
 5/5=2,38=6/2;
 6/7=2,8=2,9=2,10=2,28=1/1;
 99/5=1,9=1/99;
 ------------------------------------------------------
 Candidate Structure: Conf:614 Charge calc in gas phase
 ------------------------------------------------------
 Structure from the checkpoint file:  "conf-614.chk"
 Charge =  1 Multiplicity = 1
 Redundant internal coordinates found in file.  (old form).
 N,0,-9.9568271762,16.480451139,11.709489144
 C,0,-9.5492935658,16.9054708713,13.1045741025
 C,0,-9.8430597265,18.4256817807,13.1110992508
 O,0,-10.5498749153,18.8661221355,12.2015854982
 C,0,-8.0848328875,16.4805560503,13.3429858059
 C,0,-7.8455174531,15.0387192741,12.9406601901
 C,0,-7.2559471564,14.7381288854,11.7039563347
 C,0,-8.2682287734,13.9910014123,13.771191927
 C,0,-7.0857233602,13.4085970753,11.3103684016
 C,0,-8.0981295526,12.663744607,13.3761092641
 C,0,-7.5068019371,12.3710023315,12.1441928479
 H,0,-9.267019767,16.8727205239,11.016145769
 H,0,-10.2152960891,16.3803706463,13.7978722005
 H,0,-7.431327413,17.1462564878,12.7709260942
 H,0,-7.862333893,16.6174650827,14.4034784918
 H,0,-6.9264316941,15.546430589,11.0554009065
 H,0,-8.7162550199,14.2130709986,14.7380411704
 H,0,-6.6191967509,13.1852814753,10.3553837689
 H,0,-8.4189033652,11.8596050718,14.0316835645
 H,0,-7.3704636821,11.3378948342,11.8390409582
 H,0,-10.8616059112,16.9105348453,11.4789298022
 H,0,-9.9747471685,15.4599397882,11.6242696743
 N,0,-9.2478268869,19.2470205626,14.0055517055
 C,0,-9.3135179277,20.7088691847,13.7313001182
 C,0,-8.7217072896,20.9715654554,12.334649124
 O,0,-9.2983949262,21.6345204614,11.4811884848
 C,0,-8.551233248,21.318425803,14.9229077723
 C,0,-8.7916739247,20.3038514419,16.0535762317
 C,0,-8.6730448713,18.9521049917,15.3356214426
 H,0,-10.353946598,21.0392814544,13.6873798655
 H,0,-7.4810388983,21.3901009929,14.6954106866
 H,0,-8.9103158696,22.322640375,15.156447835
 H,0,-8.0762508421,20.3976166632,16.8741901573
 H,0,-9.800604977,20.4219060533,16.4630859652
 H,0,-9.2259704747,18.147595038,15.828369247
 H,0,-7.6213914033,18.6516118192,15.2490148975
 N,0,-7.5261209859,20.3436781486,12.0906979605
 C,0,-7.0990439341,20.0753003815,10.7117127505
 C,0,-8.1064245205,19.03297726,10.1947251196
 O,0,-7.9407513744,17.8268023667,10.3678941427
 C,0,-5.6543890448,19.579303497,10.6684299491
 C,0,-5.1658102171,19.2169558188,9.2572119185
 C,0,-5.2441182643,20.3612510255,8.2379369184
 C,0,-4.6168909005,19.9986360498,6.8756750998
 N,0,-5.2325053057,18.8956678948,6.1403642105
 O,0,-9.2283553693,19.4824495152,9.6541339369
 H,0,-9.3482716165,20.438455359,9.8595431381
 H,0,-7.1945463787,19.685201762,12.7847738587
 H,0,-7.2072924344,21.004830273,10.1498573839
 H,0,-5.5645155486,18.6984579448,11.3183587218
 H,0,-5.0264011675,20.3692309745,11.0972555827
 H,0,-4.123641541,18.8823495513,9.3407469806
 H,0,-5.7365106822,18.3536420763,8.8925613265
 H,0,-4.7372681166,21.2495558815,8.6425856603
 H,0,-6.2930790217,20.6496695355,8.0683929215
 H,0,-4.6394307109,20.8841722514,6.2296410102
 H,0,-3.5572687054,19.7512396335,7.0224394498
 H,0,-5.1688941516,18.0236607184,6.660609192
 H,0,-6.2216904733,19.0770954486,5.9784057271
 Recover connectivity data from disk.
                           ----------------------------
                           !    Current Parameters    !
                           ! (Angstroms and Degrees)  !
 --------------------------                            --------------------------
 ! Name  Definition              Value                                          !
 --------------------------------------------------------------------------------
 ! R1    R(1,2)                  1.5143                                         !
 ! R2    R(1,12)                 1.0538                                         !
 ! R3    R(1,21)                 1.028                                          !
 ! R4    R(1,22)                 1.0242                                         !
 ! R5    R(2,3)                  1.5483                                         !
 ! R6    R(2,5)                  1.5434                                         !
 ! R7    R(2,13)                 1.0954                                         !
 ! R8    R(3,4)                  1.2332                                         !
 ! R9    R(3,23)                 1.3524                                         !
 ! R10   R(5,6)                  1.5159                                         !
 ! R11   R(5,14)                 1.0943                                         !
 ! R12   R(5,15)                 1.0922                                         !
 ! R13   R(6,7)                  1.4026                                         !
 ! R14   R(6,8)                  1.4022                                         !
 ! R15   R(7,9)                  1.397                                          !
 ! R16   R(7,16)                 1.0875                                         !
 ! R17   R(8,10)                 1.3952                                         !
 ! R18   R(8,17)                 1.0885                                         !
 ! R19   R(9,11)                 1.3961                                         !
 ! R20   R(9,18)                 1.0861                                         !
 ! R21   R(10,11)                1.3975                                         !
 ! R22   R(10,19)                1.086                                          !
 ! R23   R(11,20)                1.0858                                         !
 ! R24   R(23,24)                1.4888                                         !
 ! R25   R(23,29)                1.4787                                         !
 ! R26   R(24,25)                1.5394                                         !
 ! R27   R(24,27)                1.5403                                         !
 ! R28   R(24,30)                1.0925                                         !
 ! R29   R(25,26)                1.2249                                         !
 ! R30   R(25,37)                1.3723                                         !
 ! R31   R(27,28)                1.538                                          !
 ! R32   R(27,31)                1.0965                                         !
 ! R33   R(27,32)                1.0918                                         !
 ! R34   R(28,29)                1.5352                                         !
 ! R35   R(28,33)                1.0927                                         !
 ! R36   R(28,34)                1.0953                                         !
 ! R37   R(29,35)                1.0935                                         !
 ! R38   R(29,36)                1.0972                                         !
 ! R39   R(37,38)                1.4683                                         !
 ! R40   R(37,48)                1.0126                                         !
 ! R41   R(38,39)                1.539                                          !
 ! R42   R(38,41)                1.528                                          !
 ! R43   R(38,49)                1.0915                                         !
 ! R44   R(39,40)                1.2298                                         !
 ! R45   R(39,46)                1.324                                          !
 ! R46   R(41,42)                1.5367                                         !
 ! R47   R(41,50)                1.0984                                         !
 ! R48   R(41,51)                1.0965                                         !
 ! R49   R(42,43)                1.5344                                         !
 ! R50   R(42,52)                1.0977                                         !
 ! R51   R(42,53)                1.0973                                         !
 ! R52   R(43,44)                1.5429                                         !
 ! R53   R(43,54)                1.0999                                         !
 ! R54   R(43,55)                1.101                                          !
 ! R55   R(44,45)                1.4616                                         !
 ! R56   R(44,56)                1.0964                                         !
 ! R57   R(44,57)                1.098                                          !
 ! R58   R(45,58)                1.0174                                         !
 ! R59   R(45,59)                1.0186                                         !
 ! R60   R(46,47)                0.9851                                         !
 ! A1    A(2,1,12)             108.9972                                         !
 ! A2    A(2,1,21)             109.0308                                         !
 ! A3    A(2,1,22)             111.1632                                         !
 ! A4    A(12,1,21)            105.8334                                         !
 ! A5    A(12,1,22)            109.1239                                         !
 ! A6    A(21,1,22)            112.5072                                         !
 ! A7    A(1,2,3)              103.2028                                         !
 ! A8    A(1,2,5)              108.6877                                         !
 ! A9    A(1,2,13)             106.5541                                         !
 ! A10   A(3,2,5)              116.7235                                         !
 ! A11   A(3,2,13)             110.6481                                         !
 ! A12   A(5,2,13)             110.3134                                         !
 ! A13   A(2,3,4)              117.1484                                         !
 ! A14   A(2,3,23)             121.0356                                         !
 ! A15   A(4,3,23)             121.5435                                         !
 ! A16   A(2,5,6)              111.756                                          !
 ! A17   A(2,5,14)             108.5673                                         !
 ! A18   A(2,5,15)             107.9856                                         !
 ! A19   A(6,5,14)             110.2176                                         !
 ! A20   A(6,5,15)             110.1672                                         !
 ! A21   A(14,5,15)            108.0397                                         !
 ! A22   A(5,6,7)              120.2776                                         !
 ! A23   A(5,6,8)              120.3902                                         !
 ! A24   A(7,6,8)              119.2632                                         !
 ! A25   A(6,7,9)              120.2377                                         !
 ! A26   A(6,7,16)             119.5985                                         !
 ! A27   A(9,7,16)             120.1628                                         !
 ! A28   A(6,8,10)             120.4191                                         !
 ! A29   A(6,8,17)             119.8512                                         !
 ! A30   A(10,8,17)            119.721                                          !
 ! A31   A(7,9,11)             120.1519                                         !
 ! A32   A(7,9,18)             119.721                                          !
 ! A33   A(11,9,18)            120.1261                                         !
 ! A34   A(8,10,11)            120.0317                                         !
 ! A35   A(8,10,19)            119.8322                                         !
 ! A36   A(11,10,19)           120.1343                                         !
 ! A37   A(9,11,10)            119.8953                                         !
 ! A38   A(9,11,20)            120.0925                                         !
 ! A39   A(10,11,20)           120.0113                                         !
 ! A40   A(3,23,24)            117.0699                                         !
 ! A41   A(3,23,29)            130.1571                                         !
 ! A42   A(24,23,29)           112.2524                                         !
 ! A43   A(23,24,25)           108.5248                                         !
 ! A44   A(23,24,27)           102.9575                                         !
 ! A45   A(23,24,30)           110.2662                                         !
 ! A46   A(25,24,27)           116.3642                                         !
 ! A47   A(25,24,30)           106.1422                                         !
 ! A48   A(27,24,30)           112.5017                                         !
 ! A49   A(24,25,26)           122.9209                                         !
 ! A50   A(24,25,37)           114.7168                                         !
 ! A51   A(26,25,37)           122.2721                                         !
 ! A52   A(24,27,28)           103.3145                                         !
 ! A53   A(24,27,31)           110.3891                                         !
 ! A54   A(24,27,32)           111.5134                                         !
 ! A55   A(28,27,31)           110.3794                                         !
 ! A56   A(28,27,32)           113.4587                                         !
 ! A57   A(31,27,32)           107.7752                                         !
 ! A58   A(27,28,29)           103.0002                                         !
 ! A59   A(27,28,33)           113.1487                                         !
 ! A60   A(27,28,34)           110.3509                                         !
 ! A61   A(29,28,33)           112.0971                                         !
 ! A62   A(29,28,34)           109.9349                                         !
 ! A63   A(33,28,34)           108.2449                                         !
 ! A64   A(23,29,28)           102.4167                                         !
 ! A65   A(23,29,35)           110.8249                                         !
 ! A66   A(23,29,36)           110.8679                                         !
 ! A67   A(28,29,35)           113.4531                                         !
 ! A68   A(28,29,36)           110.6184                                         !
 ! A69   A(35,29,36)           108.5867                                         !
 ! A70   A(25,37,38)           120.264                                          !
 ! A71   A(25,37,48)           117.4509                                         !
 ! A72   A(38,37,48)           115.4452                                         !
 ! A73   A(37,38,39)           104.4116                                         !
 ! A74   A(37,38,41)           111.1564                                         !
 ! A75   A(37,38,49)           107.393                                          !
 ! A76   A(39,38,41)           112.9228                                         !
 ! A77   A(39,38,49)           109.8116                                         !
 ! A78   A(41,38,49)           110.8303                                         !
 ! A79   A(38,39,40)           121.9244                                         !
 ! A80   A(38,39,46)           117.5099                                         !
 ! A81   A(40,39,46)           120.3064                                         !
 ! A82   A(38,41,42)           113.7742                                         !
 ! A83   A(38,41,50)           108.7183                                         !
 ! A84   A(38,41,51)           107.2508                                         !
 ! A85   A(42,41,50)           109.165                                          !
 ! A86   A(42,41,51)           110.2998                                         !
 ! A87   A(50,41,51)           107.426                                          !
 ! A88   A(41,42,43)           114.7052                                         !
 ! A89   A(41,42,52)           107.6876                                         !
 ! A90   A(41,42,53)           108.9863                                         !
 ! A91   A(43,42,52)           109.045                                          !
 ! A92   A(43,42,53)           109.8432                                         !
 ! A93   A(52,42,53)           106.2152                                         !
 ! A94   A(42,43,44)           112.9842                                         !
 ! A95   A(42,43,54)           109.5355                                         !
 ! A96   A(42,43,55)           110.2589                                         !
 ! A97   A(44,43,54)           109.1049                                         !
 ! A98   A(44,43,55)           108.2341                                         !
 ! A99   A(54,43,55)           106.5064                                         !
 ! A100  A(43,44,45)           116.7637                                         !
 ! A101  A(43,44,56)           108.7879                                         !
 ! A102  A(43,44,57)           109.1022                                         !
 ! A103  A(45,44,56)           107.723                                          !
 ! A104  A(45,44,57)           107.6799                                         !
 ! A105  A(56,44,57)           106.2957                                         !
 ! A106  A(44,45,58)           111.2975                                         !
 ! A107  A(44,45,59)           110.769                                          !
 ! A108  A(58,45,59)           107.1379                                         !
 ! A109  A(39,46,47)           110.3314                                         !
 ! D1    D(12,1,2,3)            70.131                                          !
 ! D2    D(12,1,2,5)           -54.407                                          !
 ! D3    D(12,1,2,13)         -173.2795                                         !
 ! D4    D(21,1,2,3)           -44.9558                                         !
 ! D5    D(21,1,2,5)          -169.4938                                         !
 ! D6    D(21,1,2,13)           71.6337                                         !
 ! D7    D(22,1,2,3)          -169.5494                                         !
 ! D8    D(22,1,2,5)            65.9126                                         !
 ! D9    D(22,1,2,13)          -52.9599                                         !
 ! D10   D(1,2,3,4)             14.7648                                         !
 ! D11   D(1,2,3,23)          -159.3294                                         !
 ! D12   D(5,2,3,4)            133.8806                                         !
 ! D13   D(5,2,3,23)           -40.2136                                         !
 ! D14   D(13,2,3,4)           -98.8853                                         !
 ! D15   D(13,2,3,23)           87.0205                                         !
 ! D16   D(1,2,5,6)            -48.0839                                         !
 ! D17   D(1,2,5,14)            73.6903                                         !
 ! D18   D(1,2,5,15)          -169.4048                                         !
 ! D19   D(3,2,5,6)           -164.2028                                         !
 ! D20   D(3,2,5,14)           -42.4286                                         !
 ! D21   D(3,2,5,15)            74.4763                                         !
 ! D22   D(13,2,5,6)            68.3991                                         !
 ! D23   D(13,2,5,14)         -169.8266                                         !
 ! D24   D(13,2,5,15)          -52.9217                                         !
 ! D25   D(2,3,23,24)          165.0116                                         !
 ! D26   D(2,3,23,29)          -23.9972                                         !
 ! D27   D(4,3,23,24)           -8.8211                                         !
 ! D28   D(4,3,23,29)          162.1701                                         !
 ! D29   D(2,5,6,7)             99.6721                                         !
 ! D30   D(2,5,6,8)            -77.2841                                         !
 ! D31   D(14,5,6,7)           -21.1465                                         !
 ! D32   D(14,5,6,8)           161.8973                                         !
 ! D33   D(15,5,6,7)          -140.2785                                         !
 ! D34   D(15,5,6,8)            42.7653                                         !
 ! D35   D(5,6,7,9)           -177.3764                                         !
 ! D36   D(5,6,7,16)             2.9897                                         !
 ! D37   D(8,6,7,9)             -0.386                                          !
 ! D38   D(8,6,7,16)           179.9801                                         !
 ! D39   D(5,6,8,10)           177.3358                                         !
 ! D40   D(5,6,8,17)            -3.7332                                         !
 ! D41   D(7,6,8,10)             0.3489                                         !
 ! D42   D(7,6,8,17)           179.2799                                         !
 ! D43   D(6,7,9,11)             0.2597                                         !
 ! D44   D(6,7,9,18)          -179.3902                                         !
 ! D45   D(16,7,9,11)          179.8916                                         !
 ! D46   D(16,7,9,18)            0.2416                                         !
 ! D47   D(6,8,10,11)           -0.1844                                         !
 ! D48   D(6,8,10,19)          179.3166                                         !
 ! D49   D(17,8,10,11)        -179.1168                                         !
 ! D50   D(17,8,10,19)           0.3842                                         !
 ! D51   D(7,9,11,10)           -0.0914                                         !
 ! D52   D(7,9,11,20)         -179.7587                                         !
 ! D53   D(18,9,11,10)         179.5572                                         !
 ! D54   D(18,9,11,20)          -0.1101                                         !
 ! D55   D(8,10,11,9)            0.0536                                         !
 ! D56   D(8,10,11,20)         179.7211                                         !
 ! D57   D(19,10,11,9)        -179.4459                                         !
 ! D58   D(19,10,11,20)          0.2217                                         !
 ! D59   D(3,23,24,25)         -56.0284                                         !
 ! D60   D(3,23,24,27)        -179.9236                                         !
 ! D61   D(3,23,24,30)          59.839                                          !
 ! D62   D(29,23,24,25)        131.4011                                         !
 ! D63   D(29,23,24,27)          7.5059                                         !
 ! D64   D(29,23,24,30)       -112.7315                                         !
 ! D65   D(3,23,29,28)        -154.0944                                         !
 ! D66   D(3,23,29,35)         -32.7783                                         !
 ! D67   D(3,23,29,36)          87.8829                                         !
 ! D68   D(24,23,29,28)         17.2409                                         !
 ! D69   D(24,23,29,35)        138.557                                          !
 ! D70   D(24,23,29,36)       -100.7819                                         !
 ! D71   D(23,24,25,26)        129.6486                                         !
 ! D72   D(23,24,25,37)        -46.9647                                         !
 ! D73   D(27,24,25,26)       -114.8835                                         !
 ! D74   D(27,24,25,37)         68.5032                                         !
 ! D75   D(30,24,25,26)         11.1403                                         !
 ! D76   D(30,24,25,37)       -165.4731                                         !
 ! D77   D(23,24,27,28)        -29.195                                          !
 ! D78   D(23,24,27,31)         88.8221                                         !
 ! D79   D(23,24,27,32)       -151.4036                                         !
 ! D80   D(25,24,27,28)       -147.7433                                         !
 ! D81   D(25,24,27,31)        -29.7262                                         !
 ! D82   D(25,24,27,32)         90.0481                                         !
 ! D83   D(30,24,27,28)         89.4927                                         !
 ! D84   D(30,24,27,31)       -152.4902                                         !
 ! D85   D(30,24,27,32)        -32.7159                                         !
 ! D86   D(24,25,37,38)        156.9466                                         !
 ! D87   D(24,25,37,48)          7.2143                                         !
 ! D88   D(26,25,37,38)        -19.6912                                         !
 ! D89   D(26,25,37,48)       -169.4235                                         !
 ! D90   D(24,27,28,29)         40.2376                                         !
 ! D91   D(24,27,28,33)        161.4751                                         !
 ! D92   D(24,27,28,34)        -77.0755                                         !
 ! D93   D(31,27,28,29)        -77.7862                                         !
 ! D94   D(31,27,28,33)         43.4513                                         !
 ! D95   D(31,27,28,34)        164.9007                                         !
 ! D96   D(32,27,28,29)        161.1349                                         !
 ! D97   D(32,27,28,33)        -77.6276                                         !
 ! D98   D(32,27,28,34)         43.8218                                         !
 ! D99   D(27,28,29,23)        -34.9012                                         !
 ! D100  D(27,28,29,35)       -154.3949                                         !
 ! D101  D(27,28,29,36)         83.2985                                         !
 ! D102  D(33,28,29,23)       -156.8511                                         !
 ! D103  D(33,28,29,35)         83.6552                                         !
 ! D104  D(33,28,29,36)        -38.6515                                         !
 ! D105  D(34,28,29,23)         82.7056                                         !
 ! D106  D(34,28,29,35)        -36.7882                                         !
 ! D107  D(34,28,29,36)       -159.0948                                         !
 ! D108  D(25,37,38,39)        -67.0554                                         !
 ! D109  D(25,37,38,41)        170.8947                                         !
 ! D110  D(25,37,38,49)         49.5089                                         !
 ! D111  D(48,37,38,39)         83.2525                                         !
 ! D112  D(48,37,38,41)        -38.7974                                         !
 ! D113  D(48,37,38,49)       -160.1832                                         !
 ! D114  D(37,38,39,40)        -86.834                                          !
 ! D115  D(37,38,39,46)         87.3296                                         !
 ! D116  D(41,38,39,40)         34.0473                                         !
 ! D117  D(41,38,39,46)       -151.7891                                         !
 ! D118  D(49,38,39,40)        158.2918                                         !
 ! D119  D(49,38,39,46)        -27.5445                                         !
 ! D120  D(37,38,41,42)        177.3034                                         !
 ! D121  D(37,38,41,50)         55.4311                                         !
 ! D122  D(37,38,41,51)        -60.4375                                         !
 ! D123  D(39,38,41,42)         60.3406                                         !
 ! D124  D(39,38,41,50)        -61.5316                                         !
 ! D125  D(39,38,41,51)       -177.4003                                         !
 ! D126  D(49,38,41,42)        -63.3438                                         !
 ! D127  D(49,38,41,50)        174.7839                                         !
 ! D128  D(49,38,41,51)         58.9153                                         !
 ! D129  D(38,39,46,47)        -13.6776                                         !
 ! D130  D(40,39,46,47)        160.585                                          !
 ! D131  D(38,41,42,43)         58.0466                                         !
 ! D132  D(38,41,42,52)        179.629                                          !
 ! D133  D(38,41,42,53)        -65.5562                                         !
 ! D134  D(50,41,42,43)        179.6712                                         !
 ! D135  D(50,41,42,52)        -58.7465                                         !
 ! D136  D(50,41,42,53)         56.0683                                         !
 ! D137  D(51,41,42,43)        -62.5148                                         !
 ! D138  D(51,41,42,52)         59.0675                                         !
 ! D139  D(51,41,42,53)        173.8823                                         !
 ! D140  D(41,42,43,44)        174.3245                                         !
 ! D141  D(41,42,43,54)         52.472                                          !
 ! D142  D(41,42,43,55)        -64.4206                                         !
 ! D143  D(52,42,43,44)         53.486                                          !
 ! D144  D(52,42,43,54)        -68.3665                                         !
 ! D145  D(52,42,43,55)        174.7409                                         !
 ! D146  D(53,42,43,44)        -62.5312                                         !
 ! D147  D(53,42,43,54)        175.6163                                         !
 ! D148  D(53,42,43,55)         58.7237                                         !
 ! D149  D(42,43,44,45)         62.2348                                         !
 ! D150  D(42,43,44,56)       -175.6447                                         !
 ! D151  D(42,43,44,57)        -60.0836                                         !
 ! D152  D(54,43,44,45)       -175.6709                                         !
 ! D153  D(54,43,44,56)        -53.5504                                         !
 ! D154  D(54,43,44,57)         62.0108                                         !
 ! D155  D(55,43,44,45)        -60.1594                                         !
 ! D156  D(55,43,44,56)         61.9611                                         !
 ! D157  D(55,43,44,57)        177.5223                                         !
 ! D158  D(43,44,45,58)        -62.1848                                         !
 ! D159  D(43,44,45,59)         56.8993                                         !
 ! D160  D(56,44,45,58)        175.1411                                         !
 ! D161  D(56,44,45,59)        -65.7748                                         !
 ! D162  D(57,44,45,58)         60.8706                                         !
 ! D163  D(57,44,45,59)        179.9547                                         !
 --------------------------------------------------------------------------------
 Symmetry turned off by external request.
 Stoichiometry    C20H31N4O4(1+)
 Framework group  C1[X(C20H31N4O4)]
 Deg. of freedom   171
 Full point group                 C1      NOp   1
                          Input orientation:                          
 ---------------------------------------------------------------------
 Center     Atomic      Atomic             Coordinates (Angstroms)
 Number     Number       Type             X           Y           Z
 ---------------------------------------------------------------------
      1          7           0       -9.956827   16.480451   11.709489
      2          6           0       -9.549294   16.905471   13.104574
      3          6           0       -9.843060   18.425682   13.111099
      4          8           0      -10.549875   18.866122   12.201585
      5          6           0       -8.084833   16.480556   13.342986
      6          6           0       -7.845517   15.038719   12.940660
      7          6           0       -7.255947   14.738129   11.703956
      8          6           0       -8.268229   13.991001   13.771192
      9          6           0       -7.085723   13.408597   11.310368
     10          6           0       -8.098130   12.663745   13.376109
     11          6           0       -7.506802   12.371002   12.144193
     12          1           0       -9.267020   16.872721   11.016146
     13          1           0      -10.215296   16.380371   13.797872
     14          1           0       -7.431327   17.146256   12.770926
     15          1           0       -7.862334   16.617465   14.403478
     16          1           0       -6.926432   15.546431   11.055401
     17          1           0       -8.716255   14.213071   14.738041
     18          1           0       -6.619197   13.185281   10.355384
     19          1           0       -8.418903   11.859605   14.031684
     20          1           0       -7.370464   11.337895   11.839041
     21          1           0      -10.861606   16.910535   11.478930
     22          1           0       -9.974747   15.459940   11.624270
     23          7           0       -9.247827   19.247021   14.005552
     24          6           0       -9.313518   20.708869   13.731300
     25          6           0       -8.721707   20.971565   12.334649
     26          8           0       -9.298395   21.634520   11.481188
     27          6           0       -8.551233   21.318426   14.922908
     28          6           0       -8.791674   20.303851   16.053576
     29          6           0       -8.673045   18.952105   15.335621
     30          1           0      -10.353947   21.039281   13.687380
     31          1           0       -7.481039   21.390101   14.695411
     32          1           0       -8.910316   22.322640   15.156448
     33          1           0       -8.076251   20.397617   16.874190
     34          1           0       -9.800605   20.421906   16.463086
     35          1           0       -9.225970   18.147595   15.828369
     36          1           0       -7.621391   18.651612   15.249015
     37          7           0       -7.526121   20.343678   12.090698
     38          6           0       -7.099044   20.075300   10.711713
     39          6           0       -8.106425   19.032977   10.194725
     40          8           0       -7.940751   17.826802   10.367894
     41          6           0       -5.654389   19.579303   10.668430
     42          6           0       -5.165810   19.216956    9.257212
     43          6           0       -5.244118   20.361251    8.237937
     44          6           0       -4.616891   19.998636    6.875675
     45          7           0       -5.232505   18.895668    6.140364
     46          8           0       -9.228355   19.482450    9.654134
     47          1           0       -9.348272   20.438455    9.859543
     48          1           0       -7.194546   19.685202   12.784774
     49          1           0       -7.207292   21.004830   10.149857
     50          1           0       -5.564516   18.698458   11.318359
     51          1           0       -5.026401   20.369231   11.097256
     52          1           0       -4.123642   18.882350    9.340747
     53          1           0       -5.736511   18.353642    8.892561
     54          1           0       -4.737268   21.249556    8.642586
     55          1           0       -6.293079   20.649670    8.068393
     56          1           0       -4.639431   20.884172    6.229641
     57          1           0       -3.557269   19.751240    7.022439
     58          1           0       -5.168894   18.023661    6.660609
     59          1           0       -6.221690   19.077095    5.978406
 ---------------------------------------------------------------------
 Rotational constants (GHZ):           0.1759703           0.1452092           0.0924438
 Standard basis: 6-31G(d) (6D, 7F)
   482 basis functions,   908 primitive gaussians,   482 cartesian basis functions
   105 alpha electrons      105 beta electrons
       nuclear repulsion energy      2881.3414870716 Hartrees.
 NAtoms=   59 NActive=   59 NUniq=   59 SFac= 1.00D+00 NAtFMM=   60 NAOKFM=F Big=F
 Integral buffers will be    131072 words long.
 Raffenetti 2 integral format.
 Two-electron integral symmetry is turned off.
 Nuclear repulsion after empirical dispersion term =     2881.2631240117 Hartrees.
 One-electron integrals computed using PRISM.
 NBasis=   482 RedAO= T EigKep=  4.67D-04  NBF=   482
 NBsUse=   482 1.00D-06 EigRej= -1.00D+00 NBFU=   482
 Initial guess from the checkpoint file:  "conf-614.chk"
 B after Tr=     0.000000    0.000000    0.000000
         Rot=    1.000000    0.000000    0.000000    0.000000 Ang=   0.00 deg.
 Requested convergence on RMS density matrix=1.00D-08 within 128 cycles.
 Requested convergence on MAX density matrix=1.00D-06.
 Requested convergence on             energy=1.00D-06.
 No special actions if energy rises.
 SCF Done:  E(RB3LYP) =  -1300.60331541     A.U. after    1 cycles
            NFock=  1  Conv=0.40D-08     -V/T= 2.0095

 **********************************************************************

            Population analysis using the SCF Density.

 **********************************************************************

 Alpha  occ. eigenvalues --  -19.31801 -19.27867 -19.26717 -19.24933 -14.58247
 Alpha  occ. eigenvalues --  -14.51157 -14.49385 -14.38209 -10.45515 -10.44051
 Alpha  occ. eigenvalues --  -10.41944 -10.40937 -10.36483 -10.36247 -10.36182
 Alpha  occ. eigenvalues --  -10.34097 -10.31977 -10.31842 -10.31756 -10.30636
 Alpha  occ. eigenvalues --  -10.30375 -10.30284 -10.30064 -10.29999 -10.29785
 Alpha  occ. eigenvalues --  -10.28109 -10.27894 -10.26703  -1.23472  -1.19544
 Alpha  occ. eigenvalues --   -1.16729  -1.15002  -1.12922  -1.08788  -1.05630
 Alpha  occ. eigenvalues --   -0.97548  -0.95139  -0.94167  -0.91889  -0.91610
 Alpha  occ. eigenvalues --   -0.88546  -0.86377  -0.85663  -0.84458  -0.80236
 Alpha  occ. eigenvalues --   -0.79027  -0.78068  -0.74978  -0.73782  -0.73137
 Alpha  occ. eigenvalues --   -0.72307  -0.72119  -0.71548  -0.70984  -0.69897
 Alpha  occ. eigenvalues --   -0.69205  -0.67678  -0.66432  -0.63934  -0.63174
 Alpha  occ. eigenvalues --   -0.62959  -0.62553  -0.61603  -0.60372  -0.59327
 Alpha  occ. eigenvalues --   -0.58170  -0.57595  -0.57189  -0.56703  -0.56512
 Alpha  occ. eigenvalues --   -0.56022  -0.55537  -0.55061  -0.54549  -0.53893
 Alpha  occ. eigenvalues --   -0.53402  -0.53130  -0.52706  -0.52299  -0.51879
 Alpha  occ. eigenvalues --   -0.51377  -0.51001  -0.50330  -0.49683  -0.49393
 Alpha  occ. eigenvalues --   -0.48506  -0.47988  -0.47263  -0.47237  -0.46815
 Alpha  occ. eigenvalues --   -0.45614  -0.45246  -0.45053  -0.44523  -0.44184
 Alpha  occ. eigenvalues --   -0.42506  -0.42017  -0.40986  -0.40748  -0.40058
 Alpha  occ. eigenvalues --   -0.37959  -0.37689  -0.36373  -0.36065  -0.30099
 Alpha virt. eigenvalues --   -0.14448  -0.13724  -0.11940  -0.11631  -0.11207
 Alpha virt. eigenvalues --   -0.07353  -0.06977  -0.04747  -0.02963  -0.02764
 Alpha virt. eigenvalues --   -0.01956  -0.01274  -0.00659   0.00054   0.00197
 Alpha virt. eigenvalues --    0.00946   0.01436   0.01598   0.01980   0.02134
 Alpha virt. eigenvalues --    0.03192   0.03739   0.04079   0.04592   0.04856
 Alpha virt. eigenvalues --    0.04987   0.05107   0.05848   0.06138   0.06414
 Alpha virt. eigenvalues --    0.06726   0.07357   0.08044   0.08283   0.08532
 Alpha virt. eigenvalues --    0.08983   0.09349   0.09724   0.10338   0.10555
 Alpha virt. eigenvalues --    0.10806   0.11000   0.11631   0.12492   0.13035
 Alpha virt. eigenvalues --    0.13051   0.14342   0.14909   0.15530   0.16033
 Alpha virt. eigenvalues --    0.16276   0.17149   0.18300   0.19887   0.20520
 Alpha virt. eigenvalues --    0.20816   0.21437   0.22422   0.23649   0.24226
 Alpha virt. eigenvalues --    0.24779   0.27316   0.27966   0.28589   0.32636
 Alpha virt. eigenvalues --    0.34080   0.35736   0.37673   0.38511   0.39119
 Alpha virt. eigenvalues --    0.39934   0.40390   0.41579   0.41804   0.42555
 Alpha virt. eigenvalues --    0.43143   0.43324   0.43392   0.44164   0.44410
 Alpha virt. eigenvalues --    0.45443   0.45986   0.46275   0.47234   0.47776
 Alpha virt. eigenvalues --    0.48416   0.48941   0.49406   0.49477   0.49710
 Alpha virt. eigenvalues --    0.50304   0.50869   0.51009   0.51170   0.51559
 Alpha virt. eigenvalues --    0.51693   0.52009   0.52394   0.53695   0.54107
 Alpha virt. eigenvalues --    0.54517   0.55332   0.55420   0.56784   0.57031
 Alpha virt. eigenvalues --    0.58436   0.59005   0.60345   0.60409   0.61873
 Alpha virt. eigenvalues --    0.62263   0.62931   0.63872   0.64384   0.66146
 Alpha virt. eigenvalues --    0.66527   0.67140   0.67546   0.67834   0.68863
 Alpha virt. eigenvalues --    0.69417   0.70316   0.71261   0.71885   0.72108
 Alpha virt. eigenvalues --    0.72349   0.72879   0.73307   0.73801   0.74112
 Alpha virt. eigenvalues --    0.74495   0.74705   0.75319   0.75871   0.75925
 Alpha virt. eigenvalues --    0.76032   0.77067   0.77449   0.77694   0.78967
 Alpha virt. eigenvalues --    0.79731   0.80027   0.80379   0.80750   0.81352
 Alpha virt. eigenvalues --    0.81439   0.82604   0.82883   0.83654   0.84135
 Alpha virt. eigenvalues --    0.84486   0.85271   0.85552   0.86197   0.87288
 Alpha virt. eigenvalues --    0.87683   0.87933   0.88479   0.90121   0.90704
 Alpha virt. eigenvalues --    0.91856   0.91929   0.92468   0.93092   0.93643
 Alpha virt. eigenvalues --    0.94477   0.96263   0.96950   0.97424   0.98267
 Alpha virt. eigenvalues --    1.00311   1.01448   1.02031   1.02411   1.03681
 Alpha virt. eigenvalues --    1.04833   1.05463   1.06210   1.07425   1.08291
 Alpha virt. eigenvalues --    1.09368   1.10532   1.11977   1.14350   1.14688
 Alpha virt. eigenvalues --    1.15299   1.16919   1.17086   1.20281   1.21302
 Alpha virt. eigenvalues --    1.22964   1.24161   1.24778   1.25418   1.26170
 Alpha virt. eigenvalues --    1.28370   1.29928   1.30231   1.31044   1.32521
 Alpha virt. eigenvalues --    1.33053   1.33764   1.34107   1.34967   1.36986
 Alpha virt. eigenvalues --    1.37896   1.38453   1.39210   1.39407   1.40260
 Alpha virt. eigenvalues --    1.41952   1.44233   1.44760   1.45497   1.47254
 Alpha virt. eigenvalues --    1.49066   1.50161   1.50685   1.52775   1.55311
 Alpha virt. eigenvalues --    1.57920   1.59267   1.59926   1.60424   1.61195
 Alpha virt. eigenvalues --    1.62305   1.63537   1.63917   1.64568   1.65616
 Alpha virt. eigenvalues --    1.67040   1.67757   1.68569   1.69001   1.69914
 Alpha virt. eigenvalues --    1.70701   1.71072   1.72405   1.72758   1.73609
 Alpha virt. eigenvalues --    1.74198   1.75286   1.76550   1.77055   1.77525
 Alpha virt. eigenvalues --    1.78538   1.78857   1.79499   1.80001   1.82058
 Alpha virt. eigenvalues --    1.82558   1.83371   1.84573   1.85406   1.85862
 Alpha virt. eigenvalues --    1.86335   1.87636   1.88018   1.88547   1.89854
 Alpha virt. eigenvalues --    1.91011   1.91376   1.92505   1.92730   1.93560
 Alpha virt. eigenvalues --    1.94506   1.95095   1.95451   1.95580   1.96264
 Alpha virt. eigenvalues --    1.97073   1.97827   1.99519   2.00188   2.01053
 Alpha virt. eigenvalues --    2.01508   2.02974   2.03633   2.04308   2.05916
 Alpha virt. eigenvalues --    2.06388   2.07875   2.09124   2.10025   2.11481
 Alpha virt. eigenvalues --    2.11659   2.13270   2.14764   2.16341   2.17552
 Alpha virt. eigenvalues --    2.19370   2.19512   2.20019   2.20950   2.22301
 Alpha virt. eigenvalues --    2.23568   2.25272   2.26492   2.27606   2.27803
 Alpha virt. eigenvalues --    2.28972   2.30293   2.32142   2.33088   2.34136
 Alpha virt. eigenvalues --    2.34646   2.37642   2.37901   2.39777   2.40538
 Alpha virt. eigenvalues --    2.41391   2.42202   2.43812   2.45062   2.46574
 Alpha virt. eigenvalues --    2.46840   2.48105   2.49780   2.50457   2.50705
 Alpha virt. eigenvalues --    2.51843   2.53755   2.54368   2.54850   2.58120
 Alpha virt. eigenvalues --    2.59235   2.60203   2.61415   2.62127   2.63032
 Alpha virt. eigenvalues --    2.63121   2.64425   2.65512   2.66325   2.67021
 Alpha virt. eigenvalues --    2.69683   2.73098   2.78350   2.80194   2.84486
 Alpha virt. eigenvalues --    2.85845   2.90355   2.91388   2.92674   2.94169
 Alpha virt. eigenvalues --    2.97146   3.02264   3.06291   3.29517   3.70807
 Alpha virt. eigenvalues --    3.72024   3.84975   3.89631   3.93736   3.95560
 Alpha virt. eigenvalues --    3.98549   4.00976   4.05710   4.07620   4.08893
 Alpha virt. eigenvalues --    4.13020   4.13578   4.18806   4.21356   4.22189
 Alpha virt. eigenvalues --    4.23931   4.26277   4.29891   4.34437   4.38704
 Alpha virt. eigenvalues --    4.40990   4.43800   4.44761   4.51176   4.55948
 Alpha virt. eigenvalues --    4.59309   4.63642
          Condensed to atoms (all electrons):
 Mulliken charges:
               1
     1  N   -0.755520
     2  C   -0.114940
     3  C    0.624150
     4  O   -0.515680
     5  C   -0.384842
     6  C    0.115644
     7  C   -0.216662
     8  C   -0.187305
     9  C   -0.126717
    10  C   -0.125987
    11  C   -0.123890
    12  H    0.447895
    13  H    0.218689
    14  H    0.182117
    15  H    0.189223
    16  H    0.169150
    17  H    0.137361
    18  H    0.163640
    19  H    0.164706
    20  H    0.167021
    21  H    0.420635
    22  H    0.408800
    23  N   -0.485597
    24  C   -0.022861
    25  C    0.616623
    26  O   -0.515858
    27  C   -0.321080
    28  C   -0.299709
    29  C   -0.149776
    30  H    0.213555
    31  H    0.170165
    32  H    0.202058
    33  H    0.187552
    34  H    0.183295
    35  H    0.180628
    36  H    0.170516
    37  N   -0.593677
    38  C   -0.061022
    39  C    0.643329
    40  O   -0.526185
    41  C   -0.286550
    42  C   -0.279832
    43  C   -0.271796
    44  C   -0.147642
    45  N   -0.699138
    46  O   -0.548664
    47  H    0.462604
    48  H    0.337624
    49  H    0.202563
    50  H    0.142839
    51  H    0.172018
    52  H    0.157468
    53  H    0.141810
    54  H    0.142241
    55  H    0.120660
    56  H    0.159542
    57  H    0.152338
    58  H    0.297232
    59  H    0.295235
 Sum of Mulliken charges =   1.00000
 Mulliken charges with hydrogens summed into heavy atoms:
               1
     1  N    0.521810
     2  C    0.103749
     3  C    0.624150
     4  O   -0.515680
     5  C   -0.013502
     6  C    0.115644
     7  C   -0.047512
     8  C   -0.049944
     9  C    0.036923
    10  C    0.038719
    11  C    0.043131
    23  N   -0.485597
    24  C    0.190694
    25  C    0.616623
    26  O   -0.515858
    27  C    0.051143
    28  C    0.071139
    29  C    0.201368
    37  N   -0.256052
    38  C    0.141540
    39  C    0.643329
    40  O   -0.526185
    41  C    0.028306
    42  C    0.019446
    43  C   -0.008895
    44  C    0.164238
    45  N   -0.106670
    46  O   -0.086059
 Electronic spatial extent (au):  <R**2>=         410656.6946
 Charge=              1.0000 electrons
 Dipole moment (field-independent basis, Debye):
    X=            -40.9364    Y=             83.4540    Z=             63.8023  Tot=            112.7435
 Quadrupole moment (field-independent basis, Debye-Ang):
   XX=            194.5294   YY=           1324.4009   ZZ=            696.0026
   XY=           -698.2102   XZ=           -546.0155   YZ=           1118.0807
 Traceless Quadrupole moment (field-independent basis, Debye-Ang):
   XX=           -543.7816   YY=            586.0899   ZZ=            -42.3084
   XY=           -698.2102   XZ=           -546.0155   YZ=           1118.0807
 Octapole moment (field-independent basis, Debye-Ang**2):
  XXX=            656.7552  YYY=          18195.3074  ZZZ=           6083.1846  XYY=         -10901.0535
  XXY=           3037.4247  XXZ=           2871.9941  XZZ=          -6156.2331  YZZ=          12250.8592
  YYZ=          18155.8408  XYZ=          -9417.5162
 Hexadecapole moment (field-independent basis, Debye-Ang**3):
 XXXX=         -34206.0479 YYYY=         171872.7237 ZZZZ=          25442.4135 XXXY=          17096.0154
 XXXZ=           3693.3772 YYYX=        -147072.2463 YYYZ=         263616.5398 ZZZX=         -57048.8350
 ZZZY=         107983.5003 XXYY=          37079.8153 XXZZ=          31639.5747 YYZZ=         197291.2102
 XXYZ=          46787.7795 YYXZ=        -150657.1308 ZZXY=        -106727.0623
 N-N= 2.881263124012D+03 E-N=-8.762785538562D+03  KE= 1.288384089167D+03
 Unable to Open any file for archive entry.
 1\1\GINC-LAC-305\SP\RB3LYP\6-31G(d)\C20H31N4O4(1+)\KENGMITH\25-May-202
 2\0\\# B3LYP/6-31G* empiricaldispersion=gd3 guess=read geom=check nosy
 mm integral(ultrafinegrid)\\Candidate Structure: Conf:614 Charge calc 
 in gas phase\\1,1\N,0,-9.9568271762,16.480451139,11.709489144\C,0,-9.5
 492935658,16.9054708713,13.1045741025\C,0,-9.8430597265,18.4256817807,
 13.1110992508\O,0,-10.5498749153,18.8661221355,12.2015854982\C,0,-8.08
 48328875,16.4805560503,13.3429858059\C,0,-7.8455174531,15.0387192741,1
 2.9406601901\C,0,-7.2559471564,14.7381288854,11.7039563347\C,0,-8.2682
 287734,13.9910014123,13.771191927\C,0,-7.0857233602,13.4085970753,11.3
 103684016\C,0,-8.0981295526,12.663744607,13.3761092641\C,0,-7.50680193
 71,12.3710023315,12.1441928479\H,0,-9.267019767,16.8727205239,11.01614
 5769\H,0,-10.2152960891,16.3803706463,13.7978722005\H,0,-7.431327413,1
 7.1462564878,12.7709260942\H,0,-7.862333893,16.6174650827,14.403478491
 8\H,0,-6.9264316941,15.546430589,11.0554009065\H,0,-8.7162550199,14.21
 30709986,14.7380411704\H,0,-6.6191967509,13.1852814753,10.3553837689\H
 ,0,-8.4189033652,11.8596050718,14.0316835645\H,0,-7.3704636821,11.3378
 948342,11.8390409582\H,0,-10.8616059112,16.9105348453,11.4789298022\H,
 0,-9.9747471685,15.4599397882,11.6242696743\N,0,-9.2478268869,19.24702
 05626,14.0055517055\C,0,-9.3135179277,20.7088691847,13.7313001182\C,0,
 -8.7217072896,20.9715654554,12.334649124\O,0,-9.2983949262,21.63452046
 14,11.4811884848\C,0,-8.551233248,21.318425803,14.9229077723\C,0,-8.79
 16739247,20.3038514419,16.0535762317\C,0,-8.6730448713,18.9521049917,1
 5.3356214426\H,0,-10.353946598,21.0392814544,13.6873798655\H,0,-7.4810
 388983,21.3901009929,14.6954106866\H,0,-8.9103158696,22.322640375,15.1
 56447835\H,0,-8.0762508421,20.3976166632,16.8741901573\H,0,-9.80060497
 7,20.4219060533,16.4630859652\H,0,-9.2259704747,18.147595038,15.828369
 247\H,0,-7.6213914033,18.6516118192,15.2490148975\N,0,-7.5261209859,20
 .3436781486,12.0906979605\C,0,-7.0990439341,20.0753003815,10.711712750
 5\C,0,-8.1064245205,19.03297726,10.1947251196\O,0,-7.9407513744,17.826
 8023667,10.3678941427\C,0,-5.6543890448,19.579303497,10.6684299491\C,0
 ,-5.1658102171,19.2169558188,9.2572119185\C,0,-5.2441182643,20.3612510
 255,8.2379369184\C,0,-4.6168909005,19.9986360498,6.8756750998\N,0,-5.2
 325053057,18.8956678948,6.1403642105\O,0,-9.2283553693,19.4824495152,9
 .6541339369\H,0,-9.3482716165,20.438455359,9.8595431381\H,0,-7.1945463
 787,19.685201762,12.7847738587\H,0,-7.2072924344,21.004830273,10.14985
 73839\H,0,-5.5645155486,18.6984579448,11.3183587218\H,0,-5.0264011675,
 20.3692309745,11.0972555827\H,0,-4.123641541,18.8823495513,9.340746980
 6\H,0,-5.7365106822,18.3536420763,8.8925613265\H,0,-4.7372681166,21.24
 95558815,8.6425856603\H,0,-6.2930790217,20.6496695355,8.0683929215\H,0
 ,-4.6394307109,20.8841722514,6.2296410102\H,0,-3.5572687054,19.7512396
 335,7.0224394498\H,0,-5.1688941516,18.0236607184,6.660609192\H,0,-6.22
 16904733,19.0770954486,5.9784057271\\Version=ES64L-G16RevC.01\HF=-1300
 .6033154\RMSD=3.962e-09\Dipole=-1.1428606,-1.5531376,2.9163352\Quadrup
 ole=-404.2882633,435.7434956,-31.4552323,-519.1022073,-405.949119,831.
 2655706\PG=C01 [X(C20H31N4O4)]\\@
 The archive entry for this job was punched.


 NECESSARY EVIL: ONE WE LIKE TOO MUCH TO RELINQUISH.
 Job cpu time:       0 days  0 hours  1 minutes 15.2 seconds.
 Elapsed time:       0 days  0 hours  0 minutes 19.2 seconds.
 File lengths (MBytes):  RWF=    240 Int=      0 D2E=      0 Chk=     32 Scr=     16
 Normal termination of Gaussian 16 at Wed May 25 19:10:01 2022.
