 Entering Gaussian System, Link 0=/opt/software/Gaussian/g16-AVX2-C.01/g16/g16
 Input=charge-conf-667.com
 Output=charge-conf-667.log
 Initial command:
 /opt/software/Gaussian/g16-AVX2-C.01/g16/l1.exe "/mnt/gs18/scratch/users/kengmith/Gau-1645.inp" -scrdir="/mnt/gs18/scratch/users/kengmith/"
 Entering Link 1 = /opt/software/Gaussian/g16-AVX2-C.01/g16/l1.exe PID=      1658.
  
 Copyright (c) 1988-2019, Gaussian, Inc.  All Rights Reserved.
  
 This is part of the Gaussian(R) 16 program.  It is based on
 the Gaussian(R) 09 system (copyright 2009, Gaussian, Inc.),
 the Gaussian(R) 03 system (copyright 2003, Gaussian, Inc.),
 the Gaussian(R) 98 system (copyright 1998, Gaussian, Inc.),
 the Gaussian(R) 94 system (copyright 1995, Gaussian, Inc.),
 the Gaussian 92(TM) system (copyright 1992, Gaussian, Inc.),
 the Gaussian 90(TM) system (copyright 1990, Gaussian, Inc.),
 the Gaussian 88(TM) system (copyright 1988, Gaussian, Inc.),
 the Gaussian 86(TM) system (copyright 1986, Carnegie Mellon
 University), and the Gaussian 82(TM) system (copyright 1983,
 Carnegie Mellon University). Gaussian is a federally registered
 trademark of Gaussian, Inc.
  
 This software contains proprietary and confidential information,
 including trade secrets, belonging to Gaussian, Inc.
  
 This software is provided under written license and may be
 used, copied, transmitted, or stored only in accord with that
 written license.
  
 The following legend is applicable only to US Government
 contracts under FAR:
  
                    RESTRICTED RIGHTS LEGEND
  
 Use, reproduction and disclosure by the US Government is
 subject to restrictions as set forth in subparagraphs (a)
 and (c) of the Commercial Computer Software - Restricted
 Rights clause in FAR 52.227-19.
  
 Gaussian, Inc.
 340 Quinnipiac St., Bldg. 40, Wallingford CT 06492
  
  
 ---------------------------------------------------------------
 Warning -- This program may not be used in any manner that
 competes with the business of Gaussian, Inc. or will provide
 assistance to any competitor of Gaussian, Inc.  The licensee
 of this program is prohibited from giving any competitor of
 Gaussian, Inc. access to this program.  By using this program,
 the user acknowledges that Gaussian, Inc. is engaged in the
 business of creating and licensing software in the field of
 computational chemistry and represents and warrants to the
 licensee that it is not a competitor of Gaussian, Inc. and that
 it will not use this program in any manner prohibited above.
 ---------------------------------------------------------------
  

 Cite this work as:
 Gaussian 16, Revision C.01,
 M. J. Frisch, G. W. Trucks, H. B. Schlegel, G. E. Scuseria, 
 M. A. Robb, J. R. Cheeseman, G. Scalmani, V. Barone, 
 G. A. Petersson, H. Nakatsuji, X. Li, M. Caricato, A. V. Marenich, 
 J. Bloino, B. G. Janesko, R. Gomperts, B. Mennucci, H. P. Hratchian, 
 J. V. Ortiz, A. F. Izmaylov, J. L. Sonnenberg, D. Williams-Young, 
 F. Ding, F. Lipparini, F. Egidi, J. Goings, B. Peng, A. Petrone, 
 T. Henderson, D. Ranasinghe, V. G. Zakrzewski, J. Gao, N. Rega, 
 G. Zheng, W. Liang, M. Hada, M. Ehara, K. Toyota, R. Fukuda, 
 J. Hasegawa, M. Ishida, T. Nakajima, Y. Honda, O. Kitao, H. Nakai, 
 T. Vreven, K. Throssell, J. A. Montgomery, Jr., J. E. Peralta, 
 F. Ogliaro, M. J. Bearpark, J. J. Heyd, E. N. Brothers, K. N. Kudin, 
 V. N. Staroverov, T. A. Keith, R. Kobayashi, J. Normand, 
 K. Raghavachari, A. P. Rendell, J. C. Burant, S. S. Iyengar, 
 J. Tomasi, M. Cossi, J. M. Millam, M. Klene, C. Adamo, R. Cammi, 
 J. W. Ochterski, R. L. Martin, K. Morokuma, O. Farkas, 
 J. B. Foresman, and D. J. Fox, Gaussian, Inc., Wallingford CT, 2019.
 
 ******************************************
 Gaussian 16:  ES64L-G16RevC.01  3-Jul-2019
                25-May-2022 
 ******************************************
 %mem=8gb
 %nproc=4
 Will use up to    4 processors via shared memory.
 %chk=conf-667.chk
 ----------------------------------------------------------------------
 # B3LYP/6-31G* empiricaldispersion=gd3 guess=read geom=check nosymm in
 tegral(ultrafinegrid)
 ----------------------------------------------------------------------
 1/29=2,38=1,172=1/1;
 2/12=2,15=1,40=1/2;
 3/5=1,6=6,7=1,11=2,14=-4,25=1,30=1,74=-5,75=-5,116=-2,124=31/1,2,3;
 4/5=1/1;
 5/5=2,38=6/2;
 6/7=2,8=2,9=2,10=2,28=1/1;
 99/5=1,9=1/99;
 ------------------------------------------------------
 Candidate Structure: Conf:667 Charge calc in gas phase
 ------------------------------------------------------
 Structure from the checkpoint file:  "conf-667.chk"
 Charge =  1 Multiplicity = 1
 Redundant internal coordinates found in file.  (old form).
 N,0,-7.713303612,18.5543864511,14.1926011427
 C,0,-8.2569675356,19.7624346836,13.4709991995
 C,0,-9.3391968986,19.1480034192,12.5436017797
 O,0,-9.8059099553,18.0521406391,12.8704076111
 C,0,-7.0830586483,20.5224357139,12.8135412718
 C,0,-5.9059001331,20.6716438536,13.7573043693
 C,0,-4.8317554942,19.7712523891,13.6945727734
 C,0,-5.9020160602,21.671358268,14.7400341275
 C,0,-3.7700854299,19.8767477284,14.5958393871
 C,0,-4.840804262,21.7757890211,15.6402782437
 C,0,-3.7727206036,20.8779405386,15.5692319497
 H,0,-7.1724529448,17.9773216342,13.4615684247
 H,0,-8.7408327436,20.3935621237,14.2253145445
 H,0,-6.7800894986,19.9810971921,11.9140496848
 H,0,-7.4409896738,21.509577291,12.5150623799
 H,0,-4.8345329916,18.9886245664,12.9392719029
 H,0,-6.7252466188,22.3815167545,14.7912514345
 H,0,-2.9392662759,19.1798484774,14.5330599138
 H,0,-4.8440468444,22.5610420967,16.3906408213
 H,0,-2.9445502767,20.9620756375,16.2666747187
 H,0,-8.5037239592,17.9703410105,14.4910197301
 H,0,-7.1033265058,18.8190832872,14.9690738774
 N,0,-9.6925088848,19.7501141316,11.3865930291
 C,0,-10.5736622227,18.9931690254,10.4610078708
 C,0,-9.9756458352,17.6240001308,10.0996872717
 O,0,-10.6844139687,16.6363473328,9.9775439498
 C,0,-10.7367723598,19.9582080645,9.2728930492
 C,0,-10.6438370454,21.3421756503,9.9318967737
 C,0,-9.5228439166,21.1584158673,10.9645419811
 H,0,-11.5292820758,18.7794393996,10.947269296
 H,0,-9.9153131643,19.8179054239,8.56035928
 H,0,-11.6761336894,19.7870259674,8.7434031534
 H,0,-10.4207062426,22.1447183545,9.2243041873
 H,0,-11.5839601485,21.5851864963,10.4393012516
 H,0,-9.6147420463,21.8350789395,11.8183928485
 H,0,-8.5397814935,21.306747932,10.5033959302
 N,0,-8.6123838716,17.6107717167,9.9012300444
 C,0,-7.899032656,16.367198004,10.1626634692
 C,0,-7.3037476127,16.4166326656,11.5864715039
 O,0,-6.8250440893,17.5199588281,11.9634632972
 C,0,-6.8130306726,16.043544604,9.1276252775
 C,0,-6.2357775136,14.6258027462,9.2929637028
 C,0,-7.2569017476,13.4808511777,9.0407353567
 C,0,-7.6347252706,12.627713582,10.2556126298
 N,0,-8.4900255046,13.3600997271,11.2544810112
 O,0,-7.3118042307,15.3595083612,12.2885155311
 H,0,-7.9532314169,14.2841399343,11.7131493219
 H,0,-8.1095258892,18.4296004842,10.2231305884
 H,0,-8.67079759,15.600756441,10.114988239
 H,0,-6.0059186133,16.7818158738,9.2084770347
 H,0,-7.2539174511,16.1546324479,8.1296984429
 H,0,-5.404977118,14.5168987038,8.5887729177
 H,0,-5.7958309699,14.5226122854,10.292618956
 H,0,-6.8390134555,12.7765478698,8.3130706484
 H,0,-8.1719163027,13.8695619923,8.5720669832
 H,0,-8.1827796328,11.7346708664,9.9405007853
 H,0,-6.7407611029,12.3066873333,10.7981266088
 H,0,-9.3655100003,13.6800759566,10.8284547838
 H,0,-8.7458980985,12.744008626,12.0305114056
 Recover connectivity data from disk.
                           ----------------------------
                           !    Current Parameters    !
                           ! (Angstroms and Degrees)  !
 --------------------------                            --------------------------
 ! Name  Definition              Value                                          !
 --------------------------------------------------------------------------------
 ! R1    R(1,2)                  1.5085                                         !
 ! R2    R(1,12)                 1.077                                          !
 ! R3    R(1,21)                 1.0271                                         !
 ! R4    R(1,22)                 1.0223                                         !
 ! R5    R(2,3)                  1.552                                          !
 ! R6    R(2,5)                  1.5453                                         !
 ! R7    R(2,13)                 1.0961                                         !
 ! R8    R(3,4)                  1.2351                                         !
 ! R9    R(3,23)                 1.3513                                         !
 ! R10   R(5,6)                  1.5161                                         !
 ! R11   R(5,14)                 1.0927                                         !
 ! R12   R(5,15)                 1.0916                                         !
 ! R13   R(6,7)                  1.403                                          !
 ! R14   R(6,8)                  1.4019                                         !
 ! R15   R(7,9)                  1.3966                                         !
 ! R16   R(7,16)                 1.0877                                         !
 ! R17   R(8,10)                 1.3955                                         !
 ! R18   R(8,17)                 1.0884                                         !
 ! R19   R(9,11)                 1.3964                                         !
 ! R20   R(9,18)                 1.0862                                         !
 ! R21   R(10,11)                1.3971                                         !
 ! R22   R(10,19)                1.0861                                         !
 ! R23   R(11,20)                1.086                                          !
 ! R24   R(23,24)                1.4853                                         !
 ! R25   R(23,29)                1.4799                                         !
 ! R26   R(24,25)                1.5371                                         !
 ! R27   R(24,27)                1.5393                                         !
 ! R28   R(24,30)                1.0933                                         !
 ! R29   R(25,26)                1.2218                                         !
 ! R30   R(25,37)                1.3777                                         !
 ! R31   R(27,28)                1.5357                                         !
 ! R32   R(27,31)                1.0964                                         !
 ! R33   R(27,32)                1.0918                                         !
 ! R34   R(28,29)                1.5352                                         !
 ! R35   R(28,33)                1.093                                          !
 ! R36   R(28,34)                1.0956                                         !
 ! R37   R(29,35)                1.0933                                         !
 ! R38   R(29,36)                1.0959                                         !
 ! R39   R(37,38)                1.4573                                         !
 ! R40   R(37,48)                1.0134                                         !
 ! R41   R(38,39)                1.544                                          !
 ! R42   R(38,41)                1.5347                                         !
 ! R43   R(38,49)                1.0887                                         !
 ! R44   R(39,40)                1.2604                                         !
 ! R45   R(39,46)                1.269                                          !
 ! R46   R(41,42)                1.5397                                         !
 ! R47   R(41,50)                1.0968                                         !
 ! R48   R(41,51)                1.0966                                         !
 ! R49   R(42,43)                1.5547                                         !
 ! R50   R(42,52)                1.0945                                         !
 ! R51   R(42,53)                1.097                                          !
 ! R52   R(43,44)                1.5318                                         !
 ! R53   R(43,54)                1.0955                                         !
 ! R54   R(43,55)                1.0991                                         !
 ! R55   R(44,45)                1.5052                                         !
 ! R56   R(44,56)                1.0942                                         !
 ! R57   R(44,57)                1.0939                                         !
 ! R58   R(45,58)                1.0249                                         !
 ! R59   R(45,59)                1.0234                                         !
 ! R60   R(46,47)                1.378                                          !
 ! A1    A(2,1,12)             106.5814                                         !
 ! A2    A(2,1,21)             108.482                                          !
 ! A3    A(2,1,22)             111.7785                                         !
 ! A4    A(12,1,21)            106.2003                                         !
 ! A5    A(12,1,22)            110.772                                          !
 ! A6    A(21,1,22)            112.6898                                         !
 ! A7    A(1,2,3)              102.7149                                         !
 ! A8    A(1,2,5)              108.8803                                         !
 ! A9    A(1,2,13)             106.9181                                         !
 ! A10   A(3,2,5)              118.0468                                         !
 ! A11   A(3,2,13)             109.3505                                         !
 ! A12   A(5,2,13)             110.1792                                         !
 ! A13   A(2,3,4)              117.1699                                         !
 ! A14   A(2,3,23)             121.1671                                         !
 ! A15   A(4,3,23)             121.5396                                         !
 ! A16   A(2,5,6)              111.9246                                         !
 ! A17   A(2,5,14)             108.4948                                         !
 ! A18   A(2,5,15)             108.1791                                         !
 ! A19   A(6,5,14)             110.2371                                         !
 ! A20   A(6,5,15)             109.6204                                         !
 ! A21   A(14,5,15)            108.2906                                         !
 ! A22   A(5,6,7)              120.2279                                         !
 ! A23   A(5,6,8)              120.5776                                         !
 ! A24   A(7,6,8)              119.136                                          !
 ! A25   A(6,7,9)              120.3087                                         !
 ! A26   A(6,7,16)             119.3981                                         !
 ! A27   A(9,7,16)             120.293                                          !
 ! A28   A(6,8,10)             120.5103                                         !
 ! A29   A(6,8,17)             119.7483                                         !
 ! A30   A(10,8,17)            119.7341                                         !
 ! A31   A(7,9,11)             120.1697                                         !
 ! A32   A(7,9,18)             119.7142                                         !
 ! A33   A(11,9,18)            120.1152                                         !
 ! A34   A(8,10,11)            120.0294                                         !
 ! A35   A(8,10,19)            119.8346                                         !
 ! A36   A(11,10,19)           120.1343                                         !
 ! A37   A(9,11,10)            119.8449                                         !
 ! A38   A(9,11,20)            120.1183                                         !
 ! A39   A(10,11,20)           120.0361                                         !
 ! A40   A(3,23,24)            117.4902                                         !
 ! A41   A(3,23,29)            129.6583                                         !
 ! A42   A(24,23,29)           112.04                                           !
 ! A43   A(23,24,25)           111.692                                          !
 ! A44   A(23,24,27)           102.9647                                         !
 ! A45   A(23,24,30)           109.9379                                         !
 ! A46   A(25,24,27)           114.7217                                         !
 ! A47   A(25,24,30)           105.692                                          !
 ! A48   A(27,24,30)           111.9144                                         !
 ! A49   A(24,25,26)           121.1882                                         !
 ! A50   A(24,25,37)           115.3015                                         !
 ! A51   A(26,25,37)           123.4957                                         !
 ! A52   A(24,27,28)           103.1416                                         !
 ! A53   A(24,27,31)           109.9975                                         !
 ! A54   A(24,27,32)           111.5422                                         !
 ! A55   A(28,27,31)           110.4173                                         !
 ! A56   A(28,27,32)           113.6706                                         !
 ! A57   A(31,27,32)           108.0212                                         !
 ! A58   A(27,28,29)           103.0013                                         !
 ! A59   A(27,28,33)           113.3458                                         !
 ! A60   A(27,28,34)           110.286                                          !
 ! A61   A(29,28,33)           111.9815                                         !
 ! A62   A(29,28,34)           109.9747                                         !
 ! A63   A(33,28,34)           108.1887                                         !
 ! A64   A(23,29,28)           102.8278                                         !
 ! A65   A(23,29,35)           110.8908                                         !
 ! A66   A(23,29,36)           110.587                                          !
 ! A67   A(28,29,35)           112.9459                                         !
 ! A68   A(28,29,36)           110.8401                                         !
 ! A69   A(35,29,36)           108.6776                                         !
 ! A70   A(25,37,38)           117.8222                                         !
 ! A71   A(25,37,48)           115.9444                                         !
 ! A72   A(38,37,48)           112.9313                                         !
 ! A73   A(37,38,39)           109.0765                                         !
 ! A74   A(37,38,41)           113.913                                          !
 ! A75   A(37,38,49)           104.2343                                         !
 ! A76   A(39,38,41)           110.8444                                         !
 ! A77   A(39,38,49)           109.6465                                         !
 ! A78   A(41,38,49)           108.8815                                         !
 ! A79   A(38,39,40)           116.7611                                         !
 ! A80   A(38,39,46)           118.752                                          !
 ! A81   A(40,39,46)           124.4819                                         !
 ! A82   A(38,41,42)           112.7718                                         !
 ! A83   A(38,41,50)           109.2109                                         !
 ! A84   A(38,41,51)           107.9301                                         !
 ! A85   A(42,41,50)           109.633                                          !
 ! A86   A(42,41,51)           109.9826                                         !
 ! A87   A(50,41,51)           107.1422                                         !
 ! A88   A(41,42,43)           114.4846                                         !
 ! A89   A(41,42,52)           107.8856                                         !
 ! A90   A(41,42,53)           109.5617                                         !
 ! A91   A(43,42,52)           108.7163                                         !
 ! A92   A(43,42,53)           109.9955                                         !
 ! A93   A(52,42,53)           105.8131                                         !
 ! A94   A(42,43,44)           116.3257                                         !
 ! A95   A(42,43,54)           109.3094                                         !
 ! A96   A(42,43,55)           110.8248                                         !
 ! A97   A(44,43,54)           105.2371                                         !
 ! A98   A(44,43,55)           109.2575                                         !
 ! A99   A(54,43,55)           105.1711                                         !
 ! A100  A(43,44,45)           113.2947                                         !
 ! A101  A(43,44,56)           110.4694                                         !
 ! A102  A(43,44,57)           110.8066                                         !
 ! A103  A(45,44,56)           107.6756                                         !
 ! A104  A(45,44,57)           106.1443                                         !
 ! A105  A(56,44,57)           108.2191                                         !
 ! A106  A(44,45,58)           111.1899                                         !
 ! A107  A(44,45,59)           110.6324                                         !
 ! A108  A(58,45,59)           106.8338                                         !
 ! A109  A(39,46,47)           114.9634                                         !
 ! D1    D(12,1,2,3)            69.3078                                         !
 ! D2    D(12,1,2,5)           -56.6073                                         !
 ! D3    D(12,1,2,13)         -175.6256                                         !
 ! D4    D(21,1,2,3)           -44.6746                                         !
 ! D5    D(21,1,2,5)          -170.5898                                         !
 ! D6    D(21,1,2,13)           70.392                                          !
 ! D7    D(22,1,2,3)          -169.5311                                         !
 ! D8    D(22,1,2,5)            64.5537                                         !
 ! D9    D(22,1,2,13)          -54.4645                                         !
 ! D10   D(1,2,3,4)             22.5636                                         !
 ! D11   D(1,2,3,23)          -153.4579                                         !
 ! D12   D(5,2,3,4)            142.3043                                         !
 ! D13   D(5,2,3,23)           -33.7173                                         !
 ! D14   D(13,2,3,4)           -90.7286                                         !
 ! D15   D(13,2,3,23)           93.2499                                         !
 ! D16   D(1,2,5,6)            -45.0995                                         !
 ! D17   D(1,2,5,14)            76.7582                                         !
 ! D18   D(1,2,5,15)          -165.9737                                         !
 ! D19   D(3,2,5,6)           -161.5719                                         !
 ! D20   D(3,2,5,14)           -39.7142                                         !
 ! D21   D(3,2,5,15)            77.5539                                         !
 ! D22   D(13,2,5,6)            71.8595                                         !
 ! D23   D(13,2,5,14)         -166.2828                                         !
 ! D24   D(13,2,5,15)          -49.0147                                         !
 ! D25   D(2,3,23,24)          170.6192                                         !
 ! D26   D(2,3,23,29)          -20.6172                                         !
 ! D27   D(4,3,23,24)           -5.2276                                         !
 ! D28   D(4,3,23,29)          163.536                                          !
 ! D29   D(2,5,6,7)             96.9524                                         !
 ! D30   D(2,5,6,8)            -80.2423                                         !
 ! D31   D(14,5,6,7)           -23.9003                                         !
 ! D32   D(14,5,6,8)           158.9051                                         !
 ! D33   D(15,5,6,7)          -143.0128                                         !
 ! D34   D(15,5,6,8)            39.7926                                         !
 ! D35   D(5,6,7,9)           -177.6014                                         !
 ! D36   D(5,6,7,16)             2.2407                                         !
 ! D37   D(8,6,7,9)             -0.3665                                         !
 ! D38   D(8,6,7,16)           179.4756                                         !
 ! D39   D(5,6,8,10)           177.5814                                         !
 ! D40   D(5,6,8,17)            -3.4044                                         !
 ! D41   D(7,6,8,10)             0.3564                                         !
 ! D42   D(7,6,8,17)           179.3706                                         !
 ! D43   D(6,7,9,11)             0.1959                                         !
 ! D44   D(6,7,9,18)          -179.4702                                         !
 ! D45   D(16,7,9,11)         -179.6448                                         !
 ! D46   D(16,7,9,18)            0.6891                                         !
 ! D47   D(6,8,10,11)           -0.1748                                         !
 ! D48   D(6,8,10,19)          179.3565                                         !
 ! D49   D(17,8,10,11)        -179.1891                                         !
 ! D50   D(17,8,10,19)           0.3422                                         !
 ! D51   D(7,9,11,10)           -0.0099                                         !
 ! D52   D(7,9,11,20)         -179.7155                                         !
 ! D53   D(18,9,11,10)         179.6548                                         !
 ! D54   D(18,9,11,20)          -0.0507                                         !
 ! D55   D(8,10,11,9)           -0.0008                                         !
 ! D56   D(8,10,11,20)         179.705                                          !
 ! D57   D(19,10,11,9)        -179.5307                                         !
 ! D58   D(19,10,11,20)          0.1751                                         !
 ! D59   D(3,23,24,25)         -55.4084                                         !
 ! D60   D(3,23,24,27)        -179.0115                                         !
 ! D61   D(3,23,24,30)          61.5879                                         !
 ! D62   D(29,23,24,25)        133.9053                                         !
 ! D63   D(29,23,24,27)         10.3023                                         !
 ! D64   D(29,23,24,30)       -109.0984                                         !
 ! D65   D(3,23,29,28)        -154.673                                          !
 ! D66   D(3,23,29,35)         -33.6832                                         !
 ! D67   D(3,23,29,36)          86.9489                                         !
 ! D68   D(24,23,29,28)         14.5794                                         !
 ! D69   D(24,23,29,35)        135.5692                                         !
 ! D70   D(24,23,29,36)       -103.7987                                         !
 ! D71   D(23,24,25,26)        142.0743                                         !
 ! D72   D(23,24,25,37)        -39.2699                                         !
 ! D73   D(27,24,25,26)       -101.2491                                         !
 ! D74   D(27,24,25,37)         77.4067                                         !
 ! D75   D(30,24,25,26)         22.5395                                         !
 ! D76   D(30,24,25,37)       -158.8046                                         !
 ! D77   D(23,24,27,28)        -30.9801                                         !
 ! D78   D(23,24,27,31)         86.807                                          !
 ! D79   D(23,24,27,32)       -153.3513                                         !
 ! D80   D(25,24,27,28)       -152.5507                                         !
 ! D81   D(25,24,27,31)        -34.7636                                         !
 ! D82   D(25,24,27,32)         85.0781                                         !
 ! D83   D(30,24,27,28)         87.0406                                         !
 ! D84   D(30,24,27,31)       -155.1722                                         !
 ! D85   D(30,24,27,32)        -35.3305                                         !
 ! D86   D(24,25,37,38)        152.4499                                         !
 ! D87   D(24,25,37,48)         14.1455                                         !
 ! D88   D(26,25,37,38)        -28.929                                          !
 ! D89   D(26,25,37,48)       -167.2334                                         !
 ! D90   D(24,27,28,29)         40.3843                                         !
 ! D91   D(24,27,28,33)        161.587                                          !
 ! D92   D(24,27,28,34)        -76.9462                                         !
 ! D93   D(31,27,28,29)        -77.1077                                         !
 ! D94   D(31,27,28,33)         44.095                                          !
 ! D95   D(31,27,28,34)        165.5618                                         !
 ! D96   D(32,27,28,29)        161.3178                                         !
 ! D97   D(32,27,28,33)        -77.4795                                         !
 ! D98   D(32,27,28,34)         43.9873                                         !
 ! D99   D(27,28,29,23)        -33.5148                                         !
 ! D100  D(27,28,29,35)       -153.0884                                         !
 ! D101  D(27,28,29,36)         84.6855                                         !
 ! D102  D(33,28,29,23)       -155.6412                                         !
 ! D103  D(33,28,29,35)         84.7852                                         !
 ! D104  D(33,28,29,36)        -37.4409                                         !
 ! D105  D(34,28,29,23)         84.0355                                         !
 ! D106  D(34,28,29,35)        -35.5381                                         !
 ! D107  D(34,28,29,36)       -157.7642                                         !
 ! D108  D(25,37,38,39)        -96.5827                                         !
 ! D109  D(25,37,38,41)        139.0009                                         !
 ! D110  D(25,37,38,49)         20.466                                          !
 ! D111  D(48,37,38,39)         42.9163                                         !
 ! D112  D(48,37,38,41)        -81.5001                                         !
 ! D113  D(48,37,38,49)        159.965                                          !
 ! D114  D(37,38,39,40)        -39.1305                                         !
 ! D115  D(37,38,39,46)        141.6487                                         !
 ! D116  D(41,38,39,40)         87.0701                                         !
 ! D117  D(41,38,39,46)        -92.1508                                         !
 ! D118  D(49,38,39,40)       -152.6909                                         !
 ! D119  D(49,38,39,46)         28.0882                                         !
 ! D120  D(37,38,41,42)       -170.6348                                         !
 ! D121  D(37,38,41,50)         67.2138                                         !
 ! D122  D(37,38,41,51)        -48.9415                                         !
 ! D123  D(39,38,41,42)         65.903                                          !
 ! D124  D(39,38,41,50)        -56.2484                                         !
 ! D125  D(39,38,41,51)       -172.4037                                         !
 ! D126  D(49,38,41,42)        -54.7905                                         !
 ! D127  D(49,38,41,50)       -176.9419                                         !
 ! D128  D(49,38,41,51)         66.9028                                         !
 ! D129  D(38,39,46,47)         -4.3856                                         !
 ! D130  D(40,39,46,47)        176.4583                                         !
 ! D131  D(38,41,42,43)         64.561                                          !
 ! D132  D(38,41,42,52)       -174.2771                                         !
 ! D133  D(38,41,42,53)        -59.5341                                         !
 ! D134  D(50,41,42,43)       -173.5255                                         !
 ! D135  D(50,41,42,52)        -52.3635                                         !
 ! D136  D(50,41,42,53)         62.3794                                         !
 ! D137  D(51,41,42,43)        -55.9639                                         !
 ! D138  D(51,41,42,52)         65.198                                          !
 ! D139  D(51,41,42,53)        179.9409                                         !
 ! D140  D(41,42,43,44)       -113.2306                                         !
 ! D141  D(41,42,43,54)        127.8181                                         !
 ! D142  D(41,42,43,55)         12.3534                                         !
 ! D143  D(52,42,43,44)        126.066                                          !
 ! D144  D(52,42,43,54)          7.1146                                         !
 ! D145  D(52,42,43,55)       -108.35                                           !
 ! D146  D(53,42,43,44)         10.6331                                         !
 ! D147  D(53,42,43,54)       -108.3183                                         !
 ! D148  D(53,42,43,55)        136.2171                                         !
 ! D149  D(42,43,44,45)         70.9898                                         !
 ! D150  D(42,43,44,56)       -168.1082                                         !
 ! D151  D(42,43,44,57)        -48.1843                                         !
 ! D152  D(54,43,44,45)       -167.869                                          !
 ! D153  D(54,43,44,56)        -46.967                                          !
 ! D154  D(54,43,44,57)         72.9569                                         !
 ! D155  D(55,43,44,45)        -55.3818                                         !
 ! D156  D(55,43,44,56)         65.5202                                         !
 ! D157  D(55,43,44,57)       -174.5559                                         !
 ! D158  D(43,44,45,58)         59.41                                           !
 ! D159  D(43,44,45,59)        177.955                                          !
 ! D160  D(56,44,45,58)        -63.0572                                         !
 ! D161  D(56,44,45,59)         55.4879                                         !
 ! D162  D(57,44,45,58)       -178.7701                                         !
 ! D163  D(57,44,45,59)        -60.225                                          !
 --------------------------------------------------------------------------------
 Symmetry turned off by external request.
 Stoichiometry    C20H31N4O4(1+)
 Framework group  C1[X(C20H31N4O4)]
 Deg. of freedom   171
 Full point group                 C1      NOp   1
                          Input orientation:                          
 ---------------------------------------------------------------------
 Center     Atomic      Atomic             Coordinates (Angstroms)
 Number     Number       Type             X           Y           Z
 ---------------------------------------------------------------------
      1          7           0       -7.713304   18.554386   14.192601
      2          6           0       -8.256968   19.762435   13.470999
      3          6           0       -9.339197   19.148003   12.543602
      4          8           0       -9.805910   18.052141   12.870408
      5          6           0       -7.083059   20.522436   12.813541
      6          6           0       -5.905900   20.671644   13.757304
      7          6           0       -4.831755   19.771252   13.694573
      8          6           0       -5.902016   21.671358   14.740034
      9          6           0       -3.770085   19.876748   14.595839
     10          6           0       -4.840804   21.775789   15.640278
     11          6           0       -3.772721   20.877941   15.569232
     12          1           0       -7.172453   17.977322   13.461568
     13          1           0       -8.740833   20.393562   14.225315
     14          1           0       -6.780089   19.981097   11.914050
     15          1           0       -7.440990   21.509577   12.515062
     16          1           0       -4.834533   18.988625   12.939272
     17          1           0       -6.725247   22.381517   14.791251
     18          1           0       -2.939266   19.179848   14.533060
     19          1           0       -4.844047   22.561042   16.390641
     20          1           0       -2.944550   20.962076   16.266675
     21          1           0       -8.503724   17.970341   14.491020
     22          1           0       -7.103327   18.819083   14.969074
     23          7           0       -9.692509   19.750114   11.386593
     24          6           0      -10.573662   18.993169   10.461008
     25          6           0       -9.975646   17.624000   10.099687
     26          8           0      -10.684414   16.636347    9.977544
     27          6           0      -10.736772   19.958208    9.272893
     28          6           0      -10.643837   21.342176    9.931897
     29          6           0       -9.522844   21.158416   10.964542
     30          1           0      -11.529282   18.779439   10.947269
     31          1           0       -9.915313   19.817905    8.560359
     32          1           0      -11.676134   19.787026    8.743403
     33          1           0      -10.420706   22.144718    9.224304
     34          1           0      -11.583960   21.585186   10.439301
     35          1           0       -9.614742   21.835079   11.818393
     36          1           0       -8.539781   21.306748   10.503396
     37          7           0       -8.612384   17.610772    9.901230
     38          6           0       -7.899033   16.367198   10.162663
     39          6           0       -7.303748   16.416633   11.586472
     40          8           0       -6.825044   17.519959   11.963463
     41          6           0       -6.813031   16.043545    9.127625
     42          6           0       -6.235778   14.625803    9.292964
     43          6           0       -7.256902   13.480851    9.040735
     44          6           0       -7.634725   12.627714   10.255613
     45          7           0       -8.490026   13.360100   11.254481
     46          8           0       -7.311804   15.359508   12.288516
     47          1           0       -7.953231   14.284140   11.713149
     48          1           0       -8.109526   18.429600   10.223131
     49          1           0       -8.670798   15.600756   10.114988
     50          1           0       -6.005919   16.781816    9.208477
     51          1           0       -7.253917   16.154632    8.129698
     52          1           0       -5.404977   14.516899    8.588773
     53          1           0       -5.795831   14.522612   10.292619
     54          1           0       -6.839013   12.776548    8.313071
     55          1           0       -8.171916   13.869562    8.572067
     56          1           0       -8.182780   11.734671    9.940501
     57          1           0       -6.740761   12.306687   10.798127
     58          1           0       -9.365510   13.680076   10.828455
     59          1           0       -8.745898   12.744009   12.030511
 ---------------------------------------------------------------------
 Rotational constants (GHZ):           0.2256690           0.1250585           0.0920016
 Standard basis: 6-31G(d) (6D, 7F)
   482 basis functions,   908 primitive gaussians,   482 cartesian basis functions
   105 alpha electrons      105 beta electrons
       nuclear repulsion energy      2893.7932131546 Hartrees.
 NAtoms=   59 NActive=   59 NUniq=   59 SFac= 1.00D+00 NAtFMM=   60 NAOKFM=F Big=F
 Integral buffers will be    131072 words long.
 Raffenetti 2 integral format.
 Two-electron integral symmetry is turned off.
 Nuclear repulsion after empirical dispersion term =     2893.7140551555 Hartrees.
 One-electron integrals computed using PRISM.
 NBasis=   482 RedAO= T EigKep=  4.68D-04  NBF=   482
 NBsUse=   482 1.00D-06 EigRej= -1.00D+00 NBFU=   482
 Initial guess from the checkpoint file:  "conf-667.chk"
 B after Tr=     0.000000    0.000000    0.000000
         Rot=    1.000000    0.000000    0.000000    0.000000 Ang=   0.00 deg.
 Requested convergence on RMS density matrix=1.00D-08 within 128 cycles.
 Requested convergence on MAX density matrix=1.00D-06.
 Requested convergence on             energy=1.00D-06.
 No special actions if energy rises.
 SCF Done:  E(RB3LYP) =  -1300.63262369     A.U. after    1 cycles
            NFock=  1  Conv=0.80D-08     -V/T= 2.0095

 **********************************************************************

            Population analysis using the SCF Density.

 **********************************************************************

 Alpha  occ. eigenvalues --  -19.24043 -19.23129 -19.22339 -19.21127 -14.54371
 Alpha  occ. eigenvalues --  -14.52975 -14.48671 -14.44855 -10.41470 -10.39893
 Alpha  occ. eigenvalues --  -10.38257 -10.38061 -10.35586 -10.34088 -10.33364
 Alpha  occ. eigenvalues --  -10.32376 -10.31298 -10.30348 -10.29949 -10.29652
 Alpha  occ. eigenvalues --  -10.29490 -10.28779 -10.28778 -10.28529 -10.28454
 Alpha  occ. eigenvalues --  -10.28356 -10.28287 -10.28115  -1.16829  -1.15938
 Alpha  occ. eigenvalues --   -1.12910  -1.09749  -1.08511  -1.06619  -1.06092
 Alpha  occ. eigenvalues --   -1.01605  -0.95482  -0.91631  -0.91041  -0.89485
 Alpha  occ. eigenvalues --   -0.87263  -0.85388  -0.84052  -0.83829  -0.80036
 Alpha  occ. eigenvalues --   -0.77823  -0.75463  -0.74402  -0.71255  -0.70547
 Alpha  occ. eigenvalues --   -0.69968  -0.69355  -0.69176  -0.68533  -0.67803
 Alpha  occ. eigenvalues --   -0.67377  -0.66917  -0.66520  -0.64224  -0.61179
 Alpha  occ. eigenvalues --   -0.60766  -0.60548  -0.60081  -0.59834  -0.58000
 Alpha  occ. eigenvalues --   -0.57312  -0.57206  -0.55976  -0.55487  -0.55108
 Alpha  occ. eigenvalues --   -0.54360  -0.54005  -0.53306  -0.52845  -0.52538
 Alpha  occ. eigenvalues --   -0.52204  -0.51736  -0.51324  -0.51062  -0.50770
 Alpha  occ. eigenvalues --   -0.49977  -0.49691  -0.48995  -0.48627  -0.48202
 Alpha  occ. eigenvalues --   -0.47400  -0.46688  -0.46109  -0.45372  -0.45242
 Alpha  occ. eigenvalues --   -0.44707  -0.44540  -0.43766  -0.43698  -0.43392
 Alpha  occ. eigenvalues --   -0.42872  -0.38982  -0.38179  -0.38122  -0.37267
 Alpha  occ. eigenvalues --   -0.36701  -0.34586  -0.34509  -0.34191  -0.33890
 Alpha virt. eigenvalues --   -0.11662  -0.09948  -0.09816  -0.08154  -0.07083
 Alpha virt. eigenvalues --   -0.06404  -0.04549  -0.03348  -0.01747  -0.01701
 Alpha virt. eigenvalues --   -0.00336  -0.00168   0.00686   0.00764   0.01555
 Alpha virt. eigenvalues --    0.02004   0.02203   0.02561   0.03229   0.03687
 Alpha virt. eigenvalues --    0.03773   0.04471   0.04530   0.05477   0.05839
 Alpha virt. eigenvalues --    0.06189   0.06368   0.06665   0.07058   0.07321
 Alpha virt. eigenvalues --    0.07808   0.08011   0.08675   0.08686   0.09341
 Alpha virt. eigenvalues --    0.09634   0.10170   0.10810   0.10938   0.11335
 Alpha virt. eigenvalues --    0.11416   0.12400   0.12766   0.13604   0.14247
 Alpha virt. eigenvalues --    0.15126   0.15262   0.15408   0.16954   0.17580
 Alpha virt. eigenvalues --    0.17969   0.18348   0.19061   0.20426   0.21513
 Alpha virt. eigenvalues --    0.23254   0.23548   0.24737   0.25460   0.25868
 Alpha virt. eigenvalues --    0.28476   0.30327   0.30963   0.32567   0.35410
 Alpha virt. eigenvalues --    0.37428   0.38692   0.39555   0.40569   0.40748
 Alpha virt. eigenvalues --    0.40984   0.41625   0.42151   0.42589   0.43066
 Alpha virt. eigenvalues --    0.44389   0.44601   0.45066   0.45415   0.46039
 Alpha virt. eigenvalues --    0.46237   0.47250   0.47560   0.47776   0.48452
 Alpha virt. eigenvalues --    0.49213   0.50186   0.50421   0.50887   0.51432
 Alpha virt. eigenvalues --    0.51519   0.52047   0.52257   0.52734   0.53269
 Alpha virt. eigenvalues --    0.53478   0.54183   0.54496   0.55223   0.55534
 Alpha virt. eigenvalues --    0.55716   0.56272   0.56831   0.57197   0.59108
 Alpha virt. eigenvalues --    0.59466   0.60272   0.60411   0.61477   0.62525
 Alpha virt. eigenvalues --    0.63273   0.64395   0.64937   0.64980   0.66021
 Alpha virt. eigenvalues --    0.67310   0.68603   0.69255   0.70200   0.70804
 Alpha virt. eigenvalues --    0.70990   0.71085   0.71840   0.72315   0.73145
 Alpha virt. eigenvalues --    0.73680   0.74076   0.74554   0.74797   0.75159
 Alpha virt. eigenvalues --    0.75601   0.76334   0.76475   0.76646   0.77308
 Alpha virt. eigenvalues --    0.77444   0.77986   0.78199   0.78380   0.79251
 Alpha virt. eigenvalues --    0.79575   0.79903   0.80660   0.81393   0.81608
 Alpha virt. eigenvalues --    0.81807   0.82818   0.83015   0.83460   0.84194
 Alpha virt. eigenvalues --    0.84770   0.85039   0.85692   0.86194   0.86858
 Alpha virt. eigenvalues --    0.87508   0.87774   0.89766   0.90423   0.91037
 Alpha virt. eigenvalues --    0.91736   0.92427   0.94933   0.95355   0.96013
 Alpha virt. eigenvalues --    0.96670   0.97832   0.98406   1.00237   1.01318
 Alpha virt. eigenvalues --    1.01656   1.01803   1.03076   1.03772   1.05275
 Alpha virt. eigenvalues --    1.06295   1.07510   1.08745   1.09135   1.09817
 Alpha virt. eigenvalues --    1.11159   1.13528   1.15045   1.16123   1.16842
 Alpha virt. eigenvalues --    1.19261   1.20068   1.20433   1.23665   1.26110
 Alpha virt. eigenvalues --    1.26478   1.26761   1.27376   1.29172   1.29644
 Alpha virt. eigenvalues --    1.30832   1.32875   1.33095   1.33655   1.34591
 Alpha virt. eigenvalues --    1.35073   1.36699   1.38417   1.39001   1.39616
 Alpha virt. eigenvalues --    1.39944   1.40932   1.41625   1.41951   1.43039
 Alpha virt. eigenvalues --    1.44790   1.46991   1.49426   1.49609   1.51182
 Alpha virt. eigenvalues --    1.51865   1.52512   1.55122   1.56377   1.56793
 Alpha virt. eigenvalues --    1.58415   1.59219   1.61181   1.64350   1.64785
 Alpha virt. eigenvalues --    1.65579   1.65725   1.67382   1.68277   1.68614
 Alpha virt. eigenvalues --    1.69293   1.70285   1.70600   1.70863   1.71842
 Alpha virt. eigenvalues --    1.72390   1.73492   1.74247   1.74548   1.75532
 Alpha virt. eigenvalues --    1.76055   1.76411   1.77874   1.78453   1.78861
 Alpha virt. eigenvalues --    1.79753   1.80108   1.80959   1.81931   1.82953
 Alpha virt. eigenvalues --    1.83727   1.83825   1.84174   1.85338   1.87669
 Alpha virt. eigenvalues --    1.88128   1.88826   1.89560   1.90041   1.90864
 Alpha virt. eigenvalues --    1.91570   1.92396   1.93017   1.93347   1.94768
 Alpha virt. eigenvalues --    1.95520   1.95909   1.96581   1.96916   1.97872
 Alpha virt. eigenvalues --    1.98843   2.00607   2.01379   2.01467   2.02248
 Alpha virt. eigenvalues --    2.04237   2.04906   2.05692   2.07056   2.07267
 Alpha virt. eigenvalues --    2.08580   2.10085   2.11276   2.12115   2.12812
 Alpha virt. eigenvalues --    2.14485   2.15365   2.16638   2.16753   2.19276
 Alpha virt. eigenvalues --    2.20355   2.21582   2.22317   2.24168   2.24479
 Alpha virt. eigenvalues --    2.25122   2.26347   2.26799   2.27491   2.29168
 Alpha virt. eigenvalues --    2.30170   2.31246   2.32159   2.32881   2.36071
 Alpha virt. eigenvalues --    2.36993   2.37988   2.40302   2.40899   2.42050
 Alpha virt. eigenvalues --    2.43377   2.45659   2.46511   2.47057   2.48166
 Alpha virt. eigenvalues --    2.48885   2.51372   2.51629   2.51926   2.53710
 Alpha virt. eigenvalues --    2.54928   2.56321   2.56812   2.57251   2.57789
 Alpha virt. eigenvalues --    2.59134   2.60473   2.61888   2.63555   2.64999
 Alpha virt. eigenvalues --    2.65536   2.66124   2.67207   2.67802   2.68315
 Alpha virt. eigenvalues --    2.73282   2.74846   2.81872   2.84390   2.87431
 Alpha virt. eigenvalues --    2.89568   2.92836   2.94388   2.94687   2.97459
 Alpha virt. eigenvalues --    3.01527   3.05416   3.09910   3.31372   3.72991
 Alpha virt. eigenvalues --    3.76270   3.88427   3.92144   3.98955   4.00355
 Alpha virt. eigenvalues --    4.02656   4.03412   4.07061   4.08504   4.10970
 Alpha virt. eigenvalues --    4.13785   4.16200   4.17817   4.22171   4.25142
 Alpha virt. eigenvalues --    4.26154   4.30711   4.32828   4.37160   4.39647
 Alpha virt. eigenvalues --    4.44302   4.46833   4.48548   4.57565   4.60035
 Alpha virt. eigenvalues --    4.60986   4.67655
          Condensed to atoms (all electrons):
 Mulliken charges:
               1
     1  N   -0.759851
     2  C   -0.104792
     3  C    0.635260
     4  O   -0.532525
     5  C   -0.375466
     6  C    0.110280
     7  C   -0.208620
     8  C   -0.185942
     9  C   -0.128372
    10  C   -0.127225
    11  C   -0.125478
    12  H    0.448365
    13  H    0.207446
    14  H    0.196939
    15  H    0.179234
    16  H    0.167986
    17  H    0.134770
    18  H    0.156459
    19  H    0.157934
    20  H    0.159145
    21  H    0.408270
    22  H    0.397779
    23  N   -0.489353
    24  C   -0.019491
    25  C    0.613576
    26  O   -0.516258
    27  C   -0.314945
    28  C   -0.301762
    29  C   -0.140300
    30  H    0.199466
    31  H    0.169476
    32  H    0.191885
    33  H    0.179784
    34  H    0.174627
    35  H    0.173237
    36  H    0.173630
    37  N   -0.594065
    38  C   -0.067796
    39  C    0.667710
    40  O   -0.613795
    41  C   -0.276844
    42  C   -0.295672
    43  C   -0.290469
    44  C   -0.181321
    45  N   -0.786786
    46  O   -0.607082
    47  H    0.469800
    48  H    0.336309
    49  H    0.143418
    50  H    0.159827
    51  H    0.167494
    52  H    0.171193
    53  H    0.162675
    54  H    0.185181
    55  H    0.167813
    56  H    0.193351
    57  H    0.201328
    58  H    0.394488
    59  H    0.388072
 Sum of Mulliken charges =   1.00000
 Mulliken charges with hydrogens summed into heavy atoms:
               1
     1  N    0.494563
     2  C    0.102655
     3  C    0.635260
     4  O   -0.532525
     5  C    0.000707
     6  C    0.110280
     7  C   -0.040633
     8  C   -0.051172
     9  C    0.028086
    10  C    0.030709
    11  C    0.033667
    23  N   -0.489353
    24  C    0.179975
    25  C    0.613576
    26  O   -0.516258
    27  C    0.046416
    28  C    0.052650
    29  C    0.206567
    37  N   -0.257756
    38  C    0.075622
    39  C    0.667710
    40  O   -0.613795
    41  C    0.050477
    42  C    0.038196
    43  C    0.062526
    44  C    0.213358
    45  N    0.465574
    46  O   -0.607082
 Electronic spatial extent (au):  <R**2>=         406613.2033
 Charge=              1.0000 electrons
 Dipole moment (field-independent basis, Debye):
    X=            -37.7829    Y=             83.8568    Z=             58.2491  Tot=            108.8691
 Quadrupole moment (field-independent basis, Debye-Ang):
   XX=            145.1085   YY=           1387.4532   ZZ=            577.2280
   XY=           -665.5163   XZ=           -449.7133   YZ=           1038.7273
 Traceless Quadrupole moment (field-independent basis, Debye-Ang):
   XX=           -558.1547   YY=            684.1900   ZZ=           -126.0352
   XY=           -665.5163   XZ=           -449.7133   YZ=           1038.7273
 Octapole moment (field-independent basis, Debye-Ang**2):
  XXX=           1246.1557  YYY=          21070.6795  ZZZ=           4067.3171  XYY=         -11190.4529
  XXY=           2561.3596  XXZ=           1712.5855  XZZ=          -4313.2811  YZZ=          10530.5389
  YYZ=          17595.2884  XYZ=          -8027.3117
 Hexadecapole moment (field-independent basis, Debye-Ang**3):
 XXXX=         -41867.0315 YYYY=         266756.6950 ZZZZ=          -4513.1061 XXXY=          21911.4821
 XXXZ=          13674.3858 YYYX=        -175074.3348 YYYZ=         274978.7110 ZZZX=         -28555.6429
 ZZZY=          76734.7461 XXYY=          39782.6479 XXZZ=          10630.3444 YYZZ=         179136.6743
 XXYZ=          30142.9694 YYXZ=        -137081.9207 ZZXY=         -78146.0312
 N-N= 2.893714055156D+03 E-N=-8.791058316339D+03  KE= 1.288400509288D+03
 Unable to Open any file for archive entry.
 1\1\GINC-LAC-308\SP\RB3LYP\6-31G(d)\C20H31N4O4(1+)\KENGMITH\25-May-202
 2\0\\# B3LYP/6-31G* empiricaldispersion=gd3 guess=read geom=check nosy
 mm integral(ultrafinegrid)\\Candidate Structure: Conf:667 Charge calc 
 in gas phase\\1,1\N,0,-7.713303612,18.5543864511,14.1926011427\C,0,-8.
 2569675356,19.7624346836,13.4709991995\C,0,-9.3391968986,19.1480034192
 ,12.5436017797\O,0,-9.8059099553,18.0521406391,12.8704076111\C,0,-7.08
 30586483,20.5224357139,12.8135412718\C,0,-5.9059001331,20.6716438536,1
 3.7573043693\C,0,-4.8317554942,19.7712523891,13.6945727734\C,0,-5.9020
 160602,21.671358268,14.7400341275\C,0,-3.7700854299,19.8767477284,14.5
 958393871\C,0,-4.840804262,21.7757890211,15.6402782437\C,0,-3.77272060
 36,20.8779405386,15.5692319497\H,0,-7.1724529448,17.9773216342,13.4615
 684247\H,0,-8.7408327436,20.3935621237,14.2253145445\H,0,-6.7800894986
 ,19.9810971921,11.9140496848\H,0,-7.4409896738,21.509577291,12.5150623
 799\H,0,-4.8345329916,18.9886245664,12.9392719029\H,0,-6.7252466188,22
 .3815167545,14.7912514345\H,0,-2.9392662759,19.1798484774,14.533059913
 8\H,0,-4.8440468444,22.5610420967,16.3906408213\H,0,-2.9445502767,20.9
 620756375,16.2666747187\H,0,-8.5037239592,17.9703410105,14.4910197301\
 H,0,-7.1033265058,18.8190832872,14.9690738774\N,0,-9.6925088848,19.750
 1141316,11.3865930291\C,0,-10.5736622227,18.9931690254,10.4610078708\C
 ,0,-9.9756458352,17.6240001308,10.0996872717\O,0,-10.6844139687,16.636
 3473328,9.9775439498\C,0,-10.7367723598,19.9582080645,9.2728930492\C,0
 ,-10.6438370454,21.3421756503,9.9318967737\C,0,-9.5228439166,21.158415
 8673,10.9645419811\H,0,-11.5292820758,18.7794393996,10.947269296\H,0,-
 9.9153131643,19.8179054239,8.56035928\H,0,-11.6761336894,19.7870259674
 ,8.7434031534\H,0,-10.4207062426,22.1447183545,9.2243041873\H,0,-11.58
 39601485,21.5851864963,10.4393012516\H,0,-9.6147420463,21.8350789395,1
 1.8183928485\H,0,-8.5397814935,21.306747932,10.5033959302\N,0,-8.61238
 38716,17.6107717167,9.9012300444\C,0,-7.899032656,16.367198004,10.1626
 634692\C,0,-7.3037476127,16.4166326656,11.5864715039\O,0,-6.8250440893
 ,17.5199588281,11.9634632972\C,0,-6.8130306726,16.043544604,9.12762527
 75\C,0,-6.2357775136,14.6258027462,9.2929637028\C,0,-7.2569017476,13.4
 808511777,9.0407353567\C,0,-7.6347252706,12.627713582,10.2556126298\N,
 0,-8.4900255046,13.3600997271,11.2544810112\O,0,-7.3118042307,15.35950
 83612,12.2885155311\H,0,-7.9532314169,14.2841399343,11.7131493219\H,0,
 -8.1095258892,18.4296004842,10.2231305884\H,0,-8.67079759,15.600756441
 ,10.114988239\H,0,-6.0059186133,16.7818158738,9.2084770347\H,0,-7.2539
 174511,16.1546324479,8.1296984429\H,0,-5.404977118,14.5168987038,8.588
 7729177\H,0,-5.7958309699,14.5226122854,10.292618956\H,0,-6.8390134555
 ,12.7765478698,8.3130706484\H,0,-8.1719163027,13.8695619923,8.57206698
 32\H,0,-8.1827796328,11.7346708664,9.9405007853\H,0,-6.7407611029,12.3
 066873333,10.7981266088\H,0,-9.3655100003,13.6800759566,10.8284547838\
 H,0,-8.7458980985,12.744008626,12.0305114056\\Version=ES64L-G16RevC.01
 \HF=-1300.6326237\RMSD=8.030e-09\Dipole=-0.1150772,-1.1768009,0.691988
 \Quadrupole=-414.9743737,508.678487,-93.7041133,-494.7950792,-334.3508
 251,772.2682659\PG=C01 [X(C20H31N4O4)]\\@
 The archive entry for this job was punched.


 IT IS DOUBTED WHETHER A MAN EVER BRINGS HIS FACULTIES TO BEAR WITH THEIR FULL FORCE
 ON A SUBJECT UNTIL HE WRITES UPON IT.

                          -- CICERO
 Job cpu time:       0 days  0 hours  1 minutes 15.4 seconds.
 Elapsed time:       0 days  0 hours  0 minutes 19.2 seconds.
 File lengths (MBytes):  RWF=    240 Int=      0 D2E=      0 Chk=     32 Scr=     16
 Normal termination of Gaussian 16 at Wed May 25 19:10:03 2022.
