 Entering Gaussian System, Link 0=/opt/software/Gaussian/g16-AVX2-C.01/g16/g16
 Input=charge-conf-497.com
 Output=charge-conf-497.log
 Initial command:
 /opt/software/Gaussian/g16-AVX2-C.01/g16/l1.exe "/mnt/gs18/scratch/users/kengmith/Gau-13174.inp" -scrdir="/mnt/gs18/scratch/users/kengmith/"
 Entering Link 1 = /opt/software/Gaussian/g16-AVX2-C.01/g16/l1.exe PID=     13190.
  
 Copyright (c) 1988-2019, Gaussian, Inc.  All Rights Reserved.
  
 This is part of the Gaussian(R) 16 program.  It is based on
 the Gaussian(R) 09 system (copyright 2009, Gaussian, Inc.),
 the Gaussian(R) 03 system (copyright 2003, Gaussian, Inc.),
 the Gaussian(R) 98 system (copyright 1998, Gaussian, Inc.),
 the Gaussian(R) 94 system (copyright 1995, Gaussian, Inc.),
 the Gaussian 92(TM) system (copyright 1992, Gaussian, Inc.),
 the Gaussian 90(TM) system (copyright 1990, Gaussian, Inc.),
 the Gaussian 88(TM) system (copyright 1988, Gaussian, Inc.),
 the Gaussian 86(TM) system (copyright 1986, Carnegie Mellon
 University), and the Gaussian 82(TM) system (copyright 1983,
 Carnegie Mellon University). Gaussian is a federally registered
 trademark of Gaussian, Inc.
  
 This software contains proprietary and confidential information,
 including trade secrets, belonging to Gaussian, Inc.
  
 This software is provided under written license and may be
 used, copied, transmitted, or stored only in accord with that
 written license.
  
 The following legend is applicable only to US Government
 contracts under FAR:
  
                    RESTRICTED RIGHTS LEGEND
  
 Use, reproduction and disclosure by the US Government is
 subject to restrictions as set forth in subparagraphs (a)
 and (c) of the Commercial Computer Software - Restricted
 Rights clause in FAR 52.227-19.
  
 Gaussian, Inc.
 340 Quinnipiac St., Bldg. 40, Wallingford CT 06492
  
  
 ---------------------------------------------------------------
 Warning -- This program may not be used in any manner that
 competes with the business of Gaussian, Inc. or will provide
 assistance to any competitor of Gaussian, Inc.  The licensee
 of this program is prohibited from giving any competitor of
 Gaussian, Inc. access to this program.  By using this program,
 the user acknowledges that Gaussian, Inc. is engaged in the
 business of creating and licensing software in the field of
 computational chemistry and represents and warrants to the
 licensee that it is not a competitor of Gaussian, Inc. and that
 it will not use this program in any manner prohibited above.
 ---------------------------------------------------------------
  

 Cite this work as:
 Gaussian 16, Revision C.01,
 M. J. Frisch, G. W. Trucks, H. B. Schlegel, G. E. Scuseria, 
 M. A. Robb, J. R. Cheeseman, G. Scalmani, V. Barone, 
 G. A. Petersson, H. Nakatsuji, X. Li, M. Caricato, A. V. Marenich, 
 J. Bloino, B. G. Janesko, R. Gomperts, B. Mennucci, H. P. Hratchian, 
 J. V. Ortiz, A. F. Izmaylov, J. L. Sonnenberg, D. Williams-Young, 
 F. Ding, F. Lipparini, F. Egidi, J. Goings, B. Peng, A. Petrone, 
 T. Henderson, D. Ranasinghe, V. G. Zakrzewski, J. Gao, N. Rega, 
 G. Zheng, W. Liang, M. Hada, M. Ehara, K. Toyota, R. Fukuda, 
 J. Hasegawa, M. Ishida, T. Nakajima, Y. Honda, O. Kitao, H. Nakai, 
 T. Vreven, K. Throssell, J. A. Montgomery, Jr., J. E. Peralta, 
 F. Ogliaro, M. J. Bearpark, J. J. Heyd, E. N. Brothers, K. N. Kudin, 
 V. N. Staroverov, T. A. Keith, R. Kobayashi, J. Normand, 
 K. Raghavachari, A. P. Rendell, J. C. Burant, S. S. Iyengar, 
 J. Tomasi, M. Cossi, J. M. Millam, M. Klene, C. Adamo, R. Cammi, 
 J. W. Ochterski, R. L. Martin, K. Morokuma, O. Farkas, 
 J. B. Foresman, and D. J. Fox, Gaussian, Inc., Wallingford CT, 2019.
 
 ******************************************
 Gaussian 16:  ES64L-G16RevC.01  3-Jul-2019
                25-May-2022 
 ******************************************
 %mem=8gb
 %nproc=4
 Will use up to    4 processors via shared memory.
 %chk=conf-497.chk
 ----------------------------------------------------------------------
 # B3LYP/6-31G* empiricaldispersion=gd3 guess=read geom=check nosymm in
 tegral(ultrafinegrid)
 ----------------------------------------------------------------------
 1/29=2,38=1,172=1/1;
 2/12=2,15=1,40=1/2;
 3/5=1,6=6,7=1,11=2,14=-4,25=1,30=1,74=-5,75=-5,116=-2,124=31/1,2,3;
 4/5=1/1;
 5/5=2,38=6/2;
 6/7=2,8=2,9=2,10=2,28=1/1;
 99/5=1,9=1/99;
 ------------------------------------------------------
 Candidate Structure: Conf:497 Charge calc in gas phase
 ------------------------------------------------------
 Structure from the checkpoint file:  "conf-497.chk"
 Charge =  1 Multiplicity = 1
 Redundant internal coordinates found in file.  (old form).
 N,0,-9.6587243517,19.239962187,13.6702120693
 C,0,-8.2973807149,18.9238082726,14.2519373797
 C,0,-7.3471600599,19.7888006097,13.386883654
 O,0,-7.8620379546,20.6622271112,12.682163962
 C,0,-8.0874366215,17.3944664781,14.2107804894
 C,0,-9.3055004252,16.6464493265,14.7152408485
 C,0,-10.2159444925,16.0856440342,13.8073054136
 C,0,-9.5722992779,16.5633227226,16.0894137077
 C,0,-11.3682981507,15.4441877337,14.2677899469
 C,0,-10.7242659147,15.923536193,16.5485751493
 C,0,-11.624242185,15.3634164428,15.637931702
 H,0,-9.702775234,18.8305883073,12.7136187291
 H,0,-8.3134719265,19.2801294059,15.2876594493
 H,0,-7.8637149786,17.1025197382,13.1808257876
 H,0,-7.2173335576,17.1560733219,14.8256494809
 H,0,-10.012927758,16.1427011615,12.7398145525
 H,0,-8.8674125126,16.9841018409,16.803978867
 H,0,-12.0601879383,15.0015970748,13.5571576871
 H,0,-10.9147419653,15.8544957724,17.6154490852
 H,0,-12.517427179,14.8606017828,15.9961685481
 H,0,-9.7313364038,20.2580096954,13.5429901934
 H,0,-10.411410449,18.8531244947,14.2472997584
 N,0,-6.0296339976,19.5118472285,13.3456188226
 C,0,-5.2152838616,20.2059073868,12.3157699225
 C,0,-5.7516477689,19.9418356482,10.897959448
 O,0,-5.6939431907,20.789490985,10.028811832
 C,0,-3.7960521169,19.6662765819,12.5760248319
 C,0,-3.8007582102,19.3715471811,14.0843659094
 C,0,-5.1928727074,18.7652910099,14.3113012501
 H,0,-5.2758169195,21.2875826684,12.4600806165
 H,0,-3.6345377042,18.7430546638,12.0070809132
 H,0,-3.0331209298,20.3858631605,12.2735368915
 H,0,-3.0030277577,18.6920522849,14.3944799138
 H,0,-3.7006422184,20.3010973767,14.6552490911
 H,0,-5.5630710455,18.8972079628,15.3321007036
 H,0,-5.1909308444,17.6948153682,14.0734096662
 N,0,-6.2467122226,18.6699468893,10.6960885668
 C,0,-7.1341551675,18.3784388982,9.5867741934
 C,0,-8.5822192635,18.5217568123,10.0496894539
 O,0,-8.9804416035,18.1923419227,11.164258464
 C,0,-6.8927867651,16.9500079703,9.0457375036
 C,0,-7.7709620995,16.5417622037,7.8540723854
 C,0,-7.5812136482,17.4072776076,6.6023791502
 C,0,-8.4471092636,16.9497286201,5.4116765986
 N,0,-9.8979492986,17.0226734246,5.5933227742
 O,0,-9.388474105,18.9961464087,9.1031786964
 H,0,-10.3046869813,19.0142194308,9.4420835061
 H,0,-6.3612077951,18.0843198255,11.5122051231
 H,0,-6.9407406288,19.1233009407,8.8137778516
 H,0,-7.0361920272,16.2426609061,9.874978016
 H,0,-5.8340064623,16.905005816,8.7664511585
 H,0,-7.5360529305,15.497756045,7.6086354977
 H,0,-8.8286935597,16.5512867934,8.1502811048
 H,0,-6.5221287266,17.3903891177,6.3075641005
 H,0,-7.8284016562,18.4544214142,6.8255843643
 H,0,-8.1906783482,17.5570669758,4.535595656
 H,0,-8.1961897345,15.9129127391,5.1522385678
 H,0,-10.2050767895,16.3884292688,6.3275423211
 H,0,-10.1707067987,17.9621478557,5.8788172425
 Recover connectivity data from disk.
                           ----------------------------
                           !    Current Parameters    !
                           ! (Angstroms and Degrees)  !
 --------------------------                            --------------------------
 ! Name  Definition              Value                                          !
 --------------------------------------------------------------------------------
 ! R1    R(1,2)                  1.5138                                         !
 ! R2    R(1,12)                 1.0414                                         !
 ! R3    R(1,21)                 1.0285                                         !
 ! R4    R(1,22)                 1.0243                                         !
 ! R5    R(2,3)                  1.549                                          !
 ! R6    R(2,5)                  1.5442                                         !
 ! R7    R(2,13)                 1.0954                                         !
 ! R8    R(3,4)                  1.2347                                         !
 ! R9    R(3,23)                 1.347                                          !
 ! R10   R(5,6)                  1.5158                                         !
 ! R11   R(5,14)                 1.0937                                         !
 ! R12   R(5,15)                 1.0918                                         !
 ! R13   R(6,7)                  1.4028                                         !
 ! R14   R(6,8)                  1.4023                                         !
 ! R15   R(7,9)                  1.3969                                         !
 ! R16   R(7,16)                 1.0881                                         !
 ! R17   R(8,10)                 1.3954                                         !
 ! R18   R(8,17)                 1.0884                                         !
 ! R19   R(9,11)                 1.3962                                         !
 ! R20   R(9,18)                 1.0861                                         !
 ! R21   R(10,11)                1.3975                                         !
 ! R22   R(10,19)                1.0859                                         !
 ! R23   R(11,20)                1.0858                                         !
 ! R24   R(23,24)                1.4851                                         !
 ! R25   R(23,29)                1.4799                                         !
 ! R26   R(24,25)                1.5387                                         !
 ! R27   R(24,27)                1.5405                                         !
 ! R28   R(24,30)                1.0929                                         !
 ! R29   R(25,26)                1.2154                                         !
 ! R30   R(25,37)                1.3797                                         !
 ! R31   R(27,28)                1.5369                                         !
 ! R32   R(27,31)                1.0964                                         !
 ! R33   R(27,32)                1.0915                                         !
 ! R34   R(28,29)                1.5353                                         !
 ! R35   R(28,33)                1.0928                                         !
 ! R36   R(28,34)                1.0954                                         !
 ! R37   R(29,35)                1.0938                                         !
 ! R38   R(29,36)                1.0966                                         !
 ! R39   R(37,38)                1.4502                                         !
 ! R40   R(37,48)                1.011                                          !
 ! R41   R(38,39)                1.527                                          !
 ! R42   R(38,41)                1.5464                                         !
 ! R43   R(38,49)                1.0908                                         !
 ! R44   R(39,40)                1.2286                                         !
 ! R45   R(39,46)                1.3308                                         !
 ! R46   R(41,42)                1.5356                                         !
 ! R47   R(41,50)                1.0993                                         !
 ! R48   R(41,51)                1.0959                                         !
 ! R49   R(42,43)                1.5336                                         !
 ! R50   R(42,52)                1.0979                                         !
 ! R51   R(42,53)                1.0985                                         !
 ! R52   R(43,44)                1.5417                                         !
 ! R53   R(43,54)                1.0995                                         !
 ! R54   R(43,55)                1.0988                                         !
 ! R55   R(44,45)                1.464                                          !
 ! R56   R(44,56)                1.0964                                         !
 ! R57   R(44,57)                1.0978                                         !
 ! R58   R(45,58)                1.0177                                         !
 ! R59   R(45,59)                1.0191                                         !
 ! R60   R(46,47)                0.9771                                         !
 ! A1    A(2,1,12)             107.9939                                         !
 ! A2    A(2,1,21)             108.5262                                         !
 ! A3    A(2,1,22)             111.4348                                         !
 ! A4    A(12,1,21)            105.8116                                         !
 ! A5    A(12,1,22)            109.7526                                         !
 ! A6    A(21,1,22)            113.0552                                         !
 ! A7    A(1,2,3)              102.7341                                         !
 ! A8    A(1,2,5)              108.5935                                         !
 ! A9    A(1,2,13)             106.3911                                         !
 ! A10   A(3,2,5)              117.0486                                         !
 ! A11   A(3,2,13)             110.8172                                         !
 ! A12   A(5,2,13)             110.4471                                         !
 ! A13   A(2,3,4)              117.2544                                         !
 ! A14   A(2,3,23)             120.1539                                         !
 ! A15   A(4,3,23)             122.401                                          !
 ! A16   A(2,5,6)              111.7526                                         !
 ! A17   A(2,5,14)             108.4986                                         !
 ! A18   A(2,5,15)             108.0344                                         !
 ! A19   A(6,5,14)             110.2467                                         !
 ! A20   A(6,5,15)             110.1962                                         !
 ! A21   A(14,5,15)            108.0026                                         !
 ! A22   A(5,6,7)              120.227                                          !
 ! A23   A(5,6,8)              120.5481                                         !
 ! A24   A(7,6,8)              119.1489                                         !
 ! A25   A(6,7,9)              120.3723                                         !
 ! A26   A(6,7,16)             119.5325                                         !
 ! A27   A(9,7,16)             120.0911                                         !
 ! A28   A(6,8,10)             120.4439                                         !
 ! A29   A(6,8,17)             119.8178                                         !
 ! A30   A(10,8,17)            119.7285                                         !
 ! A31   A(7,9,11)             120.0845                                         !
 ! A32   A(7,9,18)             119.7982                                         !
 ! A33   A(11,9,18)            120.1154                                         !
 ! A34   A(8,10,11)            120.0656                                         !
 ! A35   A(8,10,19)            119.8164                                         !
 ! A36   A(11,10,19)           120.1158                                         !
 ! A37   A(9,11,10)            119.8833                                         !
 ! A38   A(9,11,20)            120.0906                                         !
 ! A39   A(10,11,20)           120.0248                                         !
 ! A40   A(3,23,24)            117.4854                                         !
 ! A41   A(3,23,29)            129.5541                                         !
 ! A42   A(24,23,29)           112.2238                                         !
 ! A43   A(23,24,25)           111.5692                                         !
 ! A44   A(23,24,27)           102.9628                                         !
 ! A45   A(23,24,30)           109.9136                                         !
 ! A46   A(25,24,27)           114.6259                                         !
 ! A47   A(25,24,30)           105.7958                                         !
 ! A48   A(27,24,30)           112.0493                                         !
 ! A49   A(24,25,26)           121.5117                                         !
 ! A50   A(24,25,37)           114.7153                                         !
 ! A51   A(26,25,37)           123.7332                                         !
 ! A52   A(24,27,28)           103.3065                                         !
 ! A53   A(24,27,31)           110.0604                                         !
 ! A54   A(24,27,32)           111.4811                                         !
 ! A55   A(28,27,31)           110.3804                                         !
 ! A56   A(28,27,32)           113.6129                                         !
 ! A57   A(31,27,32)           107.9599                                         !
 ! A58   A(27,28,29)           102.9192                                         !
 ! A59   A(27,28,33)           113.2978                                         !
 ! A60   A(27,28,34)           110.3931                                         !
 ! A61   A(29,28,33)           111.9892                                         !
 ! A62   A(29,28,34)           109.9332                                         !
 ! A63   A(33,28,34)           108.2412                                         !
 ! A64   A(23,29,28)           102.5352                                         !
 ! A65   A(23,29,35)           110.9018                                         !
 ! A66   A(23,29,36)           110.6033                                         !
 ! A67   A(28,29,35)           113.4036                                         !
 ! A68   A(28,29,36)           110.5981                                         !
 ! A69   A(35,29,36)           108.71                                           !
 ! A70   A(25,37,38)           121.1182                                         !
 ! A71   A(25,37,48)           117.1629                                         !
 ! A72   A(38,37,48)           115.5784                                         !
 ! A73   A(37,38,39)           109.2415                                         !
 ! A74   A(37,38,41)           110.9642                                         !
 ! A75   A(37,38,49)           107.2364                                         !
 ! A76   A(39,38,41)           109.924                                          !
 ! A77   A(39,38,49)           108.5965                                         !
 ! A78   A(41,38,49)           110.8036                                         !
 ! A79   A(38,39,40)           123.8653                                         !
 ! A80   A(38,39,46)           113.1023                                         !
 ! A81   A(40,39,46)           122.9875                                         !
 ! A82   A(38,41,42)           115.3298                                         !
 ! A83   A(38,41,50)           108.0636                                         !
 ! A84   A(38,41,51)           106.134                                          !
 ! A85   A(42,41,50)           109.8595                                         !
 ! A86   A(42,41,51)           110.1102                                         !
 ! A87   A(50,41,51)           106.9678                                         !
 ! A88   A(41,42,43)           114.3682                                         !
 ! A89   A(41,42,52)           107.6942                                         !
 ! A90   A(41,42,53)           109.823                                          !
 ! A91   A(43,42,52)           109.1317                                         !
 ! A92   A(43,42,53)           109.5324                                         !
 ! A93   A(52,42,53)           105.9356                                         !
 ! A94   A(42,43,44)           113.1647                                         !
 ! A95   A(42,43,54)           109.2304                                         !
 ! A96   A(42,43,55)           110.1331                                         !
 ! A97   A(44,43,54)           109.2298                                         !
 ! A98   A(44,43,55)           108.2615                                         !
 ! A99   A(54,43,55)           106.6064                                         !
 ! A100  A(43,44,45)           116.4864                                         !
 ! A101  A(43,44,56)           108.7454                                         !
 ! A102  A(43,44,57)           109.5376                                         !
 ! A103  A(45,44,56)           107.6572                                         !
 ! A104  A(45,44,57)           107.6308                                         !
 ! A105  A(56,44,57)           106.3114                                         !
 ! A106  A(44,45,58)           110.9496                                         !
 ! A107  A(44,45,59)           110.2394                                         !
 ! A108  A(58,45,59)           106.9568                                         !
 ! A109  A(39,46,47)           109.1483                                         !
 ! D1    D(12,1,2,3)            68.792                                          !
 ! D2    D(12,1,2,5)           -55.8128                                         !
 ! D3    D(12,1,2,13)         -174.7041                                         !
 ! D4    D(21,1,2,3)           -45.4749                                         !
 ! D5    D(21,1,2,5)          -170.0797                                         !
 ! D6    D(21,1,2,13)           71.029                                          !
 ! D7    D(22,1,2,3)          -170.5935                                         !
 ! D8    D(22,1,2,5)            64.8017                                         !
 ! D9    D(22,1,2,13)          -54.0897                                         !
 ! D10   D(1,2,3,4)             13.5469                                         !
 ! D11   D(1,2,3,23)          -161.5546                                         !
 ! D12   D(5,2,3,4)            132.3909                                         !
 ! D13   D(5,2,3,23)           -42.7106                                         !
 ! D14   D(13,2,3,4)           -99.7463                                         !
 ! D15   D(13,2,3,23)           85.1522                                         !
 ! D16   D(1,2,5,6)            -46.1501                                         !
 ! D17   D(1,2,5,14)            75.6118                                         !
 ! D18   D(1,2,5,15)          -167.5374                                         !
 ! D19   D(3,2,5,6)           -161.8017                                         !
 ! D20   D(3,2,5,14)           -40.0398                                         !
 ! D21   D(3,2,5,15)            76.8109                                         !
 ! D22   D(13,2,5,6)            70.1568                                         !
 ! D23   D(13,2,5,14)         -168.0813                                         !
 ! D24   D(13,2,5,15)          -51.2306                                         !
 ! D25   D(2,3,23,24)          168.9221                                         !
 ! D26   D(2,3,23,29)          -21.7682                                         !
 ! D27   D(4,3,23,24)           -5.9195                                         !
 ! D28   D(4,3,23,29)          163.3901                                         !
 ! D29   D(2,5,6,7)             99.9288                                         !
 ! D30   D(2,5,6,8)            -76.8747                                         !
 ! D31   D(14,5,6,7)           -20.8204                                         !
 ! D32   D(14,5,6,8)           162.3762                                         !
 ! D33   D(15,5,6,7)          -139.943                                          !
 ! D34   D(15,5,6,8)            43.2536                                         !
 ! D35   D(5,6,7,9)           -177.3166                                         !
 ! D36   D(5,6,7,16)             3.4212                                         !
 ! D37   D(8,6,7,9)             -0.4687                                         !
 ! D38   D(8,6,7,16)          -179.7309                                         !
 ! D39   D(5,6,8,10)           177.2443                                         !
 ! D40   D(5,6,8,17)            -3.9                                            !
 ! D41   D(7,6,8,10)             0.4068                                         !
 ! D42   D(7,6,8,17)           179.2624                                         !
 ! D43   D(6,7,9,11)             0.323                                          !
 ! D44   D(6,7,9,18)          -179.1815                                         !
 ! D45   D(16,7,9,11)          179.5811                                         !
 ! D46   D(16,7,9,18)            0.0765                                         !
 ! D47   D(6,8,10,11)           -0.1986                                         !
 ! D48   D(6,8,10,19)          179.2578                                         !
 ! D49   D(17,8,10,11)        -179.0553                                         !
 ! D50   D(17,8,10,19)           0.4012                                         !
 ! D51   D(7,9,11,10)           -0.1092                                         !
 ! D52   D(7,9,11,20)         -179.6997                                         !
 ! D53   D(18,9,11,10)         179.3937                                         !
 ! D54   D(18,9,11,20)          -0.1967                                         !
 ! D55   D(8,10,11,9)            0.0472                                         !
 ! D56   D(8,10,11,20)         179.6379                                         !
 ! D57   D(19,10,11,9)        -179.4077                                         !
 ! D58   D(19,10,11,20)          0.183                                          !
 ! D59   D(3,23,24,25)         -57.1831                                         !
 ! D60   D(3,23,24,27)         179.3965                                         !
 ! D61   D(3,23,24,30)          59.8515                                         !
 ! D62   D(29,23,24,25)        131.7049                                         !
 ! D63   D(29,23,24,27)          8.2845                                         !
 ! D64   D(29,23,24,30)       -111.2606                                         !
 ! D65   D(3,23,29,28)        -153.246                                          !
 ! D66   D(3,23,29,35)         -31.8816                                         !
 ! D67   D(3,23,29,36)          88.8096                                         !
 ! D68   D(24,23,29,28)         16.5142                                         !
 ! D69   D(24,23,29,35)        137.8786                                         !
 ! D70   D(24,23,29,36)       -101.4302                                         !
 ! D71   D(23,24,25,26)        145.7973                                         !
 ! D72   D(23,24,25,37)        -36.4137                                         !
 ! D73   D(27,24,25,26)        -97.6805                                         !
 ! D74   D(27,24,25,37)         80.1086                                         !
 ! D75   D(30,24,25,26)         26.2954                                         !
 ! D76   D(30,24,25,37)       -155.9156                                         !
 ! D77   D(23,24,27,28)        -29.7302                                         !
 ! D78   D(23,24,27,31)         88.1314                                         !
 ! D79   D(23,24,27,32)       -152.1015                                         !
 ! D80   D(25,24,27,28)       -151.0956                                         !
 ! D81   D(25,24,27,31)        -33.234                                          !
 ! D82   D(25,24,27,32)         86.533                                          !
 ! D83   D(30,24,27,28)         88.325                                          !
 ! D84   D(30,24,27,31)       -153.8134                                         !
 ! D85   D(30,24,27,32)        -34.0464                                         !
 ! D86   D(24,25,37,38)        161.2849                                         !
 ! D87   D(24,25,37,48)         10.0523                                         !
 ! D88   D(26,25,37,38)        -20.9816                                         !
 ! D89   D(26,25,37,48)       -172.2142                                         !
 ! D90   D(24,27,28,29)         40.2877                                         !
 ! D91   D(24,27,28,33)        161.4214                                         !
 ! D92   D(24,27,28,34)        -76.999                                          !
 ! D93   D(31,27,28,29)        -77.3499                                         !
 ! D94   D(31,27,28,33)         43.7839                                         !
 ! D95   D(31,27,28,34)        165.3635                                         !
 ! D96   D(32,27,28,29)        161.2233                                         !
 ! D97   D(32,27,28,33)        -77.6429                                         !
 ! D98   D(32,27,28,34)         43.9367                                         !
 ! D99   D(27,28,29,23)        -34.5166                                         !
 ! D100  D(27,28,29,35)       -154.1516                                         !
 ! D101  D(27,28,29,36)         83.4315                                         !
 ! D102  D(33,28,29,23)       -156.5385                                         !
 ! D103  D(33,28,29,35)         83.8265                                         !
 ! D104  D(33,28,29,36)        -38.5903                                         !
 ! D105  D(34,28,29,23)         83.0951                                         !
 ! D106  D(34,28,29,35)        -36.5399                                         !
 ! D107  D(34,28,29,36)       -158.9567                                         !
 ! D108  D(25,37,38,39)        -92.7715                                         !
 ! D109  D(25,37,38,41)        145.8789                                         !
 ! D110  D(25,37,38,49)         24.7411                                         !
 ! D111  D(48,37,38,39)         58.8886                                         !
 ! D112  D(48,37,38,41)        -62.461                                          !
 ! D113  D(48,37,38,49)        176.4012                                         !
 ! D114  D(37,38,39,40)        -37.0914                                         !
 ! D115  D(37,38,39,46)        145.2848                                         !
 ! D116  D(41,38,39,40)         84.887                                          !
 ! D117  D(41,38,39,46)        -92.7368                                         !
 ! D118  D(49,38,39,40)       -153.744                                          !
 ! D119  D(49,38,39,46)         28.6322                                         !
 ! D120  D(37,38,41,42)       -179.2883                                         !
 ! D121  D(37,38,41,50)         57.3645                                         !
 ! D122  D(37,38,41,51)        -57.0853                                         !
 ! D123  D(39,38,41,42)         59.7638                                         !
 ! D124  D(39,38,41,50)        -63.5834                                         !
 ! D125  D(39,38,41,51)       -178.0332                                         !
 ! D126  D(49,38,41,42)        -60.2743                                         !
 ! D127  D(49,38,41,50)        176.3784                                         !
 ! D128  D(49,38,41,51)         61.9286                                         !
 ! D129  D(38,39,46,47)        176.6663                                         !
 ! D130  D(40,39,46,47)         -0.9815                                         !
 ! D131  D(38,41,42,43)         61.4915                                         !
 ! D132  D(38,41,42,52)       -177.031                                          !
 ! D133  D(38,41,42,53)        -62.1115                                         !
 ! D134  D(50,41,42,43)       -176.1163                                         !
 ! D135  D(50,41,42,52)        -54.6387                                         !
 ! D136  D(50,41,42,53)         60.2808                                         !
 ! D137  D(51,41,42,43)        -58.5558                                         !
 ! D138  D(51,41,42,52)         62.9218                                         !
 ! D139  D(51,41,42,53)        177.8413                                         !
 ! D140  D(41,42,43,44)        178.4239                                         !
 ! D141  D(41,42,43,54)         56.5086                                         !
 ! D142  D(41,42,43,55)        -60.2522                                         !
 ! D143  D(52,42,43,44)         57.7404                                         !
 ! D144  D(52,42,43,54)        -64.175                                          !
 ! D145  D(52,42,43,55)        179.0642                                         !
 ! D146  D(53,42,43,44)        -57.8172                                         !
 ! D147  D(53,42,43,54)       -179.7325                                         !
 ! D148  D(53,42,43,55)         63.5067                                         !
 ! D149  D(42,43,44,45)         63.1852                                         !
 ! D150  D(42,43,44,56)       -175.0135                                         !
 ! D151  D(42,43,44,57)        -59.2196                                         !
 ! D152  D(54,43,44,45)       -174.8991                                         !
 ! D153  D(54,43,44,56)        -53.0978                                         !
 ! D154  D(54,43,44,57)         62.6961                                         !
 ! D155  D(55,43,44,45)        -59.1878                                         !
 ! D156  D(55,43,44,56)         62.6135                                         !
 ! D157  D(55,43,44,57)        178.4075                                         !
 ! D158  D(43,44,45,58)        -64.3214                                         !
 ! D159  D(43,44,45,59)         53.9734                                         !
 ! D160  D(56,44,45,58)        173.3066                                         !
 ! D161  D(56,44,45,59)        -68.3986                                         !
 ! D162  D(57,44,45,58)         59.0745                                         !
 ! D163  D(57,44,45,59)        177.3693                                         !
 --------------------------------------------------------------------------------
 Symmetry turned off by external request.
 Stoichiometry    C20H31N4O4(1+)
 Framework group  C1[X(C20H31N4O4)]
 Deg. of freedom   171
 Full point group                 C1      NOp   1
                          Input orientation:                          
 ---------------------------------------------------------------------
 Center     Atomic      Atomic             Coordinates (Angstroms)
 Number     Number       Type             X           Y           Z
 ---------------------------------------------------------------------
      1          7           0       -9.658724   19.239962   13.670212
      2          6           0       -8.297381   18.923808   14.251937
      3          6           0       -7.347160   19.788801   13.386884
      4          8           0       -7.862038   20.662227   12.682164
      5          6           0       -8.087437   17.394466   14.210780
      6          6           0       -9.305500   16.646449   14.715241
      7          6           0      -10.215944   16.085644   13.807305
      8          6           0       -9.572299   16.563323   16.089414
      9          6           0      -11.368298   15.444188   14.267790
     10          6           0      -10.724266   15.923536   16.548575
     11          6           0      -11.624242   15.363416   15.637932
     12          1           0       -9.702775   18.830588   12.713619
     13          1           0       -8.313472   19.280129   15.287659
     14          1           0       -7.863715   17.102520   13.180826
     15          1           0       -7.217334   17.156073   14.825649
     16          1           0      -10.012928   16.142701   12.739815
     17          1           0       -8.867413   16.984102   16.803979
     18          1           0      -12.060188   15.001597   13.557158
     19          1           0      -10.914742   15.854496   17.615449
     20          1           0      -12.517427   14.860602   15.996169
     21          1           0       -9.731336   20.258010   13.542990
     22          1           0      -10.411410   18.853124   14.247300
     23          7           0       -6.029634   19.511847   13.345619
     24          6           0       -5.215284   20.205907   12.315770
     25          6           0       -5.751648   19.941836   10.897959
     26          8           0       -5.693943   20.789491   10.028812
     27          6           0       -3.796052   19.666277   12.576025
     28          6           0       -3.800758   19.371547   14.084366
     29          6           0       -5.192873   18.765291   14.311301
     30          1           0       -5.275817   21.287583   12.460081
     31          1           0       -3.634538   18.743055   12.007081
     32          1           0       -3.033121   20.385863   12.273537
     33          1           0       -3.003028   18.692052   14.394480
     34          1           0       -3.700642   20.301097   14.655249
     35          1           0       -5.563071   18.897208   15.332101
     36          1           0       -5.190931   17.694815   14.073410
     37          7           0       -6.246712   18.669947   10.696089
     38          6           0       -7.134155   18.378439    9.586774
     39          6           0       -8.582219   18.521757   10.049689
     40          8           0       -8.980442   18.192342   11.164258
     41          6           0       -6.892787   16.950008    9.045738
     42          6           0       -7.770962   16.541762    7.854072
     43          6           0       -7.581214   17.407278    6.602379
     44          6           0       -8.447109   16.949729    5.411677
     45          7           0       -9.897949   17.022673    5.593323
     46          8           0       -9.388474   18.996146    9.103179
     47          1           0      -10.304687   19.014219    9.442084
     48          1           0       -6.361208   18.084320   11.512205
     49          1           0       -6.940741   19.123301    8.813778
     50          1           0       -7.036192   16.242661    9.874978
     51          1           0       -5.834006   16.905006    8.766451
     52          1           0       -7.536053   15.497756    7.608635
     53          1           0       -8.828694   16.551287    8.150281
     54          1           0       -6.522129   17.390389    6.307564
     55          1           0       -7.828402   18.454421    6.825584
     56          1           0       -8.190678   17.557067    4.535596
     57          1           0       -8.196190   15.912913    5.152239
     58          1           0      -10.205077   16.388429    6.327542
     59          1           0      -10.170707   17.962148    5.878817
 ---------------------------------------------------------------------
 Rotational constants (GHZ):           0.1911976           0.1230802           0.0847275
 Standard basis: 6-31G(d) (6D, 7F)
   482 basis functions,   908 primitive gaussians,   482 cartesian basis functions
   105 alpha electrons      105 beta electrons
       nuclear repulsion energy      2830.3430918884 Hartrees.
 NAtoms=   59 NActive=   59 NUniq=   59 SFac= 1.00D+00 NAtFMM=   60 NAOKFM=F Big=F
 Integral buffers will be    131072 words long.
 Raffenetti 2 integral format.
 Two-electron integral symmetry is turned off.
 Nuclear repulsion after empirical dispersion term =     2830.2679879905 Hartrees.
 One-electron integrals computed using PRISM.
 NBasis=   482 RedAO= T EigKep=  4.70D-04  NBF=   482
 NBsUse=   482 1.00D-06 EigRej= -1.00D+00 NBFU=   482
 Initial guess from the checkpoint file:  "conf-497.chk"
 B after Tr=     0.000000    0.000000    0.000000
         Rot=    1.000000    0.000000    0.000000    0.000000 Ang=   0.00 deg.
 Requested convergence on RMS density matrix=1.00D-08 within 128 cycles.
 Requested convergence on MAX density matrix=1.00D-06.
 Requested convergence on             energy=1.00D-06.
 No special actions if energy rises.
 SCF Done:  E(RB3LYP) =  -1300.60084210     A.U. after    3 cycles
            NFock=  3  Conv=0.93D-09     -V/T= 2.0095

 **********************************************************************

            Population analysis using the SCF Density.

 **********************************************************************

 Alpha  occ. eigenvalues --  -19.33622 -19.28760 -19.26183 -19.22031 -14.59182
 Alpha  occ. eigenvalues --  -14.50524 -14.46834 -14.37965 -10.46129 -10.43574
 Alpha  occ. eigenvalues --  -10.41023 -10.39459 -10.35847 -10.35018 -10.34709
 Alpha  occ. eigenvalues --  -10.34160 -10.32418 -10.31052 -10.31002 -10.30969
 Alpha  occ. eigenvalues --  -10.30676 -10.30546 -10.30517 -10.30256 -10.29697
 Alpha  occ. eigenvalues --  -10.27667 -10.27380 -10.25823  -1.24777  -1.19076
 Alpha  occ. eigenvalues --   -1.15688  -1.14294  -1.13503  -1.08088  -1.03650
 Alpha  occ. eigenvalues --   -0.97962  -0.94782  -0.93983  -0.91556  -0.90828
 Alpha  occ. eigenvalues --   -0.87739  -0.86491  -0.86144  -0.84315  -0.80265
 Alpha  occ. eigenvalues --   -0.79233  -0.77757  -0.75168  -0.74512  -0.72862
 Alpha  occ. eigenvalues --   -0.72017  -0.71713  -0.71003  -0.70194  -0.69979
 Alpha  occ. eigenvalues --   -0.68468  -0.66072  -0.65326  -0.63822  -0.63552
 Alpha  occ. eigenvalues --   -0.62710  -0.62627  -0.61639  -0.59583  -0.59306
 Alpha  occ. eigenvalues --   -0.57875  -0.57454  -0.57285  -0.56520  -0.56222
 Alpha  occ. eigenvalues --   -0.55600  -0.54696  -0.54223  -0.54039  -0.53996
 Alpha  occ. eigenvalues --   -0.53450  -0.52934  -0.52718  -0.52083  -0.51338
 Alpha  occ. eigenvalues --   -0.50655  -0.50240  -0.49729  -0.49139  -0.48806
 Alpha  occ. eigenvalues --   -0.47827  -0.47472  -0.47179  -0.46275  -0.46205
 Alpha  occ. eigenvalues --   -0.45850  -0.45624  -0.45504  -0.44273  -0.43511
 Alpha  occ. eigenvalues --   -0.42150  -0.41474  -0.40460  -0.40348  -0.38775
 Alpha  occ. eigenvalues --   -0.36889  -0.36658  -0.36482  -0.35184  -0.29849
 Alpha virt. eigenvalues --   -0.14006  -0.13209  -0.12150  -0.12080  -0.08656
 Alpha virt. eigenvalues --   -0.07885  -0.06068  -0.05535  -0.04429  -0.03391
 Alpha virt. eigenvalues --   -0.02468  -0.01627  -0.00313   0.00361   0.00451
 Alpha virt. eigenvalues --    0.01175   0.01668   0.01884   0.01938   0.02615
 Alpha virt. eigenvalues --    0.03010   0.03474   0.03877   0.04411   0.04499
 Alpha virt. eigenvalues --    0.05589   0.05828   0.06448   0.06584   0.06985
 Alpha virt. eigenvalues --    0.07144   0.07839   0.08457   0.08796   0.08861
 Alpha virt. eigenvalues --    0.09118   0.09553   0.09659   0.10266   0.11106
 Alpha virt. eigenvalues --    0.11376   0.11473   0.12163   0.12639   0.13273
 Alpha virt. eigenvalues --    0.14640   0.15367   0.15560   0.16210   0.16543
 Alpha virt. eigenvalues --    0.17214   0.17915   0.18537   0.19317   0.20351
 Alpha virt. eigenvalues --    0.20859   0.21331   0.21889   0.22858   0.23228
 Alpha virt. eigenvalues --    0.25192   0.27270   0.28647   0.29460   0.32284
 Alpha virt. eigenvalues --    0.35467   0.36158   0.38125   0.39251   0.39769
 Alpha virt. eigenvalues --    0.40412   0.40895   0.41611   0.42327   0.42717
 Alpha virt. eigenvalues --    0.42964   0.43217   0.43298   0.44051   0.44782
 Alpha virt. eigenvalues --    0.45562   0.46030   0.46342   0.46803   0.47893
 Alpha virt. eigenvalues --    0.47957   0.49046   0.49114   0.49778   0.49834
 Alpha virt. eigenvalues --    0.50073   0.50644   0.50730   0.51178   0.51525
 Alpha virt. eigenvalues --    0.52006   0.52825   0.53401   0.53653   0.54492
 Alpha virt. eigenvalues --    0.54707   0.55142   0.55814   0.56799   0.57606
 Alpha virt. eigenvalues --    0.58686   0.59802   0.60618   0.60845   0.61536
 Alpha virt. eigenvalues --    0.63118   0.63337   0.64619   0.65468   0.66313
 Alpha virt. eigenvalues --    0.67017   0.67141   0.68166   0.68407   0.68702
 Alpha virt. eigenvalues --    0.69233   0.70121   0.71379   0.71733   0.72196
 Alpha virt. eigenvalues --    0.72442   0.72749   0.73015   0.73553   0.74035
 Alpha virt. eigenvalues --    0.74493   0.74639   0.75506   0.76117   0.76619
 Alpha virt. eigenvalues --    0.76897   0.77147   0.77500   0.78541   0.78980
 Alpha virt. eigenvalues --    0.79070   0.80210   0.80302   0.80860   0.81068
 Alpha virt. eigenvalues --    0.81528   0.81748   0.82159   0.83021   0.83379
 Alpha virt. eigenvalues --    0.83991   0.84789   0.85746   0.86164   0.86721
 Alpha virt. eigenvalues --    0.87053   0.87399   0.88365   0.89244   0.89617
 Alpha virt. eigenvalues --    0.90556   0.91498   0.93073   0.93845   0.94093
 Alpha virt. eigenvalues --    0.95283   0.96224   0.96696   0.98115   0.98320
 Alpha virt. eigenvalues --    0.99327   1.00588   1.01536   1.01741   1.02346
 Alpha virt. eigenvalues --    1.03278   1.04308   1.05848   1.06401   1.07015
 Alpha virt. eigenvalues --    1.07919   1.08367   1.11714   1.12050   1.13761
 Alpha virt. eigenvalues --    1.14621   1.16381   1.18262   1.19525   1.22453
 Alpha virt. eigenvalues --    1.23577   1.25223   1.25255   1.26413   1.26986
 Alpha virt. eigenvalues --    1.28821   1.30086   1.31018   1.31593   1.31815
 Alpha virt. eigenvalues --    1.32231   1.35021   1.35606   1.36484   1.37431
 Alpha virt. eigenvalues --    1.37616   1.38729   1.39387   1.39970   1.41321
 Alpha virt. eigenvalues --    1.41652   1.42759   1.44087   1.46025   1.47271
 Alpha virt. eigenvalues --    1.49080   1.50941   1.51590   1.52113   1.55076
 Alpha virt. eigenvalues --    1.58074   1.59112   1.59654   1.60481   1.61220
 Alpha virt. eigenvalues --    1.62543   1.63020   1.63487   1.64601   1.66660
 Alpha virt. eigenvalues --    1.67017   1.68100   1.68264   1.68590   1.68972
 Alpha virt. eigenvalues --    1.69891   1.70843   1.72303   1.72696   1.74052
 Alpha virt. eigenvalues --    1.74339   1.74980   1.76514   1.77216   1.77642
 Alpha virt. eigenvalues --    1.78031   1.78669   1.80102   1.80595   1.81518
 Alpha virt. eigenvalues --    1.82415   1.83849   1.84633   1.85777   1.86923
 Alpha virt. eigenvalues --    1.87093   1.87685   1.88028   1.88755   1.90411
 Alpha virt. eigenvalues --    1.90866   1.91569   1.92257   1.93238   1.93314
 Alpha virt. eigenvalues --    1.93817   1.95105   1.95454   1.95648   1.96920
 Alpha virt. eigenvalues --    1.98241   1.98536   1.98882   1.99611   2.01348
 Alpha virt. eigenvalues --    2.02063   2.02499   2.03265   2.04627   2.05690
 Alpha virt. eigenvalues --    2.06615   2.07124   2.09149   2.10207   2.11452
 Alpha virt. eigenvalues --    2.12450   2.13858   2.14769   2.16841   2.17596
 Alpha virt. eigenvalues --    2.18819   2.19163   2.20751   2.20943   2.22086
 Alpha virt. eigenvalues --    2.22967   2.24188   2.24902   2.27216   2.27965
 Alpha virt. eigenvalues --    2.28660   2.29796   2.32061   2.32494   2.33631
 Alpha virt. eigenvalues --    2.35184   2.35437   2.38228   2.39212   2.40402
 Alpha virt. eigenvalues --    2.41906   2.42927   2.44274   2.45232   2.46588
 Alpha virt. eigenvalues --    2.48224   2.49054   2.49890   2.50588   2.51430
 Alpha virt. eigenvalues --    2.53855   2.53979   2.55716   2.57396   2.57800
 Alpha virt. eigenvalues --    2.59516   2.59904   2.61429   2.62629   2.63129
 Alpha virt. eigenvalues --    2.63323   2.64932   2.64990   2.65787   2.66742
 Alpha virt. eigenvalues --    2.72131   2.72779   2.75882   2.79498   2.84956
 Alpha virt. eigenvalues --    2.86000   2.90962   2.92205   2.92645   2.95279
 Alpha virt. eigenvalues --    2.96653   3.04264   3.08261   3.29019   3.70271
 Alpha virt. eigenvalues --    3.71193   3.74729   3.91443   3.91732   3.97808
 Alpha virt. eigenvalues --    3.98310   4.00725   4.04573   4.05877   4.08866
 Alpha virt. eigenvalues --    4.11174   4.14894   4.16822   4.18686   4.21996
 Alpha virt. eigenvalues --    4.24170   4.27348   4.29908   4.33999   4.37296
 Alpha virt. eigenvalues --    4.41665   4.45035   4.45581   4.50076   4.57111
 Alpha virt. eigenvalues --    4.58790   4.66975
          Condensed to atoms (all electrons):
 Mulliken charges:
               1
     1  N   -0.749450
     2  C   -0.117577
     3  C    0.633096
     4  O   -0.527672
     5  C   -0.383318
     6  C    0.115249
     7  C   -0.213931
     8  C   -0.188191
     9  C   -0.125663
    10  C   -0.125466
    11  C   -0.124377
    12  H    0.441689
    13  H    0.218322
    14  H    0.189562
    15  H    0.193114
    16  H    0.153747
    17  H    0.141076
    18  H    0.162814
    19  H    0.166900
    20  H    0.168461
    21  H    0.418729
    22  H    0.409546
    23  N   -0.487491
    24  C   -0.024543
    25  C    0.615476
    26  O   -0.480595
    27  C   -0.315710
    28  C   -0.300109
    29  C   -0.147347
    30  H    0.208426
    31  H    0.170621
    32  H    0.200327
    33  H    0.184420
    34  H    0.179160
    35  H    0.173954
    36  H    0.172933
    37  N   -0.604765
    38  C   -0.055218
    39  C    0.625853
    40  O   -0.534751
    41  C   -0.279770
    42  C   -0.269919
    43  C   -0.272462
    44  C   -0.149195
    45  N   -0.698481
    46  O   -0.517521
    47  H    0.422502
    48  H    0.331650
    49  H    0.227850
    50  H    0.136596
    51  H    0.180048
    52  H    0.157681
    53  H    0.117828
    54  H    0.142757
    55  H    0.138722
    56  H    0.159677
    57  H    0.150092
    58  H    0.293015
    59  H    0.291628
 Sum of Mulliken charges =   1.00000
 Mulliken charges with hydrogens summed into heavy atoms:
               1
     1  N    0.520514
     2  C    0.100745
     3  C    0.633096
     4  O   -0.527672
     5  C   -0.000642
     6  C    0.115249
     7  C   -0.060183
     8  C   -0.047115
     9  C    0.037151
    10  C    0.041435
    11  C    0.044085
    23  N   -0.487491
    24  C    0.183883
    25  C    0.615476
    26  O   -0.480595
    27  C    0.055238
    28  C    0.063471
    29  C    0.199539
    37  N   -0.273115
    38  C    0.172632
    39  C    0.625853
    40  O   -0.534751
    41  C    0.036874
    42  C    0.005591
    43  C    0.009017
    44  C    0.160573
    45  N   -0.113837
    46  O   -0.095019
 Electronic spatial extent (au):  <R**2>=         409515.4442
 Charge=              1.0000 electrons
 Dipole moment (field-independent basis, Debye):
    X=            -40.6637    Y=             86.3796    Z=             66.7375  Tot=            116.4855
 Quadrupole moment (field-independent basis, Debye-Ang):
   XX=            222.9353   YY=           1390.0576   ZZ=            774.9075
   XY=           -731.4521   XZ=           -566.7692   YZ=           1208.7868
 Traceless Quadrupole moment (field-independent basis, Debye-Ang):
   XX=           -573.0315   YY=            594.0908   ZZ=            -21.0593
   XY=           -731.4521   XZ=           -566.7692   YZ=           1208.7868
 Octapole moment (field-independent basis, Debye-Ang**2):
  XXX=            -63.5553  YYY=          19034.8750  ZZZ=           7689.5509  XYY=         -11908.9647
  XXY=           4004.1803  XXZ=           3483.9753  XZZ=          -6671.9986  YZZ=          14127.9891
  YYZ=          20009.0489  XYZ=         -10200.9524
 Hexadecapole moment (field-independent basis, Debye-Ang**3):
 XXXX=         -23964.0664 YYYY=         176351.9084 ZZZZ=          51038.7030 XXXY=          -1905.1481
 XXXZ=          -9349.2888 YYYX=        -169750.3456 YYYZ=         294014.6331 ZZZX=         -68571.5917
 ZZZY=         141288.2575 XXYY=          61383.4007 XXZZ=          40645.6196 YYZZ=         233812.8777
 XXYZ=          62105.1487 YYXZ=        -169127.1141 ZZXY=        -120481.9471
 N-N= 2.830267987991D+03 E-N=-8.661515630107D+03  KE= 1.288378193448D+03
 Unable to Open any file for archive entry.
 1\1\GINC-LAC-303\SP\RB3LYP\6-31G(d)\C20H31N4O4(1+)\KENGMITH\25-May-202
 2\0\\# B3LYP/6-31G* empiricaldispersion=gd3 guess=read geom=check nosy
 mm integral(ultrafinegrid)\\Candidate Structure: Conf:497 Charge calc 
 in gas phase\\1,1\N,0,-9.6587243517,19.239962187,13.6702120693\C,0,-8.
 2973807149,18.9238082726,14.2519373797\C,0,-7.3471600599,19.7888006097
 ,13.386883654\O,0,-7.8620379546,20.6622271112,12.682163962\C,0,-8.0874
 366215,17.3944664781,14.2107804894\C,0,-9.3055004252,16.6464493265,14.
 7152408485\C,0,-10.2159444925,16.0856440342,13.8073054136\C,0,-9.57229
 92779,16.5633227226,16.0894137077\C,0,-11.3682981507,15.4441877337,14.
 2677899469\C,0,-10.7242659147,15.923536193,16.5485751493\C,0,-11.62424
 2185,15.3634164428,15.637931702\H,0,-9.702775234,18.8305883073,12.7136
 187291\H,0,-8.3134719265,19.2801294059,15.2876594493\H,0,-7.8637149786
 ,17.1025197382,13.1808257876\H,0,-7.2173335576,17.1560733219,14.825649
 4809\H,0,-10.012927758,16.1427011615,12.7398145525\H,0,-8.8674125126,1
 6.9841018409,16.803978867\H,0,-12.0601879383,15.0015970748,13.55715768
 71\H,0,-10.9147419653,15.8544957724,17.6154490852\H,0,-12.517427179,14
 .8606017828,15.9961685481\H,0,-9.7313364038,20.2580096954,13.542990193
 4\H,0,-10.411410449,18.8531244947,14.2472997584\N,0,-6.0296339976,19.5
 118472285,13.3456188226\C,0,-5.2152838616,20.2059073868,12.3157699225\
 C,0,-5.7516477689,19.9418356482,10.897959448\O,0,-5.6939431907,20.7894
 90985,10.028811832\C,0,-3.7960521169,19.6662765819,12.5760248319\C,0,-
 3.8007582102,19.3715471811,14.0843659094\C,0,-5.1928727074,18.76529100
 99,14.3113012501\H,0,-5.2758169195,21.2875826684,12.4600806165\H,0,-3.
 6345377042,18.7430546638,12.0070809132\H,0,-3.0331209298,20.3858631605
 ,12.2735368915\H,0,-3.0030277577,18.6920522849,14.3944799138\H,0,-3.70
 06422184,20.3010973767,14.6552490911\H,0,-5.5630710455,18.8972079628,1
 5.3321007036\H,0,-5.1909308444,17.6948153682,14.0734096662\N,0,-6.2467
 122226,18.6699468893,10.6960885668\C,0,-7.1341551675,18.3784388982,9.5
 867741934\C,0,-8.5822192635,18.5217568123,10.0496894539\O,0,-8.9804416
 035,18.1923419227,11.164258464\C,0,-6.8927867651,16.9500079703,9.04573
 75036\C,0,-7.7709620995,16.5417622037,7.8540723854\C,0,-7.5812136482,1
 7.4072776076,6.6023791502\C,0,-8.4471092636,16.9497286201,5.4116765986
 \N,0,-9.8979492986,17.0226734246,5.5933227742\O,0,-9.388474105,18.9961
 464087,9.1031786964\H,0,-10.3046869813,19.0142194308,9.4420835061\H,0,
 -6.3612077951,18.0843198255,11.5122051231\H,0,-6.9407406288,19.1233009
 407,8.8137778516\H,0,-7.0361920272,16.2426609061,9.874978016\H,0,-5.83
 40064623,16.905005816,8.7664511585\H,0,-7.5360529305,15.497756045,7.60
 86354977\H,0,-8.8286935597,16.5512867934,8.1502811048\H,0,-6.522128726
 6,17.3903891177,6.3075641005\H,0,-7.8284016562,18.4544214142,6.8255843
 643\H,0,-8.1906783482,17.5570669758,4.535595656\H,0,-8.1961897345,15.9
 129127391,5.1522385678\H,0,-10.2050767895,16.3884292688,6.3275423211\H
 ,0,-10.1707067987,17.9621478557,5.8788172425\\Version=ES64L-G16RevC.01
 \HF=-1300.6008421\RMSD=9.339e-10\Dipole=-1.1362574,-0.3230688,4.083392
 8\Quadrupole=-426.0348919,441.691956,-15.6570642,-543.8167359,-421.378
 992,898.7033244\PG=C01 [X(C20H31N4O4)]\\@
 The archive entry for this job was punched.


 NOTHING WILL BE ATTEMPTED IF ALL POSSIBLE OBJECTIONS
 MUST FIRST BE OVERCOME.

                               -- THE GOLDEN PRINCIPLE,
                    PAUL DICKSON'S "THE OFFICIAL RULES"
 Job cpu time:       0 days  0 hours  2 minutes 46.4 seconds.
 Elapsed time:       0 days  0 hours  0 minutes 42.0 seconds.
 File lengths (MBytes):  RWF=    240 Int=      0 D2E=      0 Chk=     32 Scr=     16
 Normal termination of Gaussian 16 at Wed May 25 19:10:27 2022.
