 Entering Gaussian System, Link 0=/opt/software/Gaussian/g16-AVX2-C.01/g16/g16
 Input=charge-conf-841.com
 Output=charge-conf-841.log
 Initial command:
 /opt/software/Gaussian/g16-AVX2-C.01/g16/l1.exe "/mnt/gs18/scratch/users/kengmith/Gau-12493.inp" -scrdir="/mnt/gs18/scratch/users/kengmith/"
 Entering Link 1 = /opt/software/Gaussian/g16-AVX2-C.01/g16/l1.exe PID=     12508.
  
 Copyright (c) 1988-2019, Gaussian, Inc.  All Rights Reserved.
  
 This is part of the Gaussian(R) 16 program.  It is based on
 the Gaussian(R) 09 system (copyright 2009, Gaussian, Inc.),
 the Gaussian(R) 03 system (copyright 2003, Gaussian, Inc.),
 the Gaussian(R) 98 system (copyright 1998, Gaussian, Inc.),
 the Gaussian(R) 94 system (copyright 1995, Gaussian, Inc.),
 the Gaussian 92(TM) system (copyright 1992, Gaussian, Inc.),
 the Gaussian 90(TM) system (copyright 1990, Gaussian, Inc.),
 the Gaussian 88(TM) system (copyright 1988, Gaussian, Inc.),
 the Gaussian 86(TM) system (copyright 1986, Carnegie Mellon
 University), and the Gaussian 82(TM) system (copyright 1983,
 Carnegie Mellon University). Gaussian is a federally registered
 trademark of Gaussian, Inc.
  
 This software contains proprietary and confidential information,
 including trade secrets, belonging to Gaussian, Inc.
  
 This software is provided under written license and may be
 used, copied, transmitted, or stored only in accord with that
 written license.
  
 The following legend is applicable only to US Government
 contracts under FAR:
  
                    RESTRICTED RIGHTS LEGEND
  
 Use, reproduction and disclosure by the US Government is
 subject to restrictions as set forth in subparagraphs (a)
 and (c) of the Commercial Computer Software - Restricted
 Rights clause in FAR 52.227-19.
  
 Gaussian, Inc.
 340 Quinnipiac St., Bldg. 40, Wallingford CT 06492
  
  
 ---------------------------------------------------------------
 Warning -- This program may not be used in any manner that
 competes with the business of Gaussian, Inc. or will provide
 assistance to any competitor of Gaussian, Inc.  The licensee
 of this program is prohibited from giving any competitor of
 Gaussian, Inc. access to this program.  By using this program,
 the user acknowledges that Gaussian, Inc. is engaged in the
 business of creating and licensing software in the field of
 computational chemistry and represents and warrants to the
 licensee that it is not a competitor of Gaussian, Inc. and that
 it will not use this program in any manner prohibited above.
 ---------------------------------------------------------------
  

 Cite this work as:
 Gaussian 16, Revision C.01,
 M. J. Frisch, G. W. Trucks, H. B. Schlegel, G. E. Scuseria, 
 M. A. Robb, J. R. Cheeseman, G. Scalmani, V. Barone, 
 G. A. Petersson, H. Nakatsuji, X. Li, M. Caricato, A. V. Marenich, 
 J. Bloino, B. G. Janesko, R. Gomperts, B. Mennucci, H. P. Hratchian, 
 J. V. Ortiz, A. F. Izmaylov, J. L. Sonnenberg, D. Williams-Young, 
 F. Ding, F. Lipparini, F. Egidi, J. Goings, B. Peng, A. Petrone, 
 T. Henderson, D. Ranasinghe, V. G. Zakrzewski, J. Gao, N. Rega, 
 G. Zheng, W. Liang, M. Hada, M. Ehara, K. Toyota, R. Fukuda, 
 J. Hasegawa, M. Ishida, T. Nakajima, Y. Honda, O. Kitao, H. Nakai, 
 T. Vreven, K. Throssell, J. A. Montgomery, Jr., J. E. Peralta, 
 F. Ogliaro, M. J. Bearpark, J. J. Heyd, E. N. Brothers, K. N. Kudin, 
 V. N. Staroverov, T. A. Keith, R. Kobayashi, J. Normand, 
 K. Raghavachari, A. P. Rendell, J. C. Burant, S. S. Iyengar, 
 J. Tomasi, M. Cossi, J. M. Millam, M. Klene, C. Adamo, R. Cammi, 
 J. W. Ochterski, R. L. Martin, K. Morokuma, O. Farkas, 
 J. B. Foresman, and D. J. Fox, Gaussian, Inc., Wallingford CT, 2019.
 
 ******************************************
 Gaussian 16:  ES64L-G16RevC.01  3-Jul-2019
                25-May-2022 
 ******************************************
 %mem=8gb
 %nproc=4
 Will use up to    4 processors via shared memory.
 %chk=conf-841.chk
 ----------------------------------------------------------------------
 # B3LYP/6-31G* empiricaldispersion=gd3 guess=read geom=check nosymm in
 tegral(ultrafinegrid)
 ----------------------------------------------------------------------
 1/29=2,38=1,172=1/1;
 2/12=2,15=1,40=1/2;
 3/5=1,6=6,7=1,11=2,14=-4,25=1,30=1,74=-5,75=-5,116=-2,124=31/1,2,3;
 4/5=1/1;
 5/5=2,38=6/2;
 6/7=2,8=2,9=2,10=2,28=1/1;
 99/5=1,9=1/99;
 ------------------------------------------------------
 Candidate Structure: Conf:841 Charge calc in gas phase
 ------------------------------------------------------
 Structure from the checkpoint file:  "conf-841.chk"
 Charge =  1 Multiplicity = 1
 Redundant internal coordinates found in file.  (old form).
 N,0,-7.9892444616,16.8782538437,9.2463273836
 C,0,-6.5969114561,16.8471919726,9.8396302467
 C,0,-6.811371636,16.09242658,11.1752453463
 O,0,-7.8844808928,15.5001194638,11.3241363734
 C,0,-6.0676552484,18.2950590386,9.9291590621
 C,0,-6.314402846,19.0638485143,8.6462882331
 C,0,-7.3955041599,19.9527712077,8.5525758159
 C,0,-5.5081664538,18.8476962668,7.519467414
 C,0,-7.6586036435,20.6210671602,7.3544116614
 C,0,-5.7724110483,19.514628135,6.32257447
 C,0,-6.848638269,20.4021149294,6.2384607465
 H,0,-8.5746522939,17.5089694427,9.8329925893
 H,0,-5.9812220455,16.2563313508,9.1527942342
 H,0,-6.5599782609,18.7929321709,10.7692676428
 H,0,-4.9978573954,18.2511957933,10.1426194302
 H,0,-8.0224680282,20.1284811122,9.4243670689
 H,0,-4.6593261967,18.1695323261,7.5834212907
 H,0,-8.4900816099,21.3173715087,7.2960925642
 H,0,-5.1342241817,19.3487915775,5.4597404982
 H,0,-7.0500839598,20.9252055919,5.3085503277
 H,0,-8.405533894,15.9424201428,9.3394529912
 H,0,-7.9766571014,17.2171933262,8.2797847667
 N,0,-5.8927376941,16.1796441851,12.1564940235
 C,0,-6.2644010785,15.6490098999,13.4928420714
 C,0,-7.5360099142,16.3243735681,14.0356120963
 O,0,-8.340144008,15.7141531908,14.7125094666
 C,0,-4.9958730584,15.9012700488,14.3297338512
 C,0,-3.865041242,15.8169776479,13.2923795556
 C,0,-4.4599353949,16.5411178977,12.0763413909
 H,0,-6.5016435314,14.584760803,13.4179906055
 H,0,-5.0318591507,16.9026120429,14.774858276
 H,0,-4.9007984171,15.1760830236,15.1399464707
 H,0,-2.9341554376,16.2798497391,13.6292100072
 H,0,-3.6562924098,14.7718006775,13.0393591163
 H,0,-4.0286213226,16.2180487851,11.1244406777
 H,0,-4.3296443676,17.6258128726,12.1713099199
 N,0,-7.6519860121,17.6651817619,13.7312549841
 C,0,-8.9326964687,18.3418319013,13.8034285196
 C,0,-9.6070709399,18.2908275274,12.4341994316
 O,0,-9.0029489213,18.3937189618,11.3694290169
 C,0,-8.7564371609,19.8119776503,14.2489984337
 C,0,-10.0552069554,20.6225467596,14.3668814821
 C,0,-11.0484602318,20.0808312152,15.4021986557
 C,0,-12.3275693652,20.9335961247,15.5187210818
 N,0,-13.1712862847,21.0110106851,14.3247716886
 O,0,-10.9305421061,18.172979385,12.5080072959
 H,0,-11.3054426866,18.1988558716,11.6061220738
 H,0,-6.9944730204,18.0455613723,13.0640676445
 H,0,-9.5494400634,17.7919529133,14.5154086892
 H,0,-8.0735834333,20.3028779597,13.5409706808
 H,0,-8.2435835594,19.7781621418,15.2169159129
 H,0,-9.783208895,21.6521841568,14.6337035687
 H,0,-10.5451217163,20.6849266097,13.3856475027
 H,0,-10.5562727161,20.0296414647,16.3839991459
 H,0,-11.3417848996,19.0538333174,15.1440400077
 H,0,-12.9424023427,20.5369534693,16.3352822407
 H,0,-12.0603649584,21.959439746,15.8041672381
 H,0,-12.6822345331,21.4763230868,13.5631843082
 H,0,-13.4070994697,20.0747987907,13.9985491412
 Recover connectivity data from disk.
                           ----------------------------
                           !    Current Parameters    !
                           ! (Angstroms and Degrees)  !
 --------------------------                            --------------------------
 ! Name  Definition              Value                                          !
 --------------------------------------------------------------------------------
 ! R1    R(1,2)                  1.5138                                         !
 ! R2    R(1,12)                 1.0415                                         !
 ! R3    R(1,21)                 1.0285                                         !
 ! R4    R(1,22)                 1.0243                                         !
 ! R5    R(2,3)                  1.549                                          !
 ! R6    R(2,5)                  1.5442                                         !
 ! R7    R(2,13)                 1.0954                                         !
 ! R8    R(3,4)                  1.2347                                         !
 ! R9    R(3,23)                 1.347                                          !
 ! R10   R(5,6)                  1.5158                                         !
 ! R11   R(5,14)                 1.0936                                         !
 ! R12   R(5,15)                 1.0918                                         !
 ! R13   R(6,7)                  1.4028                                         !
 ! R14   R(6,8)                  1.4023                                         !
 ! R15   R(7,9)                  1.3969                                         !
 ! R16   R(7,16)                 1.0881                                         !
 ! R17   R(8,10)                 1.3954                                         !
 ! R18   R(8,17)                 1.0884                                         !
 ! R19   R(9,11)                 1.3962                                         !
 ! R20   R(9,18)                 1.0861                                         !
 ! R21   R(10,11)                1.3975                                         !
 ! R22   R(10,19)                1.0859                                         !
 ! R23   R(11,20)                1.0858                                         !
 ! R24   R(23,24)                1.4851                                         !
 ! R25   R(23,29)                1.4799                                         !
 ! R26   R(24,25)                1.5387                                         !
 ! R27   R(24,27)                1.5405                                         !
 ! R28   R(24,30)                1.0929                                         !
 ! R29   R(25,26)                1.2154                                         !
 ! R30   R(25,37)                1.3798                                         !
 ! R31   R(27,28)                1.5369                                         !
 ! R32   R(27,31)                1.0964                                         !
 ! R33   R(27,32)                1.0915                                         !
 ! R34   R(28,29)                1.5353                                         !
 ! R35   R(28,33)                1.0928                                         !
 ! R36   R(28,34)                1.0954                                         !
 ! R37   R(29,35)                1.0939                                         !
 ! R38   R(29,36)                1.0966                                         !
 ! R39   R(37,38)                1.4503                                         !
 ! R40   R(37,48)                1.011                                          !
 ! R41   R(38,39)                1.5271                                         !
 ! R42   R(38,41)                1.5463                                         !
 ! R43   R(38,49)                1.0907                                         !
 ! R44   R(39,40)                1.2285                                         !
 ! R45   R(39,46)                1.3308                                         !
 ! R46   R(41,42)                1.5355                                         !
 ! R47   R(41,50)                1.0994                                         !
 ! R48   R(41,51)                1.0959                                         !
 ! R49   R(42,43)                1.5336                                         !
 ! R50   R(42,52)                1.0979                                         !
 ! R51   R(42,53)                1.0985                                         !
 ! R52   R(43,44)                1.5417                                         !
 ! R53   R(43,54)                1.0995                                         !
 ! R54   R(43,55)                1.0988                                         !
 ! R55   R(44,45)                1.464                                          !
 ! R56   R(44,56)                1.0964                                         !
 ! R57   R(44,57)                1.0978                                         !
 ! R58   R(45,58)                1.0177                                         !
 ! R59   R(45,59)                1.0191                                         !
 ! R60   R(46,47)                0.977                                          !
 ! A1    A(2,1,12)             107.9776                                         !
 ! A2    A(2,1,21)             108.5498                                         !
 ! A3    A(2,1,22)             111.4266                                         !
 ! A4    A(12,1,21)            105.8147                                         !
 ! A5    A(12,1,22)            109.7578                                         !
 ! A6    A(21,1,22)            113.0478                                         !
 ! A7    A(1,2,3)              102.7437                                         !
 ! A8    A(1,2,5)              108.5861                                         !
 ! A9    A(1,2,13)             106.3967                                         !
 ! A10   A(3,2,5)              117.0213                                         !
 ! A11   A(3,2,13)             110.8313                                         !
 ! A12   A(5,2,13)             110.4546                                         !
 ! A13   A(2,3,4)              117.2601                                         !
 ! A14   A(2,3,23)             120.1418                                         !
 ! A15   A(4,3,23)             122.4079                                         !
 ! A16   A(2,5,6)              111.7581                                         !
 ! A17   A(2,5,14)             108.4876                                         !
 ! A18   A(2,5,15)             108.0299                                         !
 ! A19   A(6,5,14)             110.2403                                         !
 ! A20   A(6,5,15)             110.2035                                         !
 ! A21   A(14,5,15)            108.0116                                         !
 ! A22   A(5,6,7)              120.2247                                         !
 ! A23   A(5,6,8)              120.5505                                         !
 ! A24   A(7,6,8)              119.1499                                         !
 ! A25   A(6,7,9)              120.3719                                         !
 ! A26   A(6,7,16)             119.5298                                         !
 ! A27   A(9,7,16)             120.094                                          !
 ! A28   A(6,8,10)             120.4433                                         !
 ! A29   A(6,8,17)             119.8173                                         !
 ! A30   A(10,8,17)            119.7295                                         !
 ! A31   A(7,9,11)             120.084                                          !
 ! A32   A(7,9,18)             119.7984                                         !
 ! A33   A(11,9,18)            120.1158                                         !
 ! A34   A(8,10,11)            120.0651                                         !
 ! A35   A(8,10,19)            119.8174                                         !
 ! A36   A(11,10,19)           120.1152                                         !
 ! A37   A(9,11,10)            119.8842                                         !
 ! A38   A(9,11,20)            120.0898                                         !
 ! A39   A(10,11,20)           120.0247                                         !
 ! A40   A(3,23,24)            117.4969                                         !
 ! A41   A(3,23,29)            129.5437                                         !
 ! A42   A(24,23,29)           112.2293                                         !
 ! A43   A(23,24,25)           111.5552                                         !
 ! A44   A(23,24,27)           102.9591                                         !
 ! A45   A(23,24,30)           109.9148                                         !
 ! A46   A(25,24,27)           114.645                                          !
 ! A47   A(25,24,30)           105.7928                                         !
 ! A48   A(27,24,30)           112.0491                                         !
 ! A49   A(24,25,26)           121.5237                                         !
 ! A50   A(24,25,37)           114.7184                                         !
 ! A51   A(26,25,37)           123.7193                                         !
 ! A52   A(24,27,28)           103.3103                                         !
 ! A53   A(24,27,31)           110.0645                                         !
 ! A54   A(24,27,32)           111.4804                                         !
 ! A55   A(28,27,31)           110.3815                                         !
 ! A56   A(28,27,32)           113.6093                                         !
 ! A57   A(31,27,32)           107.9559                                         !
 ! A58   A(27,28,29)           102.9234                                         !
 ! A59   A(27,28,33)           113.2969                                         !
 ! A60   A(27,28,34)           110.3924                                         !
 ! A61   A(29,28,33)           111.9887                                         !
 ! A62   A(29,28,34)           109.933                                          !
 ! A63   A(33,28,34)           108.2396                                         !
 ! A64   A(23,29,28)           102.536                                          !
 ! A65   A(23,29,35)           110.9011                                         !
 ! A66   A(23,29,36)           110.6066                                         !
 ! A67   A(28,29,35)           113.4023                                         !
 ! A68   A(28,29,36)           110.6044                                         !
 ! A69   A(35,29,36)           108.7025                                         !
 ! A70   A(25,37,38)           121.1066                                         !
 ! A71   A(25,37,48)           117.1618                                         !
 ! A72   A(38,37,48)           115.5701                                         !
 ! A73   A(37,38,39)           109.2542                                         !
 ! A74   A(37,38,41)           110.9331                                         !
 ! A75   A(37,38,49)           107.2539                                         !
 ! A76   A(39,38,41)           109.9045                                         !
 ! A77   A(39,38,49)           108.5862                                         !
 ! A78   A(41,38,49)           110.8354                                         !
 ! A79   A(38,39,40)           123.8578                                         !
 ! A80   A(38,39,46)           113.1042                                         !
 ! A81   A(40,39,46)           122.9931                                         !
 ! A82   A(38,41,42)           115.316                                          !
 ! A83   A(38,41,50)           108.0455                                         !
 ! A84   A(38,41,51)           106.1714                                         !
 ! A85   A(42,41,50)           109.8224                                         !
 ! A86   A(42,41,51)           110.1395                                         !
 ! A87   A(50,41,51)           106.9732                                         !
 ! A88   A(41,42,43)           114.4047                                         !
 ! A89   A(41,42,52)           107.709                                          !
 ! A90   A(41,42,53)           109.7932                                         !
 ! A91   A(43,42,52)           109.1272                                         !
 ! A92   A(43,42,53)           109.5259                                         !
 ! A93   A(52,42,53)           105.9217                                         !
 ! A94   A(42,43,44)           113.1404                                         !
 ! A95   A(42,43,54)           109.23                                           !
 ! A96   A(42,43,55)           110.1469                                         !
 ! A97   A(44,43,54)           109.2489                                         !
 ! A98   A(44,43,55)           108.2554                                         !
 ! A99   A(54,43,55)           106.6058                                         !
 ! A100  A(43,44,45)           116.4711                                         !
 ! A101  A(43,44,56)           108.7498                                         !
 ! A102  A(43,44,57)           109.5465                                         !
 ! A103  A(45,44,56)           107.6576                                         !
 ! A104  A(45,44,57)           107.6319                                         !
 ! A105  A(56,44,57)           106.3131                                         !
 ! A106  A(44,45,58)           110.9487                                         !
 ! A107  A(44,45,59)           110.233                                          !
 ! A108  A(58,45,59)           106.9588                                         !
 ! A109  A(39,46,47)           109.1514                                         !
 ! D1    D(12,1,2,3)            68.7323                                         !
 ! D2    D(12,1,2,5)           -55.8422                                         !
 ! D3    D(12,1,2,13)         -174.7416                                         !
 ! D4    D(21,1,2,3)           -45.5418                                         !
 ! D5    D(21,1,2,5)          -170.1163                                         !
 ! D6    D(21,1,2,13)           70.9843                                         !
 ! D7    D(22,1,2,3)          -170.6624                                         !
 ! D8    D(22,1,2,5)            64.7631                                         !
 ! D9    D(22,1,2,13)          -54.1363                                         !
 ! D10   D(1,2,3,4)             13.4369                                         !
 ! D11   D(1,2,3,23)          -161.6725                                         !
 ! D12   D(5,2,3,4)            132.2638                                         !
 ! D13   D(5,2,3,23)           -42.8457                                         !
 ! D14   D(13,2,3,4)           -99.8734                                         !
 ! D15   D(13,2,3,23)           85.0172                                         !
 ! D16   D(1,2,5,6)            -46.1391                                         !
 ! D17   D(1,2,5,14)            75.611                                          !
 ! D18   D(1,2,5,15)          -167.536                                          !
 ! D19   D(3,2,5,6)           -161.7808                                         !
 ! D20   D(3,2,5,14)           -40.0307                                         !
 ! D21   D(3,2,5,15)            76.8223                                         !
 ! D22   D(13,2,5,6)            70.1744                                         !
 ! D23   D(13,2,5,14)         -168.0755                                         !
 ! D24   D(13,2,5,15)          -51.2225                                         !
 ! D25   D(2,3,23,24)          168.9056                                         !
 ! D26   D(2,3,23,29)          -21.7358                                         !
 ! D27   D(4,3,23,24)           -5.9443                                         !
 ! D28   D(4,3,23,29)          163.4143                                         !
 ! D29   D(2,5,6,7)            100.0141                                         !
 ! D30   D(2,5,6,8)            -76.8118                                         !
 ! D31   D(14,5,6,7)           -20.7205                                         !
 ! D32   D(14,5,6,8)           162.4536                                         !
 ! D33   D(15,5,6,7)          -139.8547                                         !
 ! D34   D(15,5,6,8)            43.3194                                         !
 ! D35   D(5,6,7,9)           -177.3417                                         !
 ! D36   D(5,6,7,16)             3.401                                          !
 ! D37   D(8,6,7,9)             -0.4715                                         !
 ! D38   D(8,6,7,16)          -179.7288                                         !
 ! D39   D(5,6,8,10)           177.2678                                         !
 ! D40   D(5,6,8,17)            -3.8801                                         !
 ! D41   D(7,6,8,10)             0.408                                          !
 ! D42   D(7,6,8,17)           179.2601                                         !
 ! D43   D(6,7,9,11)             0.3239                                         !
 ! D44   D(6,7,9,18)          -179.1811                                         !
 ! D45   D(16,7,9,11)          179.577                                          !
 ! D46   D(16,7,9,18)            0.0719                                         !
 ! D47   D(6,8,10,11)           -0.1964                                         !
 ! D48   D(6,8,10,19)          179.2561                                         !
 ! D49   D(17,8,10,11)        -179.0495                                         !
 ! D50   D(17,8,10,19)           0.403                                          !
 ! D51   D(7,9,11,10)           -0.1066                                         !
 ! D52   D(7,9,11,20)         -179.698                                          !
 ! D53   D(18,9,11,10)         179.3969                                         !
 ! D54   D(18,9,11,20)          -0.1946                                         !
 ! D55   D(8,10,11,9)            0.043                                          !
 ! D56   D(8,10,11,20)         179.6347                                         !
 ! D57   D(19,10,11,9)        -179.4078                                         !
 ! D58   D(19,10,11,20)          0.1838                                         !
 ! D59   D(3,23,24,25)         -57.1225                                         !
 ! D60   D(3,23,24,27)         179.4439                                         !
 ! D61   D(3,23,24,30)          59.9005                                         !
 ! D62   D(29,23,24,25)        131.7266                                         !
 ! D63   D(29,23,24,27)          8.293                                          !
 ! D64   D(29,23,24,30)       -111.2503                                         !
 ! D65   D(3,23,29,28)        -153.3094                                         !
 ! D66   D(3,23,29,35)         -31.9464                                         !
 ! D67   D(3,23,29,36)          88.737                                          !
 ! D68   D(24,23,29,28)         16.4983                                         !
 ! D69   D(24,23,29,35)        137.8613                                         !
 ! D70   D(24,23,29,36)       -101.4554                                         !
 ! D71   D(23,24,25,26)        145.5834                                         !
 ! D72   D(23,24,25,37)        -36.5964                                         !
 ! D73   D(27,24,25,26)        -97.8964                                         !
 ! D74   D(27,24,25,37)         79.9239                                         !
 ! D75   D(30,24,25,26)         26.0895                                         !
 ! D76   D(30,24,25,37)       -156.0902                                         !
 ! D77   D(23,24,27,28)        -29.7278                                         !
 ! D78   D(23,24,27,31)         88.1389                                         !
 ! D79   D(23,24,27,32)       -152.0968                                         !
 ! D80   D(25,24,27,28)       -151.084                                          !
 ! D81   D(25,24,27,31)        -33.2172                                         !
 ! D82   D(25,24,27,32)         86.547                                          !
 ! D83   D(30,24,27,28)         88.3265                                         !
 ! D84   D(30,24,27,31)       -153.8067                                         !
 ! D85   D(30,24,27,32)        -34.0425                                         !
 ! D86   D(24,25,37,38)        161.1584                                         !
 ! D87   D(24,25,37,48)          9.9738                                         !
 ! D88   D(26,25,37,38)        -21.0756                                         !
 ! D89   D(26,25,37,48)       -172.2602                                         !
 ! D90   D(24,27,28,29)         40.2774                                         !
 ! D91   D(24,27,28,33)        161.4127                                         !
 ! D92   D(24,27,28,34)        -77.0109                                         !
 ! D93   D(31,27,28,29)        -77.3674                                         !
 ! D94   D(31,27,28,33)         43.7679                                         !
 ! D95   D(31,27,28,34)        165.3443                                         !
 ! D96   D(32,27,28,29)        161.2127                                         !
 ! D97   D(32,27,28,33)        -77.652                                          !
 ! D98   D(32,27,28,34)         43.9244                                         !
 ! D99   D(27,28,29,23)        -34.5                                            !
 ! D100  D(27,28,29,35)       -154.1341                                         !
 ! D101  D(27,28,29,36)         83.4552                                         !
 ! D102  D(33,28,29,23)       -156.5231                                         !
 ! D103  D(33,28,29,35)         83.8428                                         !
 ! D104  D(33,28,29,36)        -38.5679                                         !
 ! D105  D(34,28,29,23)         83.1131                                         !
 ! D106  D(34,28,29,35)        -36.5211                                         !
 ! D107  D(34,28,29,36)       -158.9318                                         !
 ! D108  D(25,37,38,39)        -92.2737                                         !
 ! D109  D(25,37,38,41)        146.4125                                         !
 ! D110  D(25,37,38,49)         25.2431                                         !
 ! D111  D(48,37,38,39)         59.3411                                         !
 ! D112  D(48,37,38,41)        -61.9727                                         !
 ! D113  D(48,37,38,49)        176.8579                                         !
 ! D114  D(37,38,39,40)        -37.4928                                         !
 ! D115  D(37,38,39,46)        144.8836                                         !
 ! D116  D(41,38,39,40)         84.4429                                         !
 ! D117  D(41,38,39,46)        -93.1807                                         !
 ! D118  D(49,38,39,40)       -154.1675                                         !
 ! D119  D(49,38,39,46)         28.2088                                         !
 ! D120  D(37,38,41,42)       -179.6665                                         !
 ! D121  D(37,38,41,50)         57.0587                                         !
 ! D122  D(37,38,41,51)        -57.4072                                         !
 ! D123  D(39,38,41,42)         59.4027                                         !
 ! D124  D(39,38,41,50)        -63.8721                                         !
 ! D125  D(39,38,41,51)       -178.3379                                         !
 ! D126  D(49,38,41,42)        -60.6302                                         !
 ! D127  D(49,38,41,50)        176.095                                          !
 ! D128  D(49,38,41,51)         61.6291                                         !
 ! D129  D(38,39,46,47)        176.7008                                         !
 ! D130  D(40,39,46,47)         -0.9464                                         !
 ! D131  D(38,41,42,43)         61.5773                                         !
 ! D132  D(38,41,42,52)       -176.9163                                         !
 ! D133  D(38,41,42,53)        -62.0206                                         !
 ! D134  D(50,41,42,43)       -176.0937                                         !
 ! D135  D(50,41,42,52)        -54.5874                                         !
 ! D136  D(50,41,42,53)         60.3083                                         !
 ! D137  D(51,41,42,43)        -58.5315                                         !
 ! D138  D(51,41,42,52)         62.9749                                         !
 ! D139  D(51,41,42,53)        177.8706                                         !
 ! D140  D(41,42,43,44)        178.7277                                         !
 ! D141  D(41,42,43,54)         56.8047                                         !
 ! D142  D(41,42,43,55)        -59.9631                                         !
 ! D143  D(52,42,43,44)         58.0038                                         !
 ! D144  D(52,42,43,54)        -63.9192                                         !
 ! D145  D(52,42,43,55)        179.313                                          !
 ! D146  D(53,42,43,44)        -57.531                                          !
 ! D147  D(53,42,43,54)       -179.454                                          !
 ! D148  D(53,42,43,55)         63.7782                                         !
 ! D149  D(42,43,44,45)         63.1983                                         !
 ! D150  D(42,43,44,56)       -175.0073                                         !
 ! D151  D(42,43,44,57)        -59.2039                                         !
 ! D152  D(54,43,44,45)       -174.8893                                         !
 ! D153  D(54,43,44,56)        -53.0948                                         !
 ! D154  D(54,43,44,57)         62.7085                                         !
 ! D155  D(55,43,44,45)        -59.1718                                         !
 ! D156  D(55,43,44,56)         62.6227                                         !
 ! D157  D(55,43,44,57)        178.4261                                         !
 ! D158  D(43,44,45,58)        -64.3619                                         !
 ! D159  D(43,44,45,59)         53.9308                                         !
 ! D160  D(56,44,45,58)        173.2706                                         !
 ! D161  D(56,44,45,59)        -68.4367                                         !
 ! D162  D(57,44,45,58)         59.0357                                         !
 ! D163  D(57,44,45,59)        177.3284                                         !
 --------------------------------------------------------------------------------
 Symmetry turned off by external request.
 Stoichiometry    C20H31N4O4(1+)
 Framework group  C1[X(C20H31N4O4)]
 Deg. of freedom   171
 Full point group                 C1      NOp   1
                          Input orientation:                          
 ---------------------------------------------------------------------
 Center     Atomic      Atomic             Coordinates (Angstroms)
 Number     Number       Type             X           Y           Z
 ---------------------------------------------------------------------
      1          7           0       -7.989244   16.878254    9.246327
      2          6           0       -6.596911   16.847192    9.839630
      3          6           0       -6.811372   16.092427   11.175245
      4          8           0       -7.884481   15.500119   11.324136
      5          6           0       -6.067655   18.295059    9.929159
      6          6           0       -6.314403   19.063849    8.646288
      7          6           0       -7.395504   19.952771    8.552576
      8          6           0       -5.508166   18.847696    7.519467
      9          6           0       -7.658604   20.621067    7.354412
     10          6           0       -5.772411   19.514628    6.322574
     11          6           0       -6.848638   20.402115    6.238461
     12          1           0       -8.574652   17.508969    9.832993
     13          1           0       -5.981222   16.256331    9.152794
     14          1           0       -6.559978   18.792932   10.769268
     15          1           0       -4.997857   18.251196   10.142619
     16          1           0       -8.022468   20.128481    9.424367
     17          1           0       -4.659326   18.169532    7.583421
     18          1           0       -8.490082   21.317372    7.296093
     19          1           0       -5.134224   19.348792    5.459740
     20          1           0       -7.050084   20.925206    5.308550
     21          1           0       -8.405534   15.942420    9.339453
     22          1           0       -7.976657   17.217193    8.279785
     23          7           0       -5.892738   16.179644   12.156494
     24          6           0       -6.264401   15.649010   13.492842
     25          6           0       -7.536010   16.324374   14.035612
     26          8           0       -8.340144   15.714153   14.712509
     27          6           0       -4.995873   15.901270   14.329734
     28          6           0       -3.865041   15.816978   13.292380
     29          6           0       -4.459935   16.541118   12.076341
     30          1           0       -6.501644   14.584761   13.417991
     31          1           0       -5.031859   16.902612   14.774858
     32          1           0       -4.900798   15.176083   15.139946
     33          1           0       -2.934155   16.279850   13.629210
     34          1           0       -3.656292   14.771801   13.039359
     35          1           0       -4.028621   16.218049   11.124441
     36          1           0       -4.329644   17.625813   12.171310
     37          7           0       -7.651986   17.665182   13.731255
     38          6           0       -8.932696   18.341832   13.803429
     39          6           0       -9.607071   18.290828   12.434199
     40          8           0       -9.002949   18.393719   11.369429
     41          6           0       -8.756437   19.811978   14.248998
     42          6           0      -10.055207   20.622547   14.366881
     43          6           0      -11.048460   20.080831   15.402199
     44          6           0      -12.327569   20.933596   15.518721
     45          7           0      -13.171286   21.011011   14.324772
     46          8           0      -10.930542   18.172979   12.508007
     47          1           0      -11.305443   18.198856   11.606122
     48          1           0       -6.994473   18.045561   13.064068
     49          1           0       -9.549440   17.791953   14.515409
     50          1           0       -8.073583   20.302878   13.540971
     51          1           0       -8.243584   19.778162   15.216916
     52          1           0       -9.783209   21.652184   14.633704
     53          1           0      -10.545122   20.684927   13.385648
     54          1           0      -10.556273   20.029641   16.383999
     55          1           0      -11.341785   19.053833   15.144040
     56          1           0      -12.942402   20.536953   16.335282
     57          1           0      -12.060365   21.959440   15.804167
     58          1           0      -12.682235   21.476323   13.563184
     59          1           0      -13.407099   20.074799   13.998549
 ---------------------------------------------------------------------
 Rotational constants (GHZ):           0.1906748           0.1236043           0.0849014
 Standard basis: 6-31G(d) (6D, 7F)
   482 basis functions,   908 primitive gaussians,   482 cartesian basis functions
   105 alpha electrons      105 beta electrons
       nuclear repulsion energy      2831.2208954563 Hartrees.
 NAtoms=   59 NActive=   59 NUniq=   59 SFac= 1.00D+00 NAtFMM=   60 NAOKFM=F Big=F
 Integral buffers will be    131072 words long.
 Raffenetti 2 integral format.
 Two-electron integral symmetry is turned off.
 Nuclear repulsion after empirical dispersion term =     2831.1457462990 Hartrees.
 One-electron integrals computed using PRISM.
 NBasis=   482 RedAO= T EigKep=  4.70D-04  NBF=   482
 NBsUse=   482 1.00D-06 EigRej= -1.00D+00 NBFU=   482
 Initial guess from the checkpoint file:  "conf-841.chk"
 B after Tr=     0.000000    0.000000    0.000000
         Rot=    1.000000    0.000000    0.000000    0.000000 Ang=   0.00 deg.
 Requested convergence on RMS density matrix=1.00D-08 within 128 cycles.
 Requested convergence on MAX density matrix=1.00D-06.
 Requested convergence on             energy=1.00D-06.
 No special actions if energy rises.
 SCF Done:  E(RB3LYP) =  -1300.60083757     A.U. after    1 cycles
            NFock=  1  Conv=0.53D-08     -V/T= 2.0095

 **********************************************************************

            Population analysis using the SCF Density.

 **********************************************************************

 Alpha  occ. eigenvalues --  -19.33618 -19.28756 -19.26179 -19.22038 -14.59181
 Alpha  occ. eigenvalues --  -14.50522 -14.46841 -14.37986 -10.46123 -10.43572
 Alpha  occ. eigenvalues --  -10.41020 -10.39463 -10.35849 -10.35022 -10.34712
 Alpha  occ. eigenvalues --  -10.34155 -10.32416 -10.31052 -10.30999 -10.30972
 Alpha  occ. eigenvalues --  -10.30681 -10.30544 -10.30516 -10.30254 -10.29708
 Alpha  occ. eigenvalues --  -10.27683 -10.27394 -10.25835  -1.24773  -1.19071
 Alpha  occ. eigenvalues --   -1.15685  -1.14298  -1.13503  -1.08087  -1.03654
 Alpha  occ. eigenvalues --   -0.97960  -0.94802  -0.93983  -0.91556  -0.90834
 Alpha  occ. eigenvalues --   -0.87742  -0.86490  -0.86143  -0.84318  -0.80262
 Alpha  occ. eigenvalues --   -0.79246  -0.77757  -0.75172  -0.74510  -0.72861
 Alpha  occ. eigenvalues --   -0.72019  -0.71715  -0.71007  -0.70195  -0.69984
 Alpha  occ. eigenvalues --   -0.68458  -0.66087  -0.65329  -0.63819  -0.63548
 Alpha  occ. eigenvalues --   -0.62710  -0.62627  -0.61639  -0.59588  -0.59315
 Alpha  occ. eigenvalues --   -0.57874  -0.57451  -0.57283  -0.56525  -0.56228
 Alpha  occ. eigenvalues --   -0.55602  -0.54703  -0.54222  -0.54035  -0.54000
 Alpha  occ. eigenvalues --   -0.53447  -0.52937  -0.52718  -0.52086  -0.51334
 Alpha  occ. eigenvalues --   -0.50657  -0.50257  -0.49735  -0.49142  -0.48815
 Alpha  occ. eigenvalues --   -0.47827  -0.47473  -0.47190  -0.46278  -0.46208
 Alpha  occ. eigenvalues --   -0.45850  -0.45625  -0.45503  -0.44288  -0.43519
 Alpha  occ. eigenvalues --   -0.42148  -0.41489  -0.40455  -0.40363  -0.38773
 Alpha  occ. eigenvalues --   -0.36887  -0.36663  -0.36481  -0.35187  -0.29869
 Alpha virt. eigenvalues --   -0.14003  -0.13205  -0.12147  -0.12076  -0.08668
 Alpha virt. eigenvalues --   -0.07890  -0.06073  -0.05540  -0.04435  -0.03392
 Alpha virt. eigenvalues --   -0.02473  -0.01638  -0.00317   0.00354   0.00442
 Alpha virt. eigenvalues --    0.01175   0.01663   0.01882   0.01935   0.02610
 Alpha virt. eigenvalues --    0.03013   0.03470   0.03873   0.04411   0.04500
 Alpha virt. eigenvalues --    0.05585   0.05828   0.06444   0.06569   0.06977
 Alpha virt. eigenvalues --    0.07138   0.07844   0.08455   0.08794   0.08880
 Alpha virt. eigenvalues --    0.09116   0.09559   0.09658   0.10267   0.11098
 Alpha virt. eigenvalues --    0.11374   0.11467   0.12170   0.12642   0.13266
 Alpha virt. eigenvalues --    0.14636   0.15364   0.15538   0.16213   0.16534
 Alpha virt. eigenvalues --    0.17200   0.17902   0.18520   0.19320   0.20352
 Alpha virt. eigenvalues --    0.20849   0.21333   0.21890   0.22863   0.23229
 Alpha virt. eigenvalues --    0.25192   0.27265   0.28642   0.29441   0.32286
 Alpha virt. eigenvalues --    0.35461   0.36162   0.38125   0.39248   0.39755
 Alpha virt. eigenvalues --    0.40413   0.40894   0.41604   0.42336   0.42717
 Alpha virt. eigenvalues --    0.42956   0.43221   0.43299   0.44056   0.44778
 Alpha virt. eigenvalues --    0.45550   0.46023   0.46350   0.46796   0.47889
 Alpha virt. eigenvalues --    0.47957   0.49048   0.49115   0.49778   0.49842
 Alpha virt. eigenvalues --    0.50074   0.50646   0.50729   0.51183   0.51512
 Alpha virt. eigenvalues --    0.52017   0.52818   0.53396   0.53659   0.54485
 Alpha virt. eigenvalues --    0.54707   0.55138   0.55802   0.56799   0.57604
 Alpha virt. eigenvalues --    0.58700   0.59803   0.60622   0.60902   0.61528
 Alpha virt. eigenvalues --    0.63118   0.63326   0.64618   0.65431   0.66303
 Alpha virt. eigenvalues --    0.67000   0.67133   0.68151   0.68393   0.68687
 Alpha virt. eigenvalues --    0.69244   0.70127   0.71352   0.71737   0.72196
 Alpha virt. eigenvalues --    0.72444   0.72737   0.73011   0.73549   0.74034
 Alpha virt. eigenvalues --    0.74485   0.74639   0.75503   0.76110   0.76623
 Alpha virt. eigenvalues --    0.76885   0.77148   0.77497   0.78524   0.78992
 Alpha virt. eigenvalues --    0.79077   0.80209   0.80278   0.80866   0.81084
 Alpha virt. eigenvalues --    0.81528   0.81744   0.82156   0.83021   0.83403
 Alpha virt. eigenvalues --    0.83996   0.84784   0.85744   0.86193   0.86737
 Alpha virt. eigenvalues --    0.87060   0.87406   0.88379   0.89274   0.89636
 Alpha virt. eigenvalues --    0.90552   0.91500   0.93050   0.93848   0.94122
 Alpha virt. eigenvalues --    0.95287   0.96234   0.96668   0.98088   0.98355
 Alpha virt. eigenvalues --    0.99314   1.00617   1.01527   1.01717   1.02348
 Alpha virt. eigenvalues --    1.03278   1.04321   1.05861   1.06399   1.07010
 Alpha virt. eigenvalues --    1.07900   1.08372   1.11707   1.12093   1.13781
 Alpha virt. eigenvalues --    1.14650   1.16392   1.18251   1.19536   1.22426
 Alpha virt. eigenvalues --    1.23586   1.25220   1.25225   1.26397   1.26991
 Alpha virt. eigenvalues --    1.28813   1.30084   1.30994   1.31609   1.31814
 Alpha virt. eigenvalues --    1.32220   1.35017   1.35624   1.36482   1.37441
 Alpha virt. eigenvalues --    1.37597   1.38701   1.39387   1.39937   1.41316
 Alpha virt. eigenvalues --    1.41645   1.42753   1.44114   1.46031   1.47250
 Alpha virt. eigenvalues --    1.49075   1.50961   1.51602   1.52118   1.55105
 Alpha virt. eigenvalues --    1.58080   1.59120   1.59687   1.60485   1.61246
 Alpha virt. eigenvalues --    1.62488   1.63023   1.63469   1.64587   1.66680
 Alpha virt. eigenvalues --    1.67032   1.68076   1.68270   1.68586   1.68975
 Alpha virt. eigenvalues --    1.69911   1.70834   1.72274   1.72701   1.74043
 Alpha virt. eigenvalues --    1.74332   1.74979   1.76550   1.77205   1.77649
 Alpha virt. eigenvalues --    1.78025   1.78670   1.80076   1.80564   1.81517
 Alpha virt. eigenvalues --    1.82429   1.83815   1.84618   1.85778   1.86921
 Alpha virt. eigenvalues --    1.87116   1.87693   1.88038   1.88720   1.90433
 Alpha virt. eigenvalues --    1.90891   1.91632   1.92262   1.93244   1.93333
 Alpha virt. eigenvalues --    1.93857   1.95117   1.95471   1.95633   1.96945
 Alpha virt. eigenvalues --    1.98209   1.98520   1.98870   1.99587   2.01358
 Alpha virt. eigenvalues --    2.02043   2.02500   2.03267   2.04639   2.05738
 Alpha virt. eigenvalues --    2.06628   2.07173   2.09151   2.10206   2.11443
 Alpha virt. eigenvalues --    2.12451   2.13871   2.14771   2.16839   2.17590
 Alpha virt. eigenvalues --    2.18811   2.19164   2.20757   2.20920   2.22108
 Alpha virt. eigenvalues --    2.22961   2.24196   2.24897   2.27220   2.27960
 Alpha virt. eigenvalues --    2.28653   2.29814   2.32024   2.32505   2.33635
 Alpha virt. eigenvalues --    2.35181   2.35435   2.38236   2.39232   2.40408
 Alpha virt. eigenvalues --    2.41891   2.42923   2.44269   2.45244   2.46590
 Alpha virt. eigenvalues --    2.48219   2.49068   2.49893   2.50608   2.51424
 Alpha virt. eigenvalues --    2.53853   2.53989   2.55745   2.57423   2.57806
 Alpha virt. eigenvalues --    2.59511   2.59923   2.61423   2.62633   2.63109
 Alpha virt. eigenvalues --    2.63323   2.64907   2.64969   2.65790   2.66755
 Alpha virt. eigenvalues --    2.72116   2.72780   2.75899   2.79501   2.84970
 Alpha virt. eigenvalues --    2.85995   2.90976   2.92212   2.92651   2.95309
 Alpha virt. eigenvalues --    2.96641   3.04246   3.08260   3.29020   3.70253
 Alpha virt. eigenvalues --    3.71186   3.74703   3.91424   3.91779   3.97796
 Alpha virt. eigenvalues --    3.98302   4.00723   4.04565   4.05880   4.08861
 Alpha virt. eigenvalues --    4.11219   4.14912   4.16836   4.18758   4.22006
 Alpha virt. eigenvalues --    4.24231   4.27366   4.29918   4.34002   4.37398
 Alpha virt. eigenvalues --    4.41663   4.45026   4.45591   4.50125   4.57170
 Alpha virt. eigenvalues --    4.58799   4.66986
          Condensed to atoms (all electrons):
 Mulliken charges:
               1
     1  N   -0.749317
     2  C   -0.117644
     3  C    0.633288
     4  O   -0.527724
     5  C   -0.383259
     6  C    0.115186
     7  C   -0.213822
     8  C   -0.188264
     9  C   -0.125652
    10  C   -0.125459
    11  C   -0.124382
    12  H    0.441623
    13  H    0.218246
    14  H    0.189555
    15  H    0.193074
    16  H    0.153761
    17  H    0.141048
    18  H    0.162833
    19  H    0.166889
    20  H    0.168458
    21  H    0.418667
    22  H    0.409527
    23  N   -0.487412
    24  C   -0.024645
    25  C    0.615557
    26  O   -0.480457
    27  C   -0.315789
    28  C   -0.300111
    29  C   -0.147392
    30  H    0.208417
    31  H    0.170614
    32  H    0.200323
    33  H    0.184422
    34  H    0.179189
    35  H    0.173966
    36  H    0.172882
    37  N   -0.604810
    38  C   -0.054788
    39  C    0.626021
    40  O   -0.534703
    41  C   -0.279832
    42  C   -0.270190
    43  C   -0.272491
    44  C   -0.149172
    45  N   -0.698468
    46  O   -0.517518
    47  H    0.422438
    48  H    0.331521
    49  H    0.227722
    50  H    0.136536
    51  H    0.180100
    52  H    0.157796
    53  H    0.117530
    54  H    0.142871
    55  H    0.138832
    56  H    0.159763
    57  H    0.150130
    58  H    0.292948
    59  H    0.291565
 Sum of Mulliken charges =   1.00000
 Mulliken charges with hydrogens summed into heavy atoms:
               1
     1  N    0.520500
     2  C    0.100602
     3  C    0.633288
     4  O   -0.527724
     5  C   -0.000630
     6  C    0.115186
     7  C   -0.060061
     8  C   -0.047216
     9  C    0.037181
    10  C    0.041431
    11  C    0.044077
    23  N   -0.487412
    24  C    0.183771
    25  C    0.615557
    26  O   -0.480457
    27  C    0.055147
    28  C    0.063500
    29  C    0.199457
    37  N   -0.273289
    38  C    0.172934
    39  C    0.626021
    40  O   -0.534703
    41  C    0.036805
    42  C    0.005136
    43  C    0.009212
    44  C    0.160721
    45  N   -0.113954
    46  O   -0.095080
 Electronic spatial extent (au):  <R**2>=         410597.3907
 Charge=              1.0000 electrons
 Dipole moment (field-independent basis, Debye):
    X=            -32.1652    Y=             85.7769    Z=             47.5612  Tot=            103.2198
 Quadrupole moment (field-independent basis, Debye-Ang):
   XX=             70.8026   YY=           1373.8395   ZZ=            336.5884
   XY=           -584.8077   XZ=           -301.4547   YZ=            852.5306
 Traceless Quadrupole moment (field-independent basis, Debye-Ang):
   XX=           -522.9409   YY=            780.0960   ZZ=           -257.1551
   XY=           -584.8077   XZ=           -301.4547   YZ=            852.5306
 Octapole moment (field-independent basis, Debye-Ang**2):
  XXX=           2070.2829  YYY=          18736.2781  ZZZ=           -242.2991  XYY=          -9345.2050
  XXY=           1280.0903  XXZ=            131.5907  XZZ=          -1667.5328  YZZ=           6085.1761
  YYZ=          13380.0015  XYZ=          -5533.5354
 Hexadecapole moment (field-independent basis, Debye-Ang**3):
 XXXX=         -53013.5205 YYYY=         171449.1917 ZZZZ=         -79833.8850 XXXY=          40101.8344
 XXXZ=          32725.8316 YYYX=        -121893.5727 YYYZ=         170505.0647 ZZZX=          16637.7024
 ZZZY=          -2901.1515 XXYY=          10966.7430 XXZZ=         -16847.1804 YYZZ=          85396.2796
 XXYZ=           2675.0795 YYXZ=         -85412.0756 ZZXY=         -31463.8427
 N-N= 2.831145746299D+03 E-N=-8.663265939044D+03  KE= 1.288378447280D+03
 Unable to Open any file for archive entry.
 1\1\GINC-LAC-312\SP\RB3LYP\6-31G(d)\C20H31N4O4(1+)\KENGMITH\25-May-202
 2\0\\# B3LYP/6-31G* empiricaldispersion=gd3 guess=read geom=check nosy
 mm integral(ultrafinegrid)\\Candidate Structure: Conf:841 Charge calc 
 in gas phase\\1,1\N,0,-7.9892444616,16.8782538437,9.2463273836\C,0,-6.
 5969114561,16.8471919726,9.8396302467\C,0,-6.811371636,16.09242658,11.
 1752453463\O,0,-7.8844808928,15.5001194638,11.3241363734\C,0,-6.067655
 2484,18.2950590386,9.9291590621\C,0,-6.314402846,19.0638485143,8.64628
 82331\C,0,-7.3955041599,19.9527712077,8.5525758159\C,0,-5.5081664538,1
 8.8476962668,7.519467414\C,0,-7.6586036435,20.6210671602,7.3544116614\
 C,0,-5.7724110483,19.514628135,6.32257447\C,0,-6.848638269,20.40211492
 94,6.2384607465\H,0,-8.5746522939,17.5089694427,9.8329925893\H,0,-5.98
 12220455,16.2563313508,9.1527942342\H,0,-6.5599782609,18.7929321709,10
 .7692676428\H,0,-4.9978573954,18.2511957933,10.1426194302\H,0,-8.02246
 80282,20.1284811122,9.4243670689\H,0,-4.6593261967,18.1695323261,7.583
 4212907\H,0,-8.4900816099,21.3173715087,7.2960925642\H,0,-5.1342241817
 ,19.3487915775,5.4597404982\H,0,-7.0500839598,20.9252055919,5.30855032
 77\H,0,-8.405533894,15.9424201428,9.3394529912\H,0,-7.9766571014,17.21
 71933262,8.2797847667\N,0,-5.8927376941,16.1796441851,12.1564940235\C,
 0,-6.2644010785,15.6490098999,13.4928420714\C,0,-7.5360099142,16.32437
 35681,14.0356120963\O,0,-8.340144008,15.7141531908,14.7125094666\C,0,-
 4.9958730584,15.9012700488,14.3297338512\C,0,-3.865041242,15.816977647
 9,13.2923795556\C,0,-4.4599353949,16.5411178977,12.0763413909\H,0,-6.5
 016435314,14.584760803,13.4179906055\H,0,-5.0318591507,16.9026120429,1
 4.774858276\H,0,-4.9007984171,15.1760830236,15.1399464707\H,0,-2.93415
 54376,16.2798497391,13.6292100072\H,0,-3.6562924098,14.7718006775,13.0
 393591163\H,0,-4.0286213226,16.2180487851,11.1244406777\H,0,-4.3296443
 676,17.6258128726,12.1713099199\N,0,-7.6519860121,17.6651817619,13.731
 2549841\C,0,-8.9326964687,18.3418319013,13.8034285196\C,0,-9.607070939
 9,18.2908275274,12.4341994316\O,0,-9.0029489213,18.3937189618,11.36942
 90169\C,0,-8.7564371609,19.8119776503,14.2489984337\C,0,-10.0552069554
 ,20.6225467596,14.3668814821\C,0,-11.0484602318,20.0808312152,15.40219
 86557\C,0,-12.3275693652,20.9335961247,15.5187210818\N,0,-13.171286284
 7,21.0110106851,14.3247716886\O,0,-10.9305421061,18.172979385,12.50800
 72959\H,0,-11.3054426866,18.1988558716,11.6061220738\H,0,-6.9944730204
 ,18.0455613723,13.0640676445\H,0,-9.5494400634,17.7919529133,14.515408
 6892\H,0,-8.0735834333,20.3028779597,13.5409706808\H,0,-8.2435835594,1
 9.7781621418,15.2169159129\H,0,-9.783208895,21.6521841568,14.633703568
 7\H,0,-10.5451217163,20.6849266097,13.3856475027\H,0,-10.5562727161,20
 .0296414647,16.3839991459\H,0,-11.3417848996,19.0538333174,15.14404000
 77\H,0,-12.9424023427,20.5369534693,16.3352822407\H,0,-12.0603649584,2
 1.959439746,15.8041672381\H,0,-12.6822345331,21.4763230868,13.56318430
 82\H,0,-13.4070994697,20.0747987907,13.9985491412\\Version=ES64L-G16Re
 vC.01\HF=-1300.6008376\RMSD=5.345e-09\Dipole=2.1930636,-0.5284457,-3.5
 892581\Quadrupole=-388.7937298,579.9822291,-191.1884993,-434.7901931,-
 224.1241696,633.8355803\PG=C01 [X(C20H31N4O4)]\\@
 The archive entry for this job was punched.


 IT IS DOUBTED WHETHER A MAN EVER BRINGS HIS FACULTIES TO BEAR WITH THEIR FULL FORCE
 ON A SUBJECT UNTIL HE WRITES UPON IT.

                          -- CICERO
 Job cpu time:       0 days  0 hours  1 minutes 12.0 seconds.
 Elapsed time:       0 days  0 hours  0 minutes 18.4 seconds.
 File lengths (MBytes):  RWF=    240 Int=      0 D2E=      0 Chk=     32 Scr=     16
 Normal termination of Gaussian 16 at Wed May 25 19:10:03 2022.
