 Entering Gaussian System, Link 0=/opt/software/Gaussian/g16-AVX2-C.01/g16/g16
 Input=charge-conf-535.com
 Output=charge-conf-535.log
 Initial command:
 /opt/software/Gaussian/g16-AVX2-C.01/g16/l1.exe "/mnt/gs18/scratch/users/kengmith/Gau-15549.inp" -scrdir="/mnt/gs18/scratch/users/kengmith/"
 Entering Link 1 = /opt/software/Gaussian/g16-AVX2-C.01/g16/l1.exe PID=     15559.
  
 Copyright (c) 1988-2019, Gaussian, Inc.  All Rights Reserved.
  
 This is part of the Gaussian(R) 16 program.  It is based on
 the Gaussian(R) 09 system (copyright 2009, Gaussian, Inc.),
 the Gaussian(R) 03 system (copyright 2003, Gaussian, Inc.),
 the Gaussian(R) 98 system (copyright 1998, Gaussian, Inc.),
 the Gaussian(R) 94 system (copyright 1995, Gaussian, Inc.),
 the Gaussian 92(TM) system (copyright 1992, Gaussian, Inc.),
 the Gaussian 90(TM) system (copyright 1990, Gaussian, Inc.),
 the Gaussian 88(TM) system (copyright 1988, Gaussian, Inc.),
 the Gaussian 86(TM) system (copyright 1986, Carnegie Mellon
 University), and the Gaussian 82(TM) system (copyright 1983,
 Carnegie Mellon University). Gaussian is a federally registered
 trademark of Gaussian, Inc.
  
 This software contains proprietary and confidential information,
 including trade secrets, belonging to Gaussian, Inc.
  
 This software is provided under written license and may be
 used, copied, transmitted, or stored only in accord with that
 written license.
  
 The following legend is applicable only to US Government
 contracts under FAR:
  
                    RESTRICTED RIGHTS LEGEND
  
 Use, reproduction and disclosure by the US Government is
 subject to restrictions as set forth in subparagraphs (a)
 and (c) of the Commercial Computer Software - Restricted
 Rights clause in FAR 52.227-19.
  
 Gaussian, Inc.
 340 Quinnipiac St., Bldg. 40, Wallingford CT 06492
  
  
 ---------------------------------------------------------------
 Warning -- This program may not be used in any manner that
 competes with the business of Gaussian, Inc. or will provide
 assistance to any competitor of Gaussian, Inc.  The licensee
 of this program is prohibited from giving any competitor of
 Gaussian, Inc. access to this program.  By using this program,
 the user acknowledges that Gaussian, Inc. is engaged in the
 business of creating and licensing software in the field of
 computational chemistry and represents and warrants to the
 licensee that it is not a competitor of Gaussian, Inc. and that
 it will not use this program in any manner prohibited above.
 ---------------------------------------------------------------
  

 Cite this work as:
 Gaussian 16, Revision C.01,
 M. J. Frisch, G. W. Trucks, H. B. Schlegel, G. E. Scuseria, 
 M. A. Robb, J. R. Cheeseman, G. Scalmani, V. Barone, 
 G. A. Petersson, H. Nakatsuji, X. Li, M. Caricato, A. V. Marenich, 
 J. Bloino, B. G. Janesko, R. Gomperts, B. Mennucci, H. P. Hratchian, 
 J. V. Ortiz, A. F. Izmaylov, J. L. Sonnenberg, D. Williams-Young, 
 F. Ding, F. Lipparini, F. Egidi, J. Goings, B. Peng, A. Petrone, 
 T. Henderson, D. Ranasinghe, V. G. Zakrzewski, J. Gao, N. Rega, 
 G. Zheng, W. Liang, M. Hada, M. Ehara, K. Toyota, R. Fukuda, 
 J. Hasegawa, M. Ishida, T. Nakajima, Y. Honda, O. Kitao, H. Nakai, 
 T. Vreven, K. Throssell, J. A. Montgomery, Jr., J. E. Peralta, 
 F. Ogliaro, M. J. Bearpark, J. J. Heyd, E. N. Brothers, K. N. Kudin, 
 V. N. Staroverov, T. A. Keith, R. Kobayashi, J. Normand, 
 K. Raghavachari, A. P. Rendell, J. C. Burant, S. S. Iyengar, 
 J. Tomasi, M. Cossi, J. M. Millam, M. Klene, C. Adamo, R. Cammi, 
 J. W. Ochterski, R. L. Martin, K. Morokuma, O. Farkas, 
 J. B. Foresman, and D. J. Fox, Gaussian, Inc., Wallingford CT, 2019.
 
 ******************************************
 Gaussian 16:  ES64L-G16RevC.01  3-Jul-2019
                25-May-2022 
 ******************************************
 %mem=8gb
 %nproc=4
 Will use up to    4 processors via shared memory.
 %chk=conf-535.chk
 ----------------------------------------------------------------------
 # B3LYP/6-31G* empiricaldispersion=gd3 guess=read geom=check nosymm in
 tegral(ultrafinegrid)
 ----------------------------------------------------------------------
 1/29=2,38=1,172=1/1;
 2/12=2,15=1,40=1/2;
 3/5=1,6=6,7=1,11=2,14=-4,25=1,30=1,74=-5,75=-5,116=-2,124=31/1,2,3;
 4/5=1/1;
 5/5=2,38=6/2;
 6/7=2,8=2,9=2,10=2,28=1/1;
 99/5=1,9=1/99;
 ------------------------------------------------------
 Candidate Structure: Conf:535 Charge calc in gas phase
 ------------------------------------------------------
 Structure from the checkpoint file:  "conf-535.chk"
 Charge =  1 Multiplicity = 1
 Redundant internal coordinates found in file.  (old form).
 N,0,-10.1766525931,17.6355107173,12.9430196529
 C,0,-10.2442308949,17.6079012218,11.4305105162
 C,0,-9.3378727232,16.4092834625,11.0577185757
 O,0,-9.0317633219,15.6316729236,11.9645743665
 C,0,-9.8209996133,18.9907366783,10.8913160773
 C,0,-10.5325771495,20.1177301205,11.6135153846
 C,0,-9.884200878,20.8208775038,12.639515397
 C,0,-11.8655959509,20.4265311873,11.3071751158
 C,0,-10.5591588668,21.8227197852,13.3411289061
 C,0,-12.5383460089,21.4269455781,12.0094682702
 C,0,-11.8855099692,22.1261445976,13.0282316644
 H,0,-9.213790255,17.9459997981,13.2376833637
 H,0,-11.2873700645,17.4004030358,11.1682932548
 H,0,-8.7375198016,19.0924152386,11.006158466
 H,0,-10.0525343295,19.0218018344,9.8244077874
 H,0,-8.8505009144,20.5856891952,12.8817618694
 H,0,-12.3742466889,19.8949769461,10.504962669
 H,0,-10.0459650323,22.3687167889,14.1272808189
 H,0,-13.5671092208,21.6659400309,11.7568104175
 H,0,-12.4078993835,22.9077910146,13.5715155036
 H,0,-10.2844672262,16.6781012392,13.3013171547
 H,0,-10.8707610447,18.2802183649,13.3323802786
 N,0,-8.8080700321,16.2947374539,9.818768181
 C,0,-7.693257612,15.3232450863,9.645873421
 C,0,-6.5751498408,15.6788221546,10.6425252941
 O,0,-6.0628323472,14.8547169132,11.3900712004
 C,0,-7.3460219273,15.458726106,8.1513756477
 C,0,-8.684493516,15.865796678,7.5122922782
 C,0,-9.2657568405,16.8572295175,8.5301498589
 H,0,-8.0249905074,14.3159465739,9.908381904
 H,0,-6.5971916187,16.2457831753,8.0030648021
 H,0,-6.9372191151,14.5296026547,7.749459711
 H,0,-8.569204542,16.3134148984,6.5221560241
 H,0,-9.343120524,14.9955214719,7.4205840902
 H,0,-10.3569197761,16.922485188,8.5001628022
 H,0,-8.8509811347,17.8606565788,8.3723048202
 N,0,-6.2435314001,17.0097945541,10.6819299543
 C,0,-5.6004545799,17.5776125536,11.8735663491
 C,0,-6.6796811366,17.4954080301,12.9678379135
 O,0,-7.5146703812,18.3843162397,13.1255994445
 C,0,-5.1233884826,19.0060152201,11.614403237
 C,0,-4.4994258209,19.6840196293,12.8441221434
 C,0,-3.2940496848,18.94578754,13.4412732094
 C,0,-2.6132491451,19.7291678706,14.5830123134
 N,0,-3.4224346129,19.998870726,15.769875764
 O,0,-6.7570365448,16.3740708338,13.6674664756
 H,0,-6.236273313,15.661264562,13.2302493137
 H,0,-6.8208739766,17.6507996179,10.1518355436
 H,0,-4.76147266,16.9289834356,12.1320828691
 H,0,-5.976092411,19.6046563624,11.2666493942
 H,0,-4.3966949043,18.9623921569,10.7944862397
 H,0,-4.1892504078,20.6940770546,12.5463854979
 H,0,-5.2733406198,19.8146577409,13.6108758313
 H,0,-2.5556448836,18.7472867597,12.6506586685
 H,0,-3.6038541277,17.9647654808,13.8334911794
 H,0,-1.7209122544,19.1796645009,14.9052148597
 H,0,-2.2582265368,20.6931500191,14.1953945982
 H,0,-4.2282642533,20.5773950798,15.5439296043
 H,0,-3.7779247577,19.1318691088,16.1693366507
 Recover connectivity data from disk.
                           ----------------------------
                           !    Current Parameters    !
                           ! (Angstroms and Degrees)  !
 --------------------------                            --------------------------
 ! Name  Definition              Value                                          !
 --------------------------------------------------------------------------------
 ! R1    R(1,2)                  1.5143                                         !
 ! R2    R(1,12)                 1.0537                                         !
 ! R3    R(1,21)                 1.0279                                         !
 ! R4    R(1,22)                 1.0242                                         !
 ! R5    R(2,3)                  1.5483                                         !
 ! R6    R(2,5)                  1.5434                                         !
 ! R7    R(2,13)                 1.0954                                         !
 ! R8    R(3,4)                  1.2332                                         !
 ! R9    R(3,23)                 1.3523                                         !
 ! R10   R(5,6)                  1.5159                                         !
 ! R11   R(5,14)                 1.0943                                         !
 ! R12   R(5,15)                 1.0922                                         !
 ! R13   R(6,7)                  1.4027                                         !
 ! R14   R(6,8)                  1.4022                                         !
 ! R15   R(7,9)                  1.397                                          !
 ! R16   R(7,16)                 1.0874                                         !
 ! R17   R(8,10)                 1.3952                                         !
 ! R18   R(8,17)                 1.0885                                         !
 ! R19   R(9,11)                 1.3961                                         !
 ! R20   R(9,18)                 1.0861                                         !
 ! R21   R(10,11)                1.3975                                         !
 ! R22   R(10,19)                1.086                                          !
 ! R23   R(11,20)                1.0858                                         !
 ! R24   R(23,24)                1.4888                                         !
 ! R25   R(23,29)                1.4787                                         !
 ! R26   R(24,25)                1.5395                                         !
 ! R27   R(24,27)                1.5403                                         !
 ! R28   R(24,30)                1.0925                                         !
 ! R29   R(25,26)                1.2249                                         !
 ! R30   R(25,37)                1.3722                                         !
 ! R31   R(27,28)                1.5381                                         !
 ! R32   R(27,31)                1.0964                                         !
 ! R33   R(27,32)                1.0918                                         !
 ! R34   R(28,29)                1.5352                                         !
 ! R35   R(28,33)                1.0927                                         !
 ! R36   R(28,34)                1.0953                                         !
 ! R37   R(29,35)                1.0935                                         !
 ! R38   R(29,36)                1.0972                                         !
 ! R39   R(37,38)                1.4683                                         !
 ! R40   R(37,48)                1.0125                                         !
 ! R41   R(38,39)                1.5391                                         !
 ! R42   R(38,41)                1.5281                                         !
 ! R43   R(38,49)                1.0915                                         !
 ! R44   R(39,40)                1.2297                                         !
 ! R45   R(39,46)                1.324                                          !
 ! R46   R(41,42)                1.5366                                         !
 ! R47   R(41,50)                1.0984                                         !
 ! R48   R(41,51)                1.0965                                         !
 ! R49   R(42,43)                1.5344                                         !
 ! R50   R(42,52)                1.0978                                         !
 ! R51   R(42,53)                1.0972                                         !
 ! R52   R(43,44)                1.543                                          !
 ! R53   R(43,54)                1.0999                                         !
 ! R54   R(43,55)                1.101                                          !
 ! R55   R(44,45)                1.4616                                         !
 ! R56   R(44,56)                1.0964                                         !
 ! R57   R(44,57)                1.098                                          !
 ! R58   R(45,58)                1.0174                                         !
 ! R59   R(45,59)                1.0186                                         !
 ! R60   R(46,47)                0.9851                                         !
 ! A1    A(2,1,12)             108.9939                                         !
 ! A2    A(2,1,21)             109.0562                                         !
 ! A3    A(2,1,22)             111.1581                                         !
 ! A4    A(12,1,21)            105.8318                                         !
 ! A5    A(12,1,22)            109.1155                                         !
 ! A6    A(21,1,22)            112.5004                                         !
 ! A7    A(1,2,3)              103.2082                                         !
 ! A8    A(1,2,5)              108.6856                                         !
 ! A9    A(1,2,13)             106.5617                                         !
 ! A10   A(3,2,5)              116.6783                                         !
 ! A11   A(3,2,13)             110.6818                                         !
 ! A12   A(5,2,13)             110.3174                                         !
 ! A13   A(2,3,4)              117.1557                                         !
 ! A14   A(2,3,23)             121.0313                                         !
 ! A15   A(4,3,23)             121.5376                                         !
 ! A16   A(2,5,6)              111.7735                                         !
 ! A17   A(2,5,14)             108.5481                                         !
 ! A18   A(2,5,15)             107.9762                                         !
 ! A19   A(6,5,14)             110.224                                          !
 ! A20   A(6,5,15)             110.1652                                         !
 ! A21   A(14,5,15)            108.0457                                         !
 ! A22   A(5,6,7)              120.2766                                         !
 ! A23   A(5,6,8)              120.3903                                         !
 ! A24   A(7,6,8)              119.2648                                         !
 ! A25   A(6,7,9)              120.2342                                         !
 ! A26   A(6,7,16)             119.599                                          !
 ! A27   A(9,7,16)             120.1657                                         !
 ! A28   A(6,8,10)             120.42                                           !
 ! A29   A(6,8,17)             119.8487                                         !
 ! A30   A(10,8,17)            119.7226                                         !
 ! A31   A(7,9,11)             120.153                                          !
 ! A32   A(7,9,18)             119.7214                                         !
 ! A33   A(11,9,18)            120.1246                                         !
 ! A34   A(8,10,11)            120.0294                                         !
 ! A35   A(8,10,19)            119.8333                                         !
 ! A36   A(11,10,19)           120.1354                                         !
 ! A37   A(9,11,10)            119.8974                                         !
 ! A38   A(9,11,20)            120.0905                                         !
 ! A39   A(10,11,20)           120.0113                                         !
 ! A40   A(3,23,24)            117.0665                                         !
 ! A41   A(3,23,29)            130.1603                                         !
 ! A42   A(24,23,29)           112.2595                                         !
 ! A43   A(23,24,25)           108.5392                                         !
 ! A44   A(23,24,27)           102.9495                                         !
 ! A45   A(23,24,30)           110.2652                                         !
 ! A46   A(25,24,27)           116.3666                                         !
 ! A47   A(25,24,30)           106.137                                          !
 ! A48   A(27,24,30)           112.5001                                         !
 ! A49   A(24,25,26)           122.9204                                         !
 ! A50   A(24,25,37)           114.7175                                         !
 ! A51   A(26,25,37)           122.273                                          !
 ! A52   A(24,27,28)           103.3123                                         !
 ! A53   A(24,27,31)           110.3863                                         !
 ! A54   A(24,27,32)           111.5156                                         !
 ! A55   A(28,27,31)           110.374                                          !
 ! A56   A(28,27,32)           113.4612                                         !
 ! A57   A(31,27,32)           107.7803                                         !
 ! A58   A(27,28,29)           102.9982                                         !
 ! A59   A(27,28,33)           113.148                                          !
 ! A60   A(27,28,34)           110.353                                          !
 ! A61   A(29,28,33)           112.097                                          !
 ! A62   A(29,28,34)           109.9364                                         !
 ! A63   A(33,28,34)           108.2443                                         !
 ! A64   A(23,29,28)           102.412                                          !
 ! A65   A(23,29,35)           110.8217                                         !
 ! A66   A(23,29,36)           110.8708                                         !
 ! A67   A(28,29,35)           113.4634                                         !
 ! A68   A(28,29,36)           110.6156                                         !
 ! A69   A(35,29,36)           108.5843                                         !
 ! A70   A(25,37,38)           120.2804                                         !
 ! A71   A(25,37,48)           117.4652                                         !
 ! A72   A(38,37,48)           115.4545                                         !
 ! A73   A(37,38,39)           104.4327                                         !
 ! A74   A(37,38,41)           111.1355                                         !
 ! A75   A(37,38,49)           107.4002                                         !
 ! A76   A(39,38,41)           112.918                                          !
 ! A77   A(39,38,49)           109.8059                                         !
 ! A78   A(41,38,49)           110.8347                                         !
 ! A79   A(38,39,40)           121.9184                                         !
 ! A80   A(38,39,46)           117.5102                                         !
 ! A81   A(40,39,46)           120.3151                                         !
 ! A82   A(38,41,42)           113.7963                                         !
 ! A83   A(38,41,50)           108.7111                                         !
 ! A84   A(38,41,51)           107.25                                           !
 ! A85   A(42,41,50)           109.1554                                         !
 ! A86   A(42,41,51)           110.2954                                         !
 ! A87   A(50,41,51)           107.4248                                         !
 ! A88   A(41,42,43)           114.7171                                         !
 ! A89   A(41,42,52)           107.6776                                         !
 ! A90   A(41,42,53)           108.9874                                         !
 ! A91   A(43,42,52)           109.0421                                         !
 ! A92   A(43,42,53)           109.8405                                         !
 ! A93   A(52,42,53)           106.217                                          !
 ! A94   A(42,43,44)           112.9738                                         !
 ! A95   A(42,43,54)           109.5403                                         !
 ! A96   A(42,43,55)           110.2595                                         !
 ! A97   A(44,43,54)           109.1058                                         !
 ! A98   A(44,43,55)           108.2361                                         !
 ! A99   A(54,43,55)           106.5093                                         !
 ! A100  A(43,44,45)           116.7625                                         !
 ! A101  A(43,44,56)           108.7907                                         !
 ! A102  A(43,44,57)           109.0983                                         !
 ! A103  A(45,44,56)           107.7252                                         !
 ! A104  A(45,44,57)           107.679                                          !
 ! A105  A(56,44,57)           106.297                                          !
 ! A106  A(44,45,58)           111.2907                                         !
 ! A107  A(44,45,59)           110.7688                                         !
 ! A108  A(58,45,59)           107.137                                          !
 ! A109  A(39,46,47)           110.3297                                         !
 ! D1    D(12,1,2,3)            70.0664                                         !
 ! D2    D(12,1,2,5)           -54.4204                                         !
 ! D3    D(12,1,2,13)         -173.3008                                         !
 ! D4    D(21,1,2,3)           -45.0305                                         !
 ! D5    D(21,1,2,5)          -169.5172                                         !
 ! D6    D(21,1,2,13)           71.6024                                         !
 ! D7    D(22,1,2,3)          -169.6299                                         !
 ! D8    D(22,1,2,5)            65.8833                                         !
 ! D9    D(22,1,2,13)          -52.997                                          !
 ! D10   D(1,2,3,4)             14.568                                          !
 ! D11   D(1,2,3,23)          -159.4952                                         !
 ! D12   D(5,2,3,4)            133.6602                                         !
 ! D13   D(5,2,3,23)           -40.403                                          !
 ! D14   D(13,2,3,4)           -99.1079                                         !
 ! D15   D(13,2,3,23)           86.829                                          !
 ! D16   D(1,2,5,6)            -48.1173                                         !
 ! D17   D(1,2,5,14)            73.6631                                         !
 ! D18   D(1,2,5,15)          -169.4403                                         !
 ! D19   D(3,2,5,6)           -164.2133                                         !
 ! D20   D(3,2,5,14)           -42.4329                                         !
 ! D21   D(3,2,5,15)            74.4636                                         !
 ! D22   D(13,2,5,6)            68.376                                          !
 ! D23   D(13,2,5,14)         -169.8436                                         !
 ! D24   D(13,2,5,15)          -52.947                                          !
 ! D25   D(2,3,23,24)          164.9645                                         !
 ! D26   D(2,3,23,29)          -23.9838                                         !
 ! D27   D(4,3,23,24)           -8.8366                                         !
 ! D28   D(4,3,23,29)          162.2151                                         !
 ! D29   D(2,5,6,7)             99.5705                                         !
 ! D30   D(2,5,6,8)            -77.403                                          !
 ! D31   D(14,5,6,7)           -21.2398                                         !
 ! D32   D(14,5,6,8)           161.7868                                         !
 ! D33   D(15,5,6,7)          -140.3819                                         !
 ! D34   D(15,5,6,8)            42.6446                                         !
 ! D35   D(5,6,7,9)           -177.3911                                         !
 ! D36   D(5,6,7,16)             2.9805                                         !
 ! D37   D(8,6,7,9)             -0.3837                                         !
 ! D38   D(8,6,7,16)           179.9879                                         !
 ! D39   D(5,6,8,10)           177.3536                                         !
 ! D40   D(5,6,8,17)            -3.7178                                         !
 ! D41   D(7,6,8,10)             0.3497                                         !
 ! D42   D(7,6,8,17)           179.2783                                         !
 ! D43   D(6,7,9,11)             0.2552                                         !
 ! D44   D(6,7,9,18)          -179.3882                                         !
 ! D45   D(16,7,9,11)          179.8814                                         !
 ! D46   D(16,7,9,18)            0.2381                                         !
 ! D47   D(6,8,10,11)           -0.1861                                         !
 ! D48   D(6,8,10,19)          179.3131                                         !
 ! D49   D(17,8,10,11)        -179.116                                          !
 ! D50   D(17,8,10,19)           0.3832                                         !
 ! D51   D(7,9,11,10)           -0.0877                                         !
 ! D52   D(7,9,11,20)         -179.7522                                         !
 ! D53   D(18,9,11,10)         179.5542                                         !
 ! D54   D(18,9,11,20)          -0.1103                                         !
 ! D55   D(8,10,11,9)            0.053                                          !
 ! D56   D(8,10,11,20)         179.7178                                         !
 ! D57   D(19,10,11,9)        -179.4446                                         !
 ! D58   D(19,10,11,20)          0.2201                                         !
 ! D59   D(3,23,24,25)         -55.9415                                         !
 ! D60   D(3,23,24,27)        -179.8423                                         !
 ! D61   D(3,23,24,30)          59.9273                                         !
 ! D62   D(29,23,24,25)        131.4383                                         !
 ! D63   D(29,23,24,27)          7.5375                                         !
 ! D64   D(29,23,24,30)       -112.693                                          !
 ! D65   D(3,23,29,28)        -154.1746                                         !
 ! D66   D(3,23,29,35)         -32.8507                                         !
 ! D67   D(3,23,29,36)          87.8072                                         !
 ! D68   D(24,23,29,28)         17.2181                                         !
 ! D69   D(24,23,29,35)        138.542                                          !
 ! D70   D(24,23,29,36)       -100.8002                                         !
 ! D71   D(23,24,25,26)        129.7142                                         !
 ! D72   D(23,24,25,37)        -46.9199                                         !
 ! D73   D(27,24,25,26)       -114.8164                                         !
 ! D74   D(27,24,25,37)         68.5494                                         !
 ! D75   D(30,24,25,26)         11.2026                                         !
 ! D76   D(30,24,25,37)       -165.4316                                         !
 ! D77   D(23,24,27,28)        -29.2224                                         !
 ! D78   D(23,24,27,31)         88.7858                                         !
 ! D79   D(23,24,27,32)       -151.4339                                         !
 ! D80   D(25,24,27,28)       -147.7842                                         !
 ! D81   D(25,24,27,31)        -29.776                                          !
 ! D82   D(25,24,27,32)         90.0043                                         !
 ! D83   D(30,24,27,28)         89.4585                                         !
 ! D84   D(30,24,27,31)       -152.5333                                         !
 ! D85   D(30,24,27,32)        -32.753                                          !
 ! D86   D(24,25,37,38)        156.9814                                         !
 ! D87   D(24,25,37,48)          7.1646                                         !
 ! D88   D(26,25,37,38)        -19.677                                          !
 ! D89   D(26,25,37,48)       -169.4938                                         !
 ! D90   D(24,27,28,29)         40.2541                                         !
 ! D91   D(24,27,28,33)        161.4897                                         !
 ! D92   D(24,27,28,34)        -77.0607                                         !
 ! D93   D(31,27,28,29)        -77.7627                                         !
 ! D94   D(31,27,28,33)         43.4729                                         !
 ! D95   D(31,27,28,34)        164.9226                                         !
 ! D96   D(32,27,28,29)        161.154                                          !
 ! D97   D(32,27,28,33)        -77.6104                                         !
 ! D98   D(32,27,28,34)         43.8392                                         !
 ! D99   D(27,28,29,23)        -34.8958                                         !
 ! D100  D(27,28,29,35)       -154.3879                                         !
 ! D101  D(27,28,29,36)         83.3034                                         !
 ! D102  D(33,28,29,23)       -156.8436                                         !
 ! D103  D(33,28,29,35)         83.6643                                         !
 ! D104  D(33,28,29,36)        -38.6444                                         !
 ! D105  D(34,28,29,23)         82.713                                          !
 ! D106  D(34,28,29,35)        -36.7791                                         !
 ! D107  D(34,28,29,36)       -159.0878                                         !
 ! D108  D(25,37,38,39)        -67.0191                                         !
 ! D109  D(25,37,38,41)        170.9352                                         !
 ! D110  D(25,37,38,49)         49.552                                          !
 ! D111  D(48,37,38,39)         83.3731                                         !
 ! D112  D(48,37,38,41)        -38.6726                                         !
 ! D113  D(48,37,38,49)       -160.0558                                         !
 ! D114  D(37,38,39,40)        -86.8263                                         !
 ! D115  D(37,38,39,46)         87.3719                                         !
 ! D116  D(41,38,39,40)         34.0404                                         !
 ! D117  D(41,38,39,46)       -151.7613                                         !
 ! D118  D(49,38,39,40)        158.2828                                         !
 ! D119  D(49,38,39,46)        -27.519                                          !
 ! D120  D(37,38,41,42)        177.2531                                         !
 ! D121  D(37,38,41,50)         55.3835                                         !
 ! D122  D(37,38,41,51)        -60.4796                                         !
 ! D123  D(39,38,41,42)         60.2808                                         !
 ! D124  D(39,38,41,50)        -61.5888                                         !
 ! D125  D(39,38,41,51)       -177.4519                                         !
 ! D126  D(49,38,41,42)        -63.3959                                         !
 ! D127  D(49,38,41,50)        174.7345                                         !
 ! D128  D(49,38,41,51)         58.8714                                         !
 ! D129  D(38,39,46,47)        -13.691                                          !
 ! D130  D(40,39,46,47)        160.6047                                         !
 ! D131  D(38,41,42,43)         58.1021                                         !
 ! D132  D(38,41,42,52)        179.6812                                         !
 ! D133  D(38,41,42,53)        -65.5065                                         !
 ! D134  D(50,41,42,43)        179.7254                                         !
 ! D135  D(50,41,42,52)        -58.6955                                         !
 ! D136  D(50,41,42,53)         56.1167                                         !
 ! D137  D(51,41,42,43)        -62.4705                                         !
 ! D138  D(51,41,42,52)         59.1086                                         !
 ! D139  D(51,41,42,53)        173.9209                                         !
 ! D140  D(41,42,43,44)        174.2664                                         !
 ! D141  D(41,42,43,54)         52.4165                                         !
 ! D142  D(41,42,43,55)        -64.4827                                         !
 ! D143  D(52,42,43,44)         53.435                                          !
 ! D144  D(52,42,43,54)        -68.415                                          !
 ! D145  D(52,42,43,55)        174.6858                                         !
 ! D146  D(53,42,43,44)        -62.5812                                         !
 ! D147  D(53,42,43,54)        175.5688                                         !
 ! D148  D(53,42,43,55)         58.6696                                         !
 ! D149  D(42,43,44,45)         62.1979                                         !
 ! D150  D(42,43,44,56)       -175.6774                                         !
 ! D151  D(42,43,44,57)        -60.1153                                         !
 ! D152  D(54,43,44,45)       -175.7081                                         !
 ! D153  D(54,43,44,56)        -53.5834                                         !
 ! D154  D(54,43,44,57)         61.9787                                         !
 ! D155  D(55,43,44,45)        -60.1917                                         !
 ! D156  D(55,43,44,56)         61.933                                          !
 ! D157  D(55,43,44,57)        177.4952                                         !
 ! D158  D(43,44,45,58)        -62.1531                                         !
 ! D159  D(43,44,45,59)         56.9255                                         !
 ! D160  D(56,44,45,58)        175.1683                                         !
 ! D161  D(56,44,45,59)        -65.7531                                         !
 ! D162  D(57,44,45,58)         60.8956                                         !
 ! D163  D(57,44,45,59)        179.9741                                         !
 --------------------------------------------------------------------------------
 Symmetry turned off by external request.
 Stoichiometry    C20H31N4O4(1+)
 Framework group  C1[X(C20H31N4O4)]
 Deg. of freedom   171
 Full point group                 C1      NOp   1
                          Input orientation:                          
 ---------------------------------------------------------------------
 Center     Atomic      Atomic             Coordinates (Angstroms)
 Number     Number       Type             X           Y           Z
 ---------------------------------------------------------------------
      1          7           0      -10.176653   17.635511   12.943020
      2          6           0      -10.244231   17.607901   11.430511
      3          6           0       -9.337873   16.409283   11.057719
      4          8           0       -9.031763   15.631673   11.964574
      5          6           0       -9.821000   18.990737   10.891316
      6          6           0      -10.532577   20.117730   11.613515
      7          6           0       -9.884201   20.820878   12.639515
      8          6           0      -11.865596   20.426531   11.307175
      9          6           0      -10.559159   21.822720   13.341129
     10          6           0      -12.538346   21.426946   12.009468
     11          6           0      -11.885510   22.126145   13.028232
     12          1           0       -9.213790   17.946000   13.237683
     13          1           0      -11.287370   17.400403   11.168293
     14          1           0       -8.737520   19.092415   11.006158
     15          1           0      -10.052534   19.021802    9.824408
     16          1           0       -8.850501   20.585689   12.881762
     17          1           0      -12.374247   19.894977   10.504963
     18          1           0      -10.045965   22.368717   14.127281
     19          1           0      -13.567109   21.665940   11.756810
     20          1           0      -12.407899   22.907791   13.571516
     21          1           0      -10.284467   16.678101   13.301317
     22          1           0      -10.870761   18.280218   13.332380
     23          7           0       -8.808070   16.294737    9.818768
     24          6           0       -7.693258   15.323245    9.645873
     25          6           0       -6.575150   15.678822   10.642525
     26          8           0       -6.062832   14.854717   11.390071
     27          6           0       -7.346022   15.458726    8.151376
     28          6           0       -8.684494   15.865797    7.512292
     29          6           0       -9.265757   16.857230    8.530150
     30          1           0       -8.024991   14.315947    9.908382
     31          1           0       -6.597192   16.245783    8.003065
     32          1           0       -6.937219   14.529603    7.749460
     33          1           0       -8.569205   16.313415    6.522156
     34          1           0       -9.343121   14.995521    7.420584
     35          1           0      -10.356920   16.922485    8.500163
     36          1           0       -8.850981   17.860657    8.372305
     37          7           0       -6.243531   17.009795   10.681930
     38          6           0       -5.600455   17.577613   11.873566
     39          6           0       -6.679681   17.495408   12.967838
     40          8           0       -7.514670   18.384316   13.125599
     41          6           0       -5.123388   19.006015   11.614403
     42          6           0       -4.499426   19.684020   12.844122
     43          6           0       -3.294050   18.945788   13.441273
     44          6           0       -2.613249   19.729168   14.583012
     45          7           0       -3.422435   19.998871   15.769876
     46          8           0       -6.757037   16.374071   13.667466
     47          1           0       -6.236273   15.661265   13.230249
     48          1           0       -6.820874   17.650800   10.151836
     49          1           0       -4.761473   16.928983   12.132083
     50          1           0       -5.976092   19.604656   11.266649
     51          1           0       -4.396695   18.962392   10.794486
     52          1           0       -4.189250   20.694077   12.546385
     53          1           0       -5.273341   19.814658   13.610876
     54          1           0       -2.555645   18.747287   12.650659
     55          1           0       -3.603854   17.964765   13.833491
     56          1           0       -1.720912   19.179665   14.905215
     57          1           0       -2.258227   20.693150   14.195395
     58          1           0       -4.228264   20.577395   15.543930
     59          1           0       -3.777925   19.131869   16.169337
 ---------------------------------------------------------------------
 Rotational constants (GHZ):           0.1758283           0.1453582           0.0924775
 Standard basis: 6-31G(d) (6D, 7F)
   482 basis functions,   908 primitive gaussians,   482 cartesian basis functions
   105 alpha electrons      105 beta electrons
       nuclear repulsion energy      2881.4483494330 Hartrees.
 NAtoms=   59 NActive=   59 NUniq=   59 SFac= 1.00D+00 NAtFMM=   60 NAOKFM=F Big=F
 Integral buffers will be    131072 words long.
 Raffenetti 2 integral format.
 Two-electron integral symmetry is turned off.
 Nuclear repulsion after empirical dispersion term =     2881.3699755861 Hartrees.
 One-electron integrals computed using PRISM.
 NBasis=   482 RedAO= T EigKep=  4.67D-04  NBF=   482
 NBsUse=   482 1.00D-06 EigRej= -1.00D+00 NBFU=   482
 Initial guess from the checkpoint file:  "conf-535.chk"
 B after Tr=     0.000000    0.000000    0.000000
         Rot=    1.000000    0.000000    0.000000    0.000000 Ang=   0.00 deg.
 Requested convergence on RMS density matrix=1.00D-08 within 128 cycles.
 Requested convergence on MAX density matrix=1.00D-06.
 Requested convergence on             energy=1.00D-06.
 No special actions if energy rises.
 SCF Done:  E(RB3LYP) =  -1300.60331307     A.U. after    2 cycles
            NFock=  2  Conv=0.89D-08     -V/T= 2.0095

 **********************************************************************

            Population analysis using the SCF Density.

 **********************************************************************

 Alpha  occ. eigenvalues --  -19.31795 -19.27858 -19.26714 -19.24925 -14.58257
 Alpha  occ. eigenvalues --  -14.51154 -14.49379 -14.38208 -10.45509 -10.44049
 Alpha  occ. eigenvalues --  -10.41938 -10.40941 -10.36482 -10.36246 -10.36179
 Alpha  occ. eigenvalues --  -10.34099 -10.31979 -10.31841 -10.31756 -10.30636
 Alpha  occ. eigenvalues --  -10.30376 -10.30285 -10.30064 -10.30000 -10.29786
 Alpha  occ. eigenvalues --  -10.28107 -10.27893 -10.26701  -1.23464  -1.19544
 Alpha  occ. eigenvalues --   -1.16722  -1.14996  -1.12929  -1.08786  -1.05625
 Alpha  occ. eigenvalues --   -0.97549  -0.95138  -0.94168  -0.91889  -0.91608
 Alpha  occ. eigenvalues --   -0.88545  -0.86379  -0.85664  -0.84456  -0.80235
 Alpha  occ. eigenvalues --   -0.79026  -0.78067  -0.74976  -0.73783  -0.73136
 Alpha  occ. eigenvalues --   -0.72306  -0.72125  -0.71547  -0.70988  -0.69897
 Alpha  occ. eigenvalues --   -0.69203  -0.67673  -0.66429  -0.63935  -0.63174
 Alpha  occ. eigenvalues --   -0.62965  -0.62553  -0.61601  -0.60368  -0.59324
 Alpha  occ. eigenvalues --   -0.58169  -0.57594  -0.57192  -0.56703  -0.56510
 Alpha  occ. eigenvalues --   -0.56023  -0.55533  -0.55060  -0.54544  -0.53892
 Alpha  occ. eigenvalues --   -0.53401  -0.53131  -0.52705  -0.52295  -0.51878
 Alpha  occ. eigenvalues --   -0.51378  -0.51000  -0.50330  -0.49682  -0.49390
 Alpha  occ. eigenvalues --   -0.48505  -0.47985  -0.47263  -0.47237  -0.46814
 Alpha  occ. eigenvalues --   -0.45615  -0.45247  -0.45048  -0.44518  -0.44182
 Alpha  occ. eigenvalues --   -0.42500  -0.42014  -0.40985  -0.40745  -0.40051
 Alpha  occ. eigenvalues --   -0.37954  -0.37685  -0.36374  -0.36066  -0.30098
 Alpha virt. eigenvalues --   -0.14443  -0.13720  -0.11940  -0.11632  -0.11197
 Alpha virt. eigenvalues --   -0.07359  -0.06969  -0.04750  -0.02972  -0.02771
 Alpha virt. eigenvalues --   -0.01963  -0.01275  -0.00666   0.00051   0.00196
 Alpha virt. eigenvalues --    0.00948   0.01438   0.01596   0.01978   0.02134
 Alpha virt. eigenvalues --    0.03188   0.03738   0.04078   0.04596   0.04858
 Alpha virt. eigenvalues --    0.04993   0.05105   0.05847   0.06141   0.06418
 Alpha virt. eigenvalues --    0.06724   0.07359   0.08042   0.08283   0.08531
 Alpha virt. eigenvalues --    0.08993   0.09349   0.09722   0.10346   0.10555
 Alpha virt. eigenvalues --    0.10810   0.11011   0.11630   0.12498   0.13041
 Alpha virt. eigenvalues --    0.13065   0.14346   0.14914   0.15525   0.16031
 Alpha virt. eigenvalues --    0.16278   0.17155   0.18304   0.19888   0.20520
 Alpha virt. eigenvalues --    0.20820   0.21438   0.22428   0.23654   0.24228
 Alpha virt. eigenvalues --    0.24785   0.27318   0.27971   0.28593   0.32635
 Alpha virt. eigenvalues --    0.34089   0.35739   0.37669   0.38522   0.39124
 Alpha virt. eigenvalues --    0.39936   0.40390   0.41578   0.41808   0.42548
 Alpha virt. eigenvalues --    0.43142   0.43321   0.43395   0.44162   0.44416
 Alpha virt. eigenvalues --    0.45448   0.45986   0.46272   0.47231   0.47784
 Alpha virt. eigenvalues --    0.48415   0.48942   0.49404   0.49482   0.49705
 Alpha virt. eigenvalues --    0.50302   0.50867   0.51009   0.51172   0.51560
 Alpha virt. eigenvalues --    0.51696   0.52006   0.52393   0.53689   0.54108
 Alpha virt. eigenvalues --    0.54517   0.55335   0.55424   0.56781   0.57030
 Alpha virt. eigenvalues --    0.58432   0.59001   0.60338   0.60408   0.61879
 Alpha virt. eigenvalues --    0.62260   0.62929   0.63872   0.64401   0.66149
 Alpha virt. eigenvalues --    0.66518   0.67142   0.67550   0.67840   0.68866
 Alpha virt. eigenvalues --    0.69419   0.70322   0.71261   0.71886   0.72118
 Alpha virt. eigenvalues --    0.72348   0.72886   0.73303   0.73799   0.74114
 Alpha virt. eigenvalues --    0.74485   0.74707   0.75322   0.75874   0.75921
 Alpha virt. eigenvalues --    0.76032   0.77067   0.77445   0.77687   0.78981
 Alpha virt. eigenvalues --    0.79736   0.80026   0.80386   0.80752   0.81355
 Alpha virt. eigenvalues --    0.81446   0.82608   0.82891   0.83656   0.84135
 Alpha virt. eigenvalues --    0.84485   0.85263   0.85553   0.86207   0.87294
 Alpha virt. eigenvalues --    0.87686   0.87928   0.88486   0.90119   0.90698
 Alpha virt. eigenvalues --    0.91886   0.91947   0.92461   0.93088   0.93656
 Alpha virt. eigenvalues --    0.94504   0.96275   0.96950   0.97440   0.98278
 Alpha virt. eigenvalues --    1.00294   1.01450   1.02047   1.02406   1.03687
 Alpha virt. eigenvalues --    1.04848   1.05472   1.06210   1.07432   1.08319
 Alpha virt. eigenvalues --    1.09369   1.10534   1.11986   1.14360   1.14702
 Alpha virt. eigenvalues --    1.15350   1.16932   1.17082   1.20292   1.21315
 Alpha virt. eigenvalues --    1.22990   1.24165   1.24796   1.25423   1.26160
 Alpha virt. eigenvalues --    1.28355   1.29931   1.30231   1.31041   1.32523
 Alpha virt. eigenvalues --    1.33055   1.33774   1.34116   1.34940   1.36988
 Alpha virt. eigenvalues --    1.37902   1.38440   1.39215   1.39404   1.40260
 Alpha virt. eigenvalues --    1.41962   1.44231   1.44761   1.45492   1.47256
 Alpha virt. eigenvalues --    1.49066   1.50157   1.50688   1.52772   1.55323
 Alpha virt. eigenvalues --    1.57928   1.59291   1.59922   1.60415   1.61198
 Alpha virt. eigenvalues --    1.62321   1.63543   1.63925   1.64561   1.65625
 Alpha virt. eigenvalues --    1.67048   1.67772   1.68568   1.68999   1.69917
 Alpha virt. eigenvalues --    1.70702   1.71079   1.72419   1.72762   1.73611
 Alpha virt. eigenvalues --    1.74198   1.75294   1.76535   1.77056   1.77536
 Alpha virt. eigenvalues --    1.78552   1.78863   1.79505   1.80017   1.82060
 Alpha virt. eigenvalues --    1.82546   1.83372   1.84573   1.85428   1.85846
 Alpha virt. eigenvalues --    1.86332   1.87635   1.88011   1.88542   1.89859
 Alpha virt. eigenvalues --    1.91020   1.91379   1.92522   1.92726   1.93561
 Alpha virt. eigenvalues --    1.94505   1.95089   1.95454   1.95579   1.96271
 Alpha virt. eigenvalues --    1.97071   1.97821   1.99518   2.00187   2.01068
 Alpha virt. eigenvalues --    2.01508   2.02975   2.03631   2.04310   2.05909
 Alpha virt. eigenvalues --    2.06380   2.07873   2.09122   2.10027   2.11463
 Alpha virt. eigenvalues --    2.11669   2.13260   2.14755   2.16348   2.17551
 Alpha virt. eigenvalues --    2.19366   2.19511   2.20011   2.20954   2.22298
 Alpha virt. eigenvalues --    2.23567   2.25278   2.26500   2.27613   2.27815
 Alpha virt. eigenvalues --    2.28977   2.30307   2.32141   2.33094   2.34131
 Alpha virt. eigenvalues --    2.34641   2.37645   2.37898   2.39784   2.40543
 Alpha virt. eigenvalues --    2.41392   2.42208   2.43814   2.45064   2.46578
 Alpha virt. eigenvalues --    2.46841   2.48109   2.49791   2.50470   2.50727
 Alpha virt. eigenvalues --    2.51844   2.53764   2.54367   2.54855   2.58111
 Alpha virt. eigenvalues --    2.59233   2.60205   2.61417   2.62126   2.63029
 Alpha virt. eigenvalues --    2.63120   2.64419   2.65521   2.66323   2.67024
 Alpha virt. eigenvalues --    2.69693   2.73105   2.78360   2.80194   2.84488
 Alpha virt. eigenvalues --    2.85841   2.90359   2.91406   2.92676   2.94172
 Alpha virt. eigenvalues --    2.97158   3.02284   3.06309   3.29516   3.70808
 Alpha virt. eigenvalues --    3.72008   3.84985   3.89644   3.93668   3.95558
 Alpha virt. eigenvalues --    3.98546   4.00977   4.05704   4.07627   4.08903
 Alpha virt. eigenvalues --    4.13056   4.13579   4.18764   4.21363   4.22204
 Alpha virt. eigenvalues --    4.23966   4.26285   4.29915   4.34451   4.38749
 Alpha virt. eigenvalues --    4.40989   4.43813   4.44746   4.51183   4.55973
 Alpha virt. eigenvalues --    4.59308   4.63677
          Condensed to atoms (all electrons):
 Mulliken charges:
               1
     1  N   -0.755394
     2  C   -0.114949
     3  C    0.624048
     4  O   -0.515668
     5  C   -0.385022
     6  C    0.115753
     7  C   -0.216931
     8  C   -0.187219
     9  C   -0.126715
    10  C   -0.125994
    11  C   -0.123858
    12  H    0.447943
    13  H    0.218632
    14  H    0.182221
    15  H    0.189195
    16  H    0.169265
    17  H    0.137353
    18  H    0.163639
    19  H    0.164713
    20  H    0.167020
    21  H    0.420607
    22  H    0.408792
    23  N   -0.485555
    24  C   -0.022779
    25  C    0.616799
    26  O   -0.515936
    27  C   -0.321044
    28  C   -0.299733
    29  C   -0.149763
    30  H    0.213519
    31  H    0.170127
    32  H    0.202053
    33  H    0.187544
    34  H    0.183303
    35  H    0.180610
    36  H    0.170523
    37  N   -0.593857
    38  C   -0.060889
    39  C    0.643435
    40  O   -0.526162
    41  C   -0.286696
    42  C   -0.279836
    43  C   -0.271797
    44  C   -0.147646
    45  N   -0.699128
    46  O   -0.548518
    47  H    0.462549
    48  H    0.337598
    49  H    0.202475
    50  H    0.142827
    51  H    0.172019
    52  H    0.157417
    53  H    0.141848
    54  H    0.142217
    55  H    0.120700
    56  H    0.159539
    57  H    0.152325
    58  H    0.297220
    59  H    0.295259
 Sum of Mulliken charges =   1.00000
 Mulliken charges with hydrogens summed into heavy atoms:
               1
     1  N    0.521947
     2  C    0.103683
     3  C    0.624048
     4  O   -0.515668
     5  C   -0.013605
     6  C    0.115753
     7  C   -0.047665
     8  C   -0.049866
     9  C    0.036924
    10  C    0.038719
    11  C    0.043162
    23  N   -0.485555
    24  C    0.190740
    25  C    0.616799
    26  O   -0.515936
    27  C    0.051136
    28  C    0.071113
    29  C    0.201371
    37  N   -0.256258
    38  C    0.141586
    39  C    0.643435
    40  O   -0.526162
    41  C    0.028151
    42  C    0.019429
    43  C   -0.008881
    44  C    0.164218
    45  N   -0.106649
    46  O   -0.085969
 Electronic spatial extent (au):  <R**2>=         407523.0570
 Charge=              1.0000 electrons
 Dipole moment (field-independent basis, Debye):
    X=            -45.2217    Y=             86.8687    Z=             51.9209  Tot=            110.8465
 Quadrupole moment (field-independent basis, Debye-Ang):
   XX=            291.9270   YY=           1416.4841   ZZ=            418.2063
   XY=           -825.3641   XZ=           -502.9046   YZ=            951.4062
 Traceless Quadrupole moment (field-independent basis, Debye-Ang):
   XX=           -416.9455   YY=            707.6117   ZZ=           -290.6662
   XY=           -825.3641   XZ=           -502.9046   YZ=            951.4062
 Octapole moment (field-independent basis, Debye-Ang**2):
  XXX=           -966.4293  YYY=          20034.0114  ZZZ=            917.8795  XYY=         -13913.6041
  XXY=           5413.4856  XXZ=           3247.2214  XZZ=          -4556.3447  YZZ=           7769.6065
  YYZ=          15602.1113  XYZ=          -9331.6286
 Hexadecapole moment (field-independent basis, Debye-Ang**3):
 XXXX=         -15172.9673 YYYY=         206664.8264 ZZZZ=         -61623.9140 XXXY=         -19028.8794
 XXXZ=         -11166.4028 YYYX=        -212164.5747 YYYZ=         219279.9062 ZZZX=         -25870.5345
 ZZZY=          17650.3886 XXYY=          89991.3098 XXZZ=          26527.5554 YYZZ=         121348.6345
 XXYZ=          61367.7496 YYXZ=        -159873.6004 ZZXY=         -86242.9659
 N-N= 2.881369975586D+03 E-N=-8.763001891786D+03  KE= 1.288384171357D+03
 Unable to Open any file for archive entry.
 1\1\GINC-LAC-304\SP\RB3LYP\6-31G(d)\C20H31N4O4(1+)\KENGMITH\25-May-202
 2\0\\# B3LYP/6-31G* empiricaldispersion=gd3 guess=read geom=check nosy
 mm integral(ultrafinegrid)\\Candidate Structure: Conf:535 Charge calc 
 in gas phase\\1,1\N,0,-10.1766525931,17.6355107173,12.9430196529\C,0,-
 10.2442308949,17.6079012218,11.4305105162\C,0,-9.3378727232,16.4092834
 625,11.0577185757\O,0,-9.0317633219,15.6316729236,11.9645743665\C,0,-9
 .8209996133,18.9907366783,10.8913160773\C,0,-10.5325771495,20.11773012
 05,11.6135153846\C,0,-9.884200878,20.8208775038,12.639515397\C,0,-11.8
 655959509,20.4265311873,11.3071751158\C,0,-10.5591588668,21.8227197852
 ,13.3411289061\C,0,-12.5383460089,21.4269455781,12.0094682702\C,0,-11.
 8855099692,22.1261445976,13.0282316644\H,0,-9.213790255,17.9459997981,
 13.2376833637\H,0,-11.2873700645,17.4004030358,11.1682932548\H,0,-8.73
 75198016,19.0924152386,11.006158466\H,0,-10.0525343295,19.0218018344,9
 .8244077874\H,0,-8.8505009144,20.5856891952,12.8817618694\H,0,-12.3742
 466889,19.8949769461,10.504962669\H,0,-10.0459650323,22.3687167889,14.
 1272808189\H,0,-13.5671092208,21.6659400309,11.7568104175\H,0,-12.4078
 993835,22.9077910146,13.5715155036\H,0,-10.2844672262,16.6781012392,13
 .3013171547\H,0,-10.8707610447,18.2802183649,13.3323802786\N,0,-8.8080
 700321,16.2947374539,9.818768181\C,0,-7.693257612,15.3232450863,9.6458
 73421\C,0,-6.5751498408,15.6788221546,10.6425252941\O,0,-6.0628323472,
 14.8547169132,11.3900712004\C,0,-7.3460219273,15.458726106,8.151375647
 7\C,0,-8.684493516,15.865796678,7.5122922782\C,0,-9.2657568405,16.8572
 295175,8.5301498589\H,0,-8.0249905074,14.3159465739,9.908381904\H,0,-6
 .5971916187,16.2457831753,8.0030648021\H,0,-6.9372191151,14.5296026547
 ,7.749459711\H,0,-8.569204542,16.3134148984,6.5221560241\H,0,-9.343120
 524,14.9955214719,7.4205840902\H,0,-10.3569197761,16.922485188,8.50016
 28022\H,0,-8.8509811347,17.8606565788,8.3723048202\N,0,-6.2435314001,1
 7.0097945541,10.6819299543\C,0,-5.6004545799,17.5776125536,11.87356634
 91\C,0,-6.6796811366,17.4954080301,12.9678379135\O,0,-7.5146703812,18.
 3843162397,13.1255994445\C,0,-5.1233884826,19.0060152201,11.614403237\
 C,0,-4.4994258209,19.6840196293,12.8441221434\C,0,-3.2940496848,18.945
 78754,13.4412732094\C,0,-2.6132491451,19.7291678706,14.5830123134\N,0,
 -3.4224346129,19.998870726,15.769875764\O,0,-6.7570365448,16.374070833
 8,13.6674664756\H,0,-6.236273313,15.661264562,13.2302493137\H,0,-6.820
 8739766,17.6507996179,10.1518355436\H,0,-4.76147266,16.9289834356,12.1
 320828691\H,0,-5.976092411,19.6046563624,11.2666493942\H,0,-4.39669490
 43,18.9623921569,10.7944862397\H,0,-4.1892504078,20.6940770546,12.5463
 854979\H,0,-5.2733406198,19.8146577409,13.6108758313\H,0,-2.5556448836
 ,18.7472867597,12.6506586685\H,0,-3.6038541277,17.9647654808,13.833491
 1794\H,0,-1.7209122544,19.1796645009,14.9052148597\H,0,-2.2582265368,2
 0.6931500191,14.1953945982\H,0,-4.2282642533,20.5773950798,15.54392960
 43\H,0,-3.7779247577,19.1318691088,16.1693366507\\Version=ES64L-G16Rev
 C.01\HF=-1300.6033131\RMSD=8.919e-09\Dipole=-2.9969459,-0.029879,-1.80
 74353\Quadrupole=-309.9887611,526.0919437,-216.1031827,-613.638009,-37
 3.8972797,707.3472224\PG=C01 [X(C20H31N4O4)]\\@
 The archive entry for this job was punched.


 Statistics are no substitute for judgment.
                            -- Henry Clay
 Job cpu time:       0 days  0 hours  2 minutes  7.1 seconds.
 Elapsed time:       0 days  0 hours  0 minutes 32.4 seconds.
 File lengths (MBytes):  RWF=    240 Int=      0 D2E=      0 Chk=     32 Scr=     16
 Normal termination of Gaussian 16 at Wed May 25 19:10:14 2022.
