 Entering Gaussian System, Link 0=/opt/software/Gaussian/g16-AVX2-C.01/g16/g16
 Input=charge-conf-879.com
 Output=charge-conf-879.log
 Initial command:
 /opt/software/Gaussian/g16-AVX2-C.01/g16/l1.exe "/mnt/gs18/scratch/users/kengmith/Gau-377.inp" -scrdir="/mnt/gs18/scratch/users/kengmith/"
 Entering Link 1 = /opt/software/Gaussian/g16-AVX2-C.01/g16/l1.exe PID=       387.
  
 Copyright (c) 1988-2019, Gaussian, Inc.  All Rights Reserved.
  
 This is part of the Gaussian(R) 16 program.  It is based on
 the Gaussian(R) 09 system (copyright 2009, Gaussian, Inc.),
 the Gaussian(R) 03 system (copyright 2003, Gaussian, Inc.),
 the Gaussian(R) 98 system (copyright 1998, Gaussian, Inc.),
 the Gaussian(R) 94 system (copyright 1995, Gaussian, Inc.),
 the Gaussian 92(TM) system (copyright 1992, Gaussian, Inc.),
 the Gaussian 90(TM) system (copyright 1990, Gaussian, Inc.),
 the Gaussian 88(TM) system (copyright 1988, Gaussian, Inc.),
 the Gaussian 86(TM) system (copyright 1986, Carnegie Mellon
 University), and the Gaussian 82(TM) system (copyright 1983,
 Carnegie Mellon University). Gaussian is a federally registered
 trademark of Gaussian, Inc.
  
 This software contains proprietary and confidential information,
 including trade secrets, belonging to Gaussian, Inc.
  
 This software is provided under written license and may be
 used, copied, transmitted, or stored only in accord with that
 written license.
  
 The following legend is applicable only to US Government
 contracts under FAR:
  
                    RESTRICTED RIGHTS LEGEND
  
 Use, reproduction and disclosure by the US Government is
 subject to restrictions as set forth in subparagraphs (a)
 and (c) of the Commercial Computer Software - Restricted
 Rights clause in FAR 52.227-19.
  
 Gaussian, Inc.
 340 Quinnipiac St., Bldg. 40, Wallingford CT 06492
  
  
 ---------------------------------------------------------------
 Warning -- This program may not be used in any manner that
 competes with the business of Gaussian, Inc. or will provide
 assistance to any competitor of Gaussian, Inc.  The licensee
 of this program is prohibited from giving any competitor of
 Gaussian, Inc. access to this program.  By using this program,
 the user acknowledges that Gaussian, Inc. is engaged in the
 business of creating and licensing software in the field of
 computational chemistry and represents and warrants to the
 licensee that it is not a competitor of Gaussian, Inc. and that
 it will not use this program in any manner prohibited above.
 ---------------------------------------------------------------
  

 Cite this work as:
 Gaussian 16, Revision C.01,
 M. J. Frisch, G. W. Trucks, H. B. Schlegel, G. E. Scuseria, 
 M. A. Robb, J. R. Cheeseman, G. Scalmani, V. Barone, 
 G. A. Petersson, H. Nakatsuji, X. Li, M. Caricato, A. V. Marenich, 
 J. Bloino, B. G. Janesko, R. Gomperts, B. Mennucci, H. P. Hratchian, 
 J. V. Ortiz, A. F. Izmaylov, J. L. Sonnenberg, D. Williams-Young, 
 F. Ding, F. Lipparini, F. Egidi, J. Goings, B. Peng, A. Petrone, 
 T. Henderson, D. Ranasinghe, V. G. Zakrzewski, J. Gao, N. Rega, 
 G. Zheng, W. Liang, M. Hada, M. Ehara, K. Toyota, R. Fukuda, 
 J. Hasegawa, M. Ishida, T. Nakajima, Y. Honda, O. Kitao, H. Nakai, 
 T. Vreven, K. Throssell, J. A. Montgomery, Jr., J. E. Peralta, 
 F. Ogliaro, M. J. Bearpark, J. J. Heyd, E. N. Brothers, K. N. Kudin, 
 V. N. Staroverov, T. A. Keith, R. Kobayashi, J. Normand, 
 K. Raghavachari, A. P. Rendell, J. C. Burant, S. S. Iyengar, 
 J. Tomasi, M. Cossi, J. M. Millam, M. Klene, C. Adamo, R. Cammi, 
 J. W. Ochterski, R. L. Martin, K. Morokuma, O. Farkas, 
 J. B. Foresman, and D. J. Fox, Gaussian, Inc., Wallingford CT, 2019.
 
 ******************************************
 Gaussian 16:  ES64L-G16RevC.01  3-Jul-2019
                25-May-2022 
 ******************************************
 %mem=8gb
 %nproc=4
 Will use up to    4 processors via shared memory.
 %chk=conf-879.chk
 ----------------------------------------------------------------------
 # B3LYP/6-31G* empiricaldispersion=gd3 guess=read geom=check nosymm in
 tegral(ultrafinegrid)
 ----------------------------------------------------------------------
 1/29=2,38=1,172=1/1;
 2/12=2,15=1,40=1/2;
 3/5=1,6=6,7=1,11=2,14=-4,25=1,30=1,74=-5,75=-5,116=-2,124=31/1,2,3;
 4/5=1/1;
 5/5=2,38=6/2;
 6/7=2,8=2,9=2,10=2,28=1/1;
 99/5=1,9=1/99;
 ------------------------------------------------------
 Candidate Structure: Conf:879 Charge calc in gas phase
 ------------------------------------------------------
 Structure from the checkpoint file:  "conf-879.chk"
 Charge =  1 Multiplicity = 1
 Redundant internal coordinates found in file.  (old form).
 N,0,-7.1804720197,16.2909477522,9.8680426515
 C,0,-7.2698806456,17.6727993847,9.2507328591
 C,0,-6.4184088187,18.5142331885,10.248121558
 O,0,-5.5383013346,17.8849593204,10.8501690809
 C,0,-8.7530651767,17.997608408,8.9862847032
 C,0,-9.4670650671,16.833713188,8.3245517375
 C,0,-10.2465084326,15.9522447642,9.088119267
 C,0,-9.3063796177,16.590838434,6.9531444637
 C,0,-10.8608373258,14.8515996217,8.4862935992
 C,0,-9.91953057,15.4901951138,6.3531176861
 C,0,-10.6978400858,14.6187337631,7.11928054
 H,0,-7.7893063501,16.2648546056,10.7119281346
 H,0,-6.7263719645,17.6107511936,8.3016446429
 H,0,-9.2413156667,18.2504133341,9.9326381155
 H,0,-8.7964468163,18.8728831688,8.334447332
 H,0,-10.3733271576,16.1337623683,10.1532656742
 H,0,-8.7140359884,17.2747063897,6.3482674628
 H,0,-11.4725433872,14.1815450973,9.0834502413
 H,0,-9.7971640345,15.3183484041,5.2878624992
 H,0,-11.1797697986,13.7658794414,6.6509169466
 H,0,-6.2064809404,16.1876695394,10.2009786401
 H,0,-7.4699268042,15.5603203238,9.2126356804
 N,0,-6.6651654356,19.8111167287,10.5187734984
 C,0,-5.9447041502,20.3948975285,11.6808276323
 C,0,-6.4255595451,19.7788450859,13.0145817574
 O,0,-5.7421381968,19.905482745,14.0212668825
 C,0,-6.2233249143,21.9030214977,11.565860443
 C,0,-7.5776009306,21.9660759532,10.8466761882
 C,0,-7.495264301,20.8240599265,9.8234606496
 H,0,-4.8814134677,20.1586570131,11.6247142026
 H,0,-6.2233850695,22.3844547824,12.5461287103
 H,0,-5.4433629503,22.3743059804,10.9584576613
 H,0,-8.3916680835,21.7693415575,11.5537248476
 H,0,-7.7712271777,22.9282705326,10.3668207637
 H,0,-6.9911194507,21.1417434041,8.9028425214
 H,0,-8.4799963254,20.4383230092,9.5679692964
 N,0,-7.6253934993,19.1392891843,12.9725587062
 C,0,-8.0831745104,18.2437741871,14.0207868951
 C,0,-8.7245820022,17.0517857247,13.3621090689
 O,0,-8.7398371172,16.8262086599,12.148207262
 C,0,-8.9862072354,18.9357797484,15.0789324677
 C,0,-8.8345074751,18.4023313276,16.5150423153
 C,0,-7.5155403441,18.7883935489,17.2315219152
 C,0,-6.4182980812,17.7165798393,17.2602256035
 N,0,-5.8552240136,17.4628476984,15.9244984055
 O,0,-9.2920680811,16.2218009544,14.2351696447
 H,0,-9.6755420447,15.470340934,13.7441272288
 H,0,-8.0870856531,19.0641731786,12.0795510789
 H,0,-7.1961758289,17.8372441856,14.561904807
 H,0,-10.03690207,18.8786876216,14.7677086437
 H,0,-8.7119390608,19.995825015,15.0620077792
 H,0,-9.6750071451,18.8095952753,17.0893380899
 H,0,-8.9641844303,17.3137256548,16.5229725202
 H,0,-7.7451230631,19.0339848328,18.2754311345
 H,0,-7.1032816677,19.7064697094,16.7894454766
 H,0,-5.6504389136,18.0262306035,17.9878667805
 H,0,-6.8426067916,16.7746000233,17.6308910952
 H,0,-5.3705869441,18.2962810551,15.5896650232
 H,0,-5.1661314963,16.7137490286,15.9685790778
 Recover connectivity data from disk.
                           ----------------------------
                           !    Current Parameters    !
                           ! (Angstroms and Degrees)  !
 --------------------------                            --------------------------
 ! Name  Definition              Value                                          !
 --------------------------------------------------------------------------------
 ! R1    R(1,2)                  1.5161                                         !
 ! R2    R(1,12)                 1.0409                                         !
 ! R3    R(1,21)                 1.0345                                         !
 ! R4    R(1,22)                 1.0233                                         !
 ! R5    R(2,3)                  1.5581                                         !
 ! R6    R(2,5)                  1.5412                                         !
 ! R7    R(2,13)                 1.0955                                         !
 ! R8    R(3,4)                  1.2382                                         !
 ! R9    R(3,23)                 1.3476                                         !
 ! R10   R(5,6)                  1.5173                                         !
 ! R11   R(5,14)                 1.0945                                         !
 ! R12   R(5,15)                 1.0922                                         !
 ! R13   R(6,7)                  1.4027                                         !
 ! R14   R(6,8)                  1.402                                          !
 ! R15   R(7,9)                  1.3968                                         !
 ! R16   R(7,16)                 1.0879                                         !
 ! R17   R(8,10)                 1.3955                                         !
 ! R18   R(8,17)                 1.0883                                         !
 ! R19   R(9,11)                 1.3963                                         !
 ! R20   R(9,18)                 1.0862                                         !
 ! R21   R(10,11)                1.3972                                         !
 ! R22   R(10,19)                1.0859                                         !
 ! R23   R(11,20)                1.0858                                         !
 ! R24   R(23,24)                1.4867                                         !
 ! R25   R(23,29)                1.4828                                         !
 ! R26   R(24,25)                1.5458                                         !
 ! R27   R(24,27)                1.5379                                         !
 ! R28   R(24,30)                1.0907                                         !
 ! R29   R(25,26)                1.2233                                         !
 ! R30   R(25,37)                1.3603                                         !
 ! R31   R(27,28)                1.5347                                         !
 ! R32   R(27,31)                1.0921                                         !
 ! R33   R(27,32)                1.0952                                         !
 ! R34   R(28,29)                1.5356                                         !
 ! R35   R(28,33)                1.0961                                         !
 ! R36   R(28,34)                1.0925                                         !
 ! R37   R(29,35)                1.0966                                         !
 ! R38   R(29,36)                1.088                                          !
 ! R39   R(37,38)                1.4527                                         !
 ! R40   R(37,48)                1.0081                                         !
 ! R41   R(38,39)                1.5054                                         !
 ! R42   R(38,41)                1.5537                                         !
 ! R43   R(38,49)                1.1157                                         !
 ! R44   R(39,40)                1.2348                                         !
 ! R45   R(39,46)                1.3316                                         !
 ! R46   R(41,42)                1.5395                                         !
 ! R47   R(41,50)                1.0973                                         !
 ! R48   R(41,51)                1.0951                                         !
 ! R49   R(42,43)                1.5499                                         !
 ! R50   R(42,52)                1.0964                                         !
 ! R51   R(42,53)                1.0963                                         !
 ! R52   R(43,44)                1.5341                                         !
 ! R53   R(43,54)                1.0967                                         !
 ! R54   R(43,55)                1.0992                                         !
 ! R55   R(44,45)                1.4716                                         !
 ! R56   R(44,56)                1.1022                                         !
 ! R57   R(44,57)                1.0976                                         !
 ! R58   R(45,58)                1.0206                                         !
 ! R59   R(45,59)                1.0188                                         !
 ! R60   R(46,47)                0.9761                                         !
 ! A1    A(2,1,12)             108.5693                                         !
 ! A2    A(2,1,21)             106.1146                                         !
 ! A3    A(2,1,22)             111.9191                                         !
 ! A4    A(12,1,21)            106.695                                          !
 ! A5    A(12,1,22)            109.6274                                         !
 ! A6    A(21,1,22)            113.6512                                         !
 ! A7    A(1,2,3)              101.4986                                         !
 ! A8    A(1,2,5)              108.5847                                         !
 ! A9    A(1,2,13)             105.7762                                         !
 ! A10   A(3,2,5)              121.4614                                         !
 ! A11   A(3,2,13)             108.3033                                         !
 ! A12   A(5,2,13)             109.9227                                         !
 ! A13   A(2,3,4)              115.1654                                         !
 ! A14   A(2,3,23)             123.2433                                         !
 ! A15   A(4,3,23)             121.4398                                         !
 ! A16   A(2,5,6)              111.4703                                         !
 ! A17   A(2,5,14)             109.2462                                         !
 ! A18   A(2,5,15)             108.0307                                         !
 ! A19   A(6,5,14)             110.142                                          !
 ! A20   A(6,5,15)             109.618                                          !
 ! A21   A(14,5,15)            108.2532                                         !
 ! A22   A(5,6,7)              120.4048                                         !
 ! A23   A(5,6,8)              120.3679                                         !
 ! A24   A(7,6,8)              119.1638                                         !
 ! A25   A(6,7,9)              120.3332                                         !
 ! A26   A(6,7,16)             119.5306                                         !
 ! A27   A(9,7,16)             120.1357                                         !
 ! A28   A(6,8,10)             120.4557                                         !
 ! A29   A(6,8,17)             119.8146                                         !
 ! A30   A(10,8,17)            119.7208                                         !
 ! A31   A(7,9,11)             120.1269                                         !
 ! A32   A(7,9,18)             119.7964                                         !
 ! A33   A(11,9,18)            120.0748                                         !
 ! A34   A(8,10,11)            120.06                                           !
 ! A35   A(8,10,19)            119.8073                                         !
 ! A36   A(11,10,19)           120.1305                                         !
 ! A37   A(9,11,10)            119.8594                                         !
 ! A38   A(9,11,20)            120.0993                                         !
 ! A39   A(10,11,20)           120.0402                                         !
 ! A40   A(3,23,24)            116.4963                                         !
 ! A41   A(3,23,29)            131.7409                                         !
 ! A42   A(24,23,29)           111.6899                                         !
 ! A43   A(23,24,25)           111.541                                          !
 ! A44   A(23,24,27)           103.8177                                         !
 ! A45   A(23,24,30)           110.3148                                         !
 ! A46   A(25,24,27)           113.5117                                         !
 ! A47   A(25,24,30)           105.1487                                         !
 ! A48   A(27,24,30)           112.6545                                         !
 ! A49   A(24,25,26)           119.668                                          !
 ! A50   A(24,25,37)           115.7907                                         !
 ! A51   A(26,25,37)           124.5311                                         !
 ! A52   A(24,27,28)           103.6027                                         !
 ! A53   A(24,27,31)           111.4194                                         !
 ! A54   A(24,27,32)           109.5375                                         !
 ! A55   A(28,27,31)           113.7326                                         !
 ! A56   A(28,27,32)           110.541                                          !
 ! A57   A(31,27,32)           107.9484                                         !
 ! A58   A(27,28,29)           103.5557                                         !
 ! A59   A(27,28,33)           110.227                                          !
 ! A60   A(27,28,34)           113.4789                                         !
 ! A61   A(29,28,33)           109.6446                                         !
 ! A62   A(29,28,34)           111.8286                                         !
 ! A63   A(33,28,34)           108.0464                                         !
 ! A64   A(23,29,28)           103.0389                                         !
 ! A65   A(23,29,35)           109.5237                                         !
 ! A66   A(23,29,36)           112.0002                                         !
 ! A67   A(28,29,35)           111.629                                          !
 ! A68   A(28,29,36)           111.8153                                         !
 ! A69   A(35,29,36)           108.7628                                         !
 ! A70   A(25,37,38)           123.0586                                         !
 ! A71   A(25,37,48)           117.7981                                         !
 ! A72   A(38,37,48)           116.6759                                         !
 ! A73   A(37,38,39)           107.8585                                         !
 ! A74   A(37,38,41)           113.5795                                         !
 ! A75   A(37,38,49)           108.908                                          !
 ! A76   A(39,38,41)           113.7674                                         !
 ! A77   A(39,38,49)           105.2144                                         !
 ! A78   A(41,38,49)           107.1002                                         !
 ! A79   A(38,39,40)           125.4561                                         !
 ! A80   A(38,39,46)           112.8456                                         !
 ! A81   A(40,39,46)           121.6973                                         !
 ! A82   A(38,41,42)           115.0691                                         !
 ! A83   A(38,41,50)           109.8883                                         !
 ! A84   A(38,41,51)           105.9648                                         !
 ! A85   A(42,41,50)           109.9321                                         !
 ! A86   A(42,41,51)           108.9755                                         !
 ! A87   A(50,41,51)           106.6065                                         !
 ! A88   A(41,42,43)           115.3909                                         !
 ! A89   A(41,42,52)           106.5214                                         !
 ! A90   A(41,42,53)           109.8259                                         !
 ! A91   A(43,42,52)           108.5249                                         !
 ! A92   A(43,42,53)           110.1609                                         !
 ! A93   A(52,42,53)           105.9245                                         !
 ! A94   A(42,43,44)           116.3141                                         !
 ! A95   A(42,43,54)           108.5215                                         !
 ! A96   A(42,43,55)           109.9564                                         !
 ! A97   A(44,43,54)           106.7601                                         !
 ! A98   A(44,43,55)           108.8325                                         !
 ! A99   A(54,43,55)           105.9199                                         !
 ! A100  A(43,44,45)           112.1567                                         !
 ! A101  A(43,44,56)           108.3202                                         !
 ! A102  A(43,44,57)           109.2333                                         !
 ! A103  A(45,44,56)           112.4006                                         !
 ! A104  A(45,44,57)           107.8463                                         !
 ! A105  A(56,44,57)           106.706                                          !
 ! A106  A(44,45,58)           109.7966                                         !
 ! A107  A(44,45,59)           110.2615                                         !
 ! A108  A(58,45,59)           107.0648                                         !
 ! A109  A(39,46,47)           108.5075                                         !
 ! D1    D(12,1,2,3)            74.4345                                         !
 ! D2    D(12,1,2,5)           -54.6389                                         !
 ! D3    D(12,1,2,13)         -172.5802                                         !
 ! D4    D(21,1,2,3)           -39.9279                                         !
 ! D5    D(21,1,2,5)          -169.0012                                         !
 ! D6    D(21,1,2,13)           73.0575                                         !
 ! D7    D(22,1,2,3)          -164.4251                                         !
 ! D8    D(22,1,2,5)            66.5016                                         !
 ! D9    D(22,1,2,13)          -51.4397                                         !
 ! D10   D(1,2,3,4)             27.3329                                         !
 ! D11   D(1,2,3,23)          -148.2455                                         !
 ! D12   D(5,2,3,4)            147.7145                                         !
 ! D13   D(5,2,3,23)           -27.8638                                         !
 ! D14   D(13,2,3,4)           -83.7381                                         !
 ! D15   D(13,2,3,23)          100.6836                                         !
 ! D16   D(1,2,5,6)            -46.2052                                         !
 ! D17   D(1,2,5,14)            75.7497                                         !
 ! D18   D(1,2,5,15)          -166.699                                          !
 ! D19   D(3,2,5,6)           -163.0961                                         !
 ! D20   D(3,2,5,14)           -41.1411                                         !
 ! D21   D(3,2,5,15)            76.4102                                         !
 ! D22   D(13,2,5,6)            69.0699                                         !
 ! D23   D(13,2,5,14)         -168.9752                                         !
 ! D24   D(13,2,5,15)          -51.4238                                         !
 ! D25   D(2,3,23,24)          168.1846                                         !
 ! D26   D(2,3,23,29)          -15.2244                                         !
 ! D27   D(4,3,23,24)           -7.1242                                         !
 ! D28   D(4,3,23,29)          169.4669                                         !
 ! D29   D(2,5,6,7)             98.8638                                         !
 ! D30   D(2,5,6,8)            -78.2138                                         !
 ! D31   D(14,5,6,7)           -22.5718                                         !
 ! D32   D(14,5,6,8)           160.3505                                         !
 ! D33   D(15,5,6,7)          -141.5788                                         !
 ! D34   D(15,5,6,8)            41.3436                                         !
 ! D35   D(5,6,7,9)           -177.5072                                         !
 ! D36   D(5,6,7,16)             2.7491                                         !
 ! D37   D(8,6,7,9)             -0.3946                                         !
 ! D38   D(8,6,7,16)           179.8617                                         !
 ! D39   D(5,6,8,10)           177.4471                                         !
 ! D40   D(5,6,8,17)            -3.6417                                         !
 ! D41   D(7,6,8,10)             0.3334                                         !
 ! D42   D(7,6,8,17)           179.2446                                         !
 ! D43   D(6,7,9,11)             0.2645                                         !
 ! D44   D(6,7,9,18)          -179.2437                                         !
 ! D45   D(16,7,9,11)         -179.9934                                         !
 ! D46   D(16,7,9,18)            0.4984                                         !
 ! D47   D(6,8,10,11)           -0.1414                                         !
 ! D48   D(6,8,10,19)          179.3116                                         !
 ! D49   D(17,8,10,11)        -179.0536                                         !
 ! D50   D(17,8,10,19)           0.3995                                         !
 ! D51   D(7,9,11,10)           -0.068                                          !
 ! D52   D(7,9,11,20)         -179.685                                          !
 ! D53   D(18,9,11,10)         179.4388                                         !
 ! D54   D(18,9,11,20)          -0.1781                                         !
 ! D55   D(8,10,11,9)            0.0065                                         !
 ! D56   D(8,10,11,20)         179.6237                                         !
 ! D57   D(19,10,11,9)        -179.4447                                         !
 ! D58   D(19,10,11,20)          0.1724                                         !
 ! D59   D(3,23,24,25)         -67.6102                                         !
 ! D60   D(3,23,24,27)         169.7905                                         !
 ! D61   D(3,23,24,30)          48.859                                          !
 ! D62   D(29,23,24,25)        115.1267                                         !
 ! D63   D(29,23,24,27)         -7.4726                                         !
 ! D64   D(29,23,24,30)       -128.4041                                         !
 ! D65   D(3,23,29,28)         167.3071                                         !
 ! D66   D(3,23,29,35)         -73.7756                                         !
 ! D67   D(3,23,29,36)          46.9774                                         !
 ! D68   D(24,23,29,28)        -15.9762                                         !
 ! D69   D(24,23,29,35)        102.9412                                         !
 ! D70   D(24,23,29,36)       -136.3059                                         !
 ! D71   D(23,24,25,26)        162.9903                                         !
 ! D72   D(23,24,25,37)        -18.122                                          !
 ! D73   D(27,24,25,26)        -80.1538                                         !
 ! D74   D(27,24,25,37)         98.7338                                         !
 ! D75   D(30,24,25,26)         43.4159                                         !
 ! D76   D(30,24,25,37)       -137.6964                                         !
 ! D77   D(23,24,27,28)         27.9192                                         !
 ! D78   D(23,24,27,31)        150.5843                                         !
 ! D79   D(23,24,27,32)        -90.0454                                         !
 ! D80   D(25,24,27,28)        -93.3691                                         !
 ! D81   D(25,24,27,31)         29.296                                          !
 ! D82   D(25,24,27,32)        148.6664                                         !
 ! D83   D(30,24,27,28)        147.2644                                         !
 ! D84   D(30,24,27,31)        -90.0704                                         !
 ! D85   D(30,24,27,32)         29.2999                                         !
 ! D86   D(24,25,37,38)        165.0061                                         !
 ! D87   D(24,25,37,48)          3.4427                                         !
 ! D88   D(26,25,37,38)        -16.1672                                         !
 ! D89   D(26,25,37,48)       -177.7305                                         !
 ! D90   D(24,27,28,29)        -38.0249                                         !
 ! D91   D(24,27,28,33)         79.1936                                         !
 ! D92   D(24,27,28,34)       -159.4742                                         !
 ! D93   D(31,27,28,29)       -159.1444                                         !
 ! D94   D(31,27,28,33)        -41.9259                                         !
 ! D95   D(31,27,28,34)         79.4064                                         !
 ! D96   D(32,27,28,29)         79.2399                                         !
 ! D97   D(32,27,28,33)       -163.5416                                         !
 ! D98   D(32,27,28,34)        -42.2093                                         !
 ! D99   D(27,28,29,23)         32.9517                                         !
 ! D100  D(27,28,29,35)        -84.4903                                         !
 ! D101  D(27,28,29,36)        153.4081                                         !
 ! D102  D(33,28,29,23)        -84.674                                          !
 ! D103  D(33,28,29,35)        157.884                                          !
 ! D104  D(33,28,29,36)         35.7825                                         !
 ! D105  D(34,28,29,23)        155.5032                                         !
 ! D106  D(34,28,29,35)         38.0612                                         !
 ! D107  D(34,28,29,36)        -84.0404                                         !
 ! D108  D(25,37,38,39)       -138.1626                                         !
 ! D109  D(25,37,38,41)         94.7792                                         !
 ! D110  D(25,37,38,49)        -24.4716                                         !
 ! D111  D(48,37,38,39)         23.5922                                         !
 ! D112  D(48,37,38,41)       -103.466                                          !
 ! D113  D(48,37,38,49)        137.2832                                         !
 ! D114  D(37,38,39,40)          6.2107                                         !
 ! D115  D(37,38,39,46)       -174.1447                                         !
 ! D116  D(41,38,39,40)        133.1596                                         !
 ! D117  D(41,38,39,46)        -47.1958                                         !
 ! D118  D(49,38,39,40)       -109.9215                                         !
 ! D119  D(49,38,39,46)         69.7231                                         !
 ! D120  D(37,38,41,42)       -145.7481                                         !
 ! D121  D(37,38,41,50)         89.5396                                         !
 ! D122  D(37,38,41,51)        -25.2703                                         !
 ! D123  D(39,38,41,42)         90.3468                                         !
 ! D124  D(39,38,41,50)        -34.3655                                         !
 ! D125  D(39,38,41,51)       -149.1755                                         !
 ! D126  D(49,38,41,42)        -25.4699                                         !
 ! D127  D(49,38,41,50)       -150.1822                                         !
 ! D128  D(49,38,41,51)         95.0079                                         !
 ! D129  D(38,39,46,47)       -179.255                                          !
 ! D130  D(40,39,46,47)          0.4047                                         !
 ! D131  D(38,41,42,43)         72.1724                                         !
 ! D132  D(38,41,42,52)       -167.322                                          !
 ! D133  D(38,41,42,53)        -53.0444                                         !
 ! D134  D(50,41,42,43)       -163.1382                                         !
 ! D135  D(50,41,42,52)        -42.6326                                         !
 ! D136  D(50,41,42,53)         71.645                                          !
 ! D137  D(51,41,42,43)        -46.6401                                         !
 ! D138  D(51,41,42,52)         73.8654                                         !
 ! D139  D(51,41,42,53)       -171.8569                                         !
 ! D140  D(41,42,43,44)        -99.9514                                         !
 ! D141  D(41,42,43,54)        139.7206                                         !
 ! D142  D(41,42,43,55)         24.291                                          !
 ! D143  D(52,42,43,44)        140.6408                                         !
 ! D144  D(52,42,43,54)         20.3128                                         !
 ! D145  D(52,42,43,55)        -95.1169                                         !
 ! D146  D(53,42,43,44)         25.0922                                         !
 ! D147  D(53,42,43,54)        -95.2358                                         !
 ! D148  D(53,42,43,55)        149.3345                                         !
 ! D149  D(42,43,44,45)         68.5113                                         !
 ! D150  D(42,43,44,56)       -166.8594                                         !
 ! D151  D(42,43,44,57)        -50.9958                                         !
 ! D152  D(54,43,44,45)       -170.221                                          !
 ! D153  D(54,43,44,56)        -45.5917                                         !
 ! D154  D(54,43,44,57)         70.2719                                         !
 ! D155  D(55,43,44,45)        -56.3061                                         !
 ! D156  D(55,43,44,56)         68.3232                                         !
 ! D157  D(55,43,44,57)       -175.8132                                         !
 ! D158  D(43,44,45,58)         65.2544                                         !
 ! D159  D(43,44,45,59)       -177.0137                                         !
 ! D160  D(56,44,45,58)        -57.0851                                         !
 ! D161  D(56,44,45,59)         60.6468                                         !
 ! D162  D(57,44,45,58)       -174.4299                                         !
 ! D163  D(57,44,45,59)        -56.698                                          !
 --------------------------------------------------------------------------------
 Symmetry turned off by external request.
 Stoichiometry    C20H31N4O4(1+)
 Framework group  C1[X(C20H31N4O4)]
 Deg. of freedom   171
 Full point group                 C1      NOp   1
                          Input orientation:                          
 ---------------------------------------------------------------------
 Center     Atomic      Atomic             Coordinates (Angstroms)
 Number     Number       Type             X           Y           Z
 ---------------------------------------------------------------------
      1          7           0       -7.180472   16.290948    9.868043
      2          6           0       -7.269881   17.672799    9.250733
      3          6           0       -6.418409   18.514233   10.248122
      4          8           0       -5.538301   17.884959   10.850169
      5          6           0       -8.753065   17.997608    8.986285
      6          6           0       -9.467065   16.833713    8.324552
      7          6           0      -10.246508   15.952245    9.088119
      8          6           0       -9.306380   16.590838    6.953144
      9          6           0      -10.860837   14.851600    8.486294
     10          6           0       -9.919531   15.490195    6.353118
     11          6           0      -10.697840   14.618734    7.119281
     12          1           0       -7.789306   16.264855   10.711928
     13          1           0       -6.726372   17.610751    8.301645
     14          1           0       -9.241316   18.250413    9.932638
     15          1           0       -8.796447   18.872883    8.334447
     16          1           0      -10.373327   16.133762   10.153266
     17          1           0       -8.714036   17.274706    6.348267
     18          1           0      -11.472543   14.181545    9.083450
     19          1           0       -9.797164   15.318348    5.287862
     20          1           0      -11.179770   13.765879    6.650917
     21          1           0       -6.206481   16.187670   10.200979
     22          1           0       -7.469927   15.560320    9.212636
     23          7           0       -6.665165   19.811117   10.518773
     24          6           0       -5.944704   20.394898   11.680828
     25          6           0       -6.425560   19.778845   13.014582
     26          8           0       -5.742138   19.905483   14.021267
     27          6           0       -6.223325   21.903021   11.565860
     28          6           0       -7.577601   21.966076   10.846676
     29          6           0       -7.495264   20.824060    9.823461
     30          1           0       -4.881413   20.158657   11.624714
     31          1           0       -6.223385   22.384455   12.546129
     32          1           0       -5.443363   22.374306   10.958458
     33          1           0       -8.391668   21.769342   11.553725
     34          1           0       -7.771227   22.928271   10.366821
     35          1           0       -6.991119   21.141743    8.902843
     36          1           0       -8.479996   20.438323    9.567969
     37          7           0       -7.625393   19.139289   12.972559
     38          6           0       -8.083175   18.243774   14.020787
     39          6           0       -8.724582   17.051786   13.362109
     40          8           0       -8.739837   16.826209   12.148207
     41          6           0       -8.986207   18.935780   15.078932
     42          6           0       -8.834507   18.402331   16.515042
     43          6           0       -7.515540   18.788394   17.231522
     44          6           0       -6.418298   17.716580   17.260226
     45          7           0       -5.855224   17.462848   15.924498
     46          8           0       -9.292068   16.221801   14.235170
     47          1           0       -9.675542   15.470341   13.744127
     48          1           0       -8.087086   19.064173   12.079551
     49          1           0       -7.196176   17.837244   14.561905
     50          1           0      -10.036902   18.878688   14.767709
     51          1           0       -8.711939   19.995825   15.062008
     52          1           0       -9.675007   18.809595   17.089338
     53          1           0       -8.964184   17.313726   16.522973
     54          1           0       -7.745123   19.033985   18.275431
     55          1           0       -7.103282   19.706470   16.789445
     56          1           0       -5.650439   18.026231   17.987867
     57          1           0       -6.842607   16.774600   17.630891
     58          1           0       -5.370587   18.296281   15.589665
     59          1           0       -5.166131   16.713749   15.968579
 ---------------------------------------------------------------------
 Rotational constants (GHZ):           0.2616208           0.1107768           0.0887654
 Standard basis: 6-31G(d) (6D, 7F)
   482 basis functions,   908 primitive gaussians,   482 cartesian basis functions
   105 alpha electrons      105 beta electrons
       nuclear repulsion energy      2864.8015884964 Hartrees.
 NAtoms=   59 NActive=   59 NUniq=   59 SFac= 1.00D+00 NAtFMM=   60 NAOKFM=F Big=F
 Integral buffers will be    131072 words long.
 Raffenetti 2 integral format.
 Two-electron integral symmetry is turned off.
 Nuclear repulsion after empirical dispersion term =     2864.7257294473 Hartrees.
 One-electron integrals computed using PRISM.
 NBasis=   482 RedAO= T EigKep=  4.68D-04  NBF=   482
 NBsUse=   482 1.00D-06 EigRej= -1.00D+00 NBFU=   482
 Initial guess from the checkpoint file:  "conf-879.chk"
 B after Tr=     0.000000    0.000000    0.000000
         Rot=    1.000000    0.000000    0.000000    0.000000 Ang=   0.00 deg.
 Requested convergence on RMS density matrix=1.00D-08 within 128 cycles.
 Requested convergence on MAX density matrix=1.00D-06.
 Requested convergence on             energy=1.00D-06.
 No special actions if energy rises.
 SCF Done:  E(RB3LYP) =  -1300.60567900     A.U. after    3 cycles
            NFock=  3  Conv=0.91D-09     -V/T= 2.0095

 **********************************************************************

            Population analysis using the SCF Density.

 **********************************************************************

 Alpha  occ. eigenvalues --  -19.32472 -19.27876 -19.25768 -19.21439 -14.58018
 Alpha  occ. eigenvalues --  -14.50327 -14.46234 -14.39107 -10.45360 -10.43341
 Alpha  occ. eigenvalues --  -10.40542 -10.38911 -10.35121 -10.34150 -10.33815
 Alpha  occ. eigenvalues --  -10.32834 -10.31989 -10.30610 -10.30553 -10.30445
 Alpha  occ. eigenvalues --  -10.30164 -10.30099 -10.29920 -10.29861 -10.27820
 Alpha  occ. eigenvalues --  -10.27787 -10.25862 -10.25183  -1.23843  -1.18660
 Alpha  occ. eigenvalues --   -1.14630  -1.13528  -1.12579  -1.07482  -1.02854
 Alpha  occ. eigenvalues --   -0.97513  -0.95473  -0.93266  -0.91165  -0.89368
 Alpha  occ. eigenvalues --   -0.86938  -0.85936  -0.85700  -0.83903  -0.79920
 Alpha  occ. eigenvalues --   -0.78266  -0.77275  -0.74424  -0.73661  -0.72197
 Alpha  occ. eigenvalues --   -0.71419  -0.70895  -0.70417  -0.69735  -0.68943
 Alpha  occ. eigenvalues --   -0.68486  -0.65001  -0.64174  -0.64014  -0.62820
 Alpha  occ. eigenvalues --   -0.62094  -0.61512  -0.60311  -0.59090  -0.58305
 Alpha  occ. eigenvalues --   -0.57528  -0.56838  -0.56634  -0.56331  -0.56017
 Alpha  occ. eigenvalues --   -0.54899  -0.54269  -0.53685  -0.53383  -0.53184
 Alpha  occ. eigenvalues --   -0.52641  -0.52215  -0.52167  -0.51578  -0.51098
 Alpha  occ. eigenvalues --   -0.50756  -0.49927  -0.48962  -0.48800  -0.47959
 Alpha  occ. eigenvalues --   -0.47468  -0.47093  -0.46829  -0.45740  -0.45409
 Alpha  occ. eigenvalues --   -0.45023  -0.44906  -0.44396  -0.43257  -0.41729
 Alpha  occ. eigenvalues --   -0.40835  -0.40353  -0.40150  -0.39889  -0.38893
 Alpha  occ. eigenvalues --   -0.36462  -0.36082  -0.35647  -0.34555  -0.31305
 Alpha virt. eigenvalues --   -0.13537  -0.12291  -0.11910  -0.11676  -0.07858
 Alpha virt. eigenvalues --   -0.06740  -0.05171  -0.04254  -0.03264  -0.02473
 Alpha virt. eigenvalues --   -0.01210  -0.00570   0.00698   0.01113   0.01328
 Alpha virt. eigenvalues --    0.01872   0.02345   0.02669   0.03208   0.03253
 Alpha virt. eigenvalues --    0.04264   0.04408   0.04567   0.04932   0.05256
 Alpha virt. eigenvalues --    0.05640   0.06411   0.06725   0.07039   0.07301
 Alpha virt. eigenvalues --    0.07819   0.08373   0.09031   0.09155   0.09684
 Alpha virt. eigenvalues --    0.10280   0.10423   0.10727   0.10920   0.11377
 Alpha virt. eigenvalues --    0.12148   0.12593   0.12993   0.13178   0.14277
 Alpha virt. eigenvalues --    0.14680   0.15488   0.16048   0.16898   0.17500
 Alpha virt. eigenvalues --    0.17889   0.19665   0.19848   0.20779   0.22156
 Alpha virt. eigenvalues --    0.22594   0.22780   0.23226   0.23766   0.24315
 Alpha virt. eigenvalues --    0.26239   0.28352   0.28509   0.32687   0.33382
 Alpha virt. eigenvalues --    0.35392   0.37945   0.39147   0.40229   0.40548
 Alpha virt. eigenvalues --    0.41112   0.41786   0.42588   0.43021   0.43240
 Alpha virt. eigenvalues --    0.43305   0.43735   0.44116   0.44897   0.45332
 Alpha virt. eigenvalues --    0.45906   0.46520   0.46779   0.47533   0.48220
 Alpha virt. eigenvalues --    0.48321   0.48685   0.49371   0.49484   0.50185
 Alpha virt. eigenvalues --    0.50349   0.50762   0.51021   0.51526   0.52205
 Alpha virt. eigenvalues --    0.52769   0.53476   0.54144   0.55245   0.55623
 Alpha virt. eigenvalues --    0.56037   0.56084   0.56991   0.57837   0.58595
 Alpha virt. eigenvalues --    0.59299   0.59776   0.60786   0.62086   0.63605
 Alpha virt. eigenvalues --    0.63716   0.64410   0.65954   0.66130   0.66618
 Alpha virt. eigenvalues --    0.66802   0.68513   0.68872   0.69265   0.69789
 Alpha virt. eigenvalues --    0.70314   0.70915   0.71747   0.72146   0.72589
 Alpha virt. eigenvalues --    0.72999   0.73267   0.73375   0.74168   0.74183
 Alpha virt. eigenvalues --    0.74755   0.75068   0.75593   0.76219   0.76730
 Alpha virt. eigenvalues --    0.76856   0.77683   0.77939   0.79085   0.79570
 Alpha virt. eigenvalues --    0.79738   0.80622   0.80979   0.81348   0.81700
 Alpha virt. eigenvalues --    0.82354   0.83128   0.83626   0.84000   0.84393
 Alpha virt. eigenvalues --    0.85084   0.85443   0.86041   0.86806   0.87111
 Alpha virt. eigenvalues --    0.87905   0.88066   0.88533   0.89182   0.90303
 Alpha virt. eigenvalues --    0.90499   0.91078   0.92230   0.92435   0.94314
 Alpha virt. eigenvalues --    0.94962   0.95811   0.97123   0.98668   0.99912
 Alpha virt. eigenvalues --    1.00538   1.01391   1.02671   1.03614   1.04810
 Alpha virt. eigenvalues --    1.05545   1.05630   1.06618   1.07977   1.09303
 Alpha virt. eigenvalues --    1.10698   1.11996   1.13107   1.14241   1.16720
 Alpha virt. eigenvalues --    1.17834   1.18531   1.18945   1.20118   1.20564
 Alpha virt. eigenvalues --    1.22538   1.24231   1.25455   1.27891   1.27972
 Alpha virt. eigenvalues --    1.28867   1.30347   1.31652   1.32180   1.33042
 Alpha virt. eigenvalues --    1.34215   1.36515   1.37186   1.37909   1.38316
 Alpha virt. eigenvalues --    1.39484   1.40018   1.40851   1.42808   1.42883
 Alpha virt. eigenvalues --    1.44866   1.46818   1.49418   1.50824   1.51468
 Alpha virt. eigenvalues --    1.51651   1.54048   1.55270   1.56202   1.57586
 Alpha virt. eigenvalues --    1.58879   1.60416   1.61361   1.61493   1.62893
 Alpha virt. eigenvalues --    1.63092   1.63624   1.65004   1.65845   1.66745
 Alpha virt. eigenvalues --    1.67968   1.68333   1.68537   1.69353   1.69875
 Alpha virt. eigenvalues --    1.70081   1.71607   1.72379   1.73621   1.74195
 Alpha virt. eigenvalues --    1.75488   1.76019   1.76524   1.77291   1.77784
 Alpha virt. eigenvalues --    1.78733   1.79040   1.80712   1.81806   1.82065
 Alpha virt. eigenvalues --    1.82100   1.82999   1.83438   1.83911   1.85220
 Alpha virt. eigenvalues --    1.86197   1.86790   1.87414   1.88096   1.89340
 Alpha virt. eigenvalues --    1.90866   1.92323   1.92714   1.93334   1.93709
 Alpha virt. eigenvalues --    1.94342   1.95352   1.96282   1.97047   1.97483
 Alpha virt. eigenvalues --    1.98642   1.98862   1.99205   2.00952   2.01799
 Alpha virt. eigenvalues --    2.02881   2.03620   2.04533   2.05633   2.06113
 Alpha virt. eigenvalues --    2.06383   2.08924   2.10441   2.11179   2.11859
 Alpha virt. eigenvalues --    2.13032   2.15221   2.17564   2.18724   2.19598
 Alpha virt. eigenvalues --    2.20244   2.20798   2.21732   2.22367   2.23787
 Alpha virt. eigenvalues --    2.23840   2.26832   2.28068   2.28138   2.28729
 Alpha virt. eigenvalues --    2.29741   2.30853   2.32161   2.33516   2.36023
 Alpha virt. eigenvalues --    2.36979   2.38413   2.39491   2.39752   2.41207
 Alpha virt. eigenvalues --    2.42875   2.43980   2.44998   2.45907   2.47122
 Alpha virt. eigenvalues --    2.48289   2.48938   2.49302   2.49888   2.50605
 Alpha virt. eigenvalues --    2.52686   2.54149   2.54498   2.55373   2.57586
 Alpha virt. eigenvalues --    2.58581   2.60559   2.61413   2.62890   2.62955
 Alpha virt. eigenvalues --    2.63637   2.64363   2.65843   2.66438   2.69567
 Alpha virt. eigenvalues --    2.70958   2.72348   2.77195   2.80373   2.85155
 Alpha virt. eigenvalues --    2.86088   2.91231   2.92024   2.93690   2.94490
 Alpha virt. eigenvalues --    2.99789   3.07179   3.10179   3.29455   3.73148
 Alpha virt. eigenvalues --    3.77547   3.84912   3.91703   3.94723   3.98425
 Alpha virt. eigenvalues --    3.99549   4.01416   4.03628   4.07116   4.08968
 Alpha virt. eigenvalues --    4.09738   4.13294   4.18338   4.20315   4.23117
 Alpha virt. eigenvalues --    4.24475   4.26354   4.27786   4.32289   4.41698
 Alpha virt. eigenvalues --    4.44823   4.46365   4.48784   4.51158   4.59126
 Alpha virt. eigenvalues --    4.62346   4.66201
          Condensed to atoms (all electrons):
 Mulliken charges:
               1
     1  N   -0.762948
     2  C   -0.105276
     3  C    0.622040
     4  O   -0.526790
     5  C   -0.391398
     6  C    0.114680
     7  C   -0.211696
     8  C   -0.186738
     9  C   -0.126720
    10  C   -0.125841
    11  C   -0.124059
    12  H    0.448603
    13  H    0.223064
    14  H    0.188705
    15  H    0.195270
    16  H    0.151446
    17  H    0.142698
    18  H    0.159535
    19  H    0.165925
    20  H    0.166786
    21  H    0.422049
    22  H    0.408010
    23  N   -0.492132
    24  C   -0.039834
    25  C    0.620847
    26  O   -0.514180
    27  C   -0.307358
    28  C   -0.307746
    29  C   -0.148272
    30  H    0.214282
    31  H    0.199212
    32  H    0.176487
    33  H    0.169467
    34  H    0.185507
    35  H    0.183963
    36  H    0.176718
    37  N   -0.613151
    38  C   -0.073148
    39  C    0.597233
    40  O   -0.551608
    41  C   -0.274272
    42  C   -0.270522
    43  C   -0.275551
    44  C   -0.135610
    45  N   -0.755793
    46  O   -0.520457
    47  H    0.425986
    48  H    0.332942
    49  H    0.291079
    50  H    0.141204
    51  H    0.169368
    52  H    0.149903
    53  H    0.156780
    54  H    0.151952
    55  H    0.152202
    56  H    0.138225
    57  H    0.145192
    58  H    0.344504
    59  H    0.309236
 Sum of Mulliken charges =   1.00000
 Mulliken charges with hydrogens summed into heavy atoms:
               1
     1  N    0.515713
     2  C    0.117788
     3  C    0.622040
     4  O   -0.526790
     5  C   -0.007423
     6  C    0.114680
     7  C   -0.060250
     8  C   -0.044040
     9  C    0.032815
    10  C    0.040084
    11  C    0.042727
    23  N   -0.492132
    24  C    0.174449
    25  C    0.620847
    26  O   -0.514180
    27  C    0.068341
    28  C    0.047228
    29  C    0.212409
    37  N   -0.280209
    38  C    0.217931
    39  C    0.597233
    40  O   -0.551608
    41  C    0.036299
    42  C    0.036162
    43  C    0.028603
    44  C    0.147807
    45  N   -0.102053
    46  O   -0.094472
 Electronic spatial extent (au):  <R**2>=         408386.7298
 Charge=              1.0000 electrons
 Dipole moment (field-independent basis, Debye):
    X=            -39.3400    Y=             83.5758    Z=             49.5409  Tot=            104.8182
 Quadrupole moment (field-independent basis, Debye-Ang):
   XX=            166.0040   YY=           1330.4953   ZZ=            391.5433
   XY=           -677.2120   XZ=           -407.6827   YZ=            862.6420
 Traceless Quadrupole moment (field-independent basis, Debye-Ang):
   XX=           -463.3435   YY=            701.1478   ZZ=           -237.8042
   XY=           -677.2120   XZ=           -407.6827   YZ=            862.6420
 Octapole moment (field-independent basis, Debye-Ang**2):
  XXX=           1061.4648  YYY=          18567.1588  ZZZ=           1028.1038  XYY=         -10687.1747
  XXY=           2623.6377  XXZ=           1526.1184  XZZ=          -3283.6559  YZZ=           6673.2552
  YYZ=          13507.6671  XYZ=          -7053.3256
 Hexadecapole moment (field-independent basis, Debye-Ang**3):
 XXXX=         -39381.6730 YYYY=         192378.0513 ZZZZ=         -54527.9719 XXXY=          22502.2846
 XXXZ=          14774.7544 YYYX=        -148579.6035 YYYZ=         178317.4960 ZZZX=         -11041.8271
 ZZZY=          12084.1045 XXYY=          32434.6951 XXZZ=           4177.8071 YYZZ=          93054.1512
 XXYZ=          23854.4093 YYXZ=        -110460.8604 ZZXY=         -56193.0723
 N-N= 2.864725729447D+03 E-N=-8.731717896369D+03  KE= 1.288372834469D+03
 Unable to Open any file for archive entry.
 1\1\GINC-LAC-313\SP\RB3LYP\6-31G(d)\C20H31N4O4(1+)\KENGMITH\25-May-202
 2\0\\# B3LYP/6-31G* empiricaldispersion=gd3 guess=read geom=check nosy
 mm integral(ultrafinegrid)\\Candidate Structure: Conf:879 Charge calc 
 in gas phase\\1,1\N,0,-7.1804720197,16.2909477522,9.8680426515\C,0,-7.
 2698806456,17.6727993847,9.2507328591\C,0,-6.4184088187,18.5142331885,
 10.248121558\O,0,-5.5383013346,17.8849593204,10.8501690809\C,0,-8.7530
 651767,17.997608408,8.9862847032\C,0,-9.4670650671,16.833713188,8.3245
 517375\C,0,-10.2465084326,15.9522447642,9.088119267\C,0,-9.3063796177,
 16.590838434,6.9531444637\C,0,-10.8608373258,14.8515996217,8.486293599
 2\C,0,-9.91953057,15.4901951138,6.3531176861\C,0,-10.6978400858,14.618
 7337631,7.11928054\H,0,-7.7893063501,16.2648546056,10.7119281346\H,0,-
 6.7263719645,17.6107511936,8.3016446429\H,0,-9.2413156667,18.250413334
 1,9.9326381155\H,0,-8.7964468163,18.8728831688,8.334447332\H,0,-10.373
 3271576,16.1337623683,10.1532656742\H,0,-8.7140359884,17.2747063897,6.
 3482674628\H,0,-11.4725433872,14.1815450973,9.0834502413\H,0,-9.797164
 0345,15.3183484041,5.2878624992\H,0,-11.1797697986,13.7658794414,6.650
 9169466\H,0,-6.2064809404,16.1876695394,10.2009786401\H,0,-7.469926804
 2,15.5603203238,9.2126356804\N,0,-6.6651654356,19.8111167287,10.518773
 4984\C,0,-5.9447041502,20.3948975285,11.6808276323\C,0,-6.4255595451,1
 9.7788450859,13.0145817574\O,0,-5.7421381968,19.905482745,14.021266882
 5\C,0,-6.2233249143,21.9030214977,11.565860443\C,0,-7.5776009306,21.96
 60759532,10.8466761882\C,0,-7.495264301,20.8240599265,9.8234606496\H,0
 ,-4.8814134677,20.1586570131,11.6247142026\H,0,-6.2233850695,22.384454
 7824,12.5461287103\H,0,-5.4433629503,22.3743059804,10.9584576613\H,0,-
 8.3916680835,21.7693415575,11.5537248476\H,0,-7.7712271777,22.92827053
 26,10.3668207637\H,0,-6.9911194507,21.1417434041,8.9028425214\H,0,-8.4
 799963254,20.4383230092,9.5679692964\N,0,-7.6253934993,19.1392891843,1
 2.9725587062\C,0,-8.0831745104,18.2437741871,14.0207868951\C,0,-8.7245
 820022,17.0517857247,13.3621090689\O,0,-8.7398371172,16.8262086599,12.
 148207262\C,0,-8.9862072354,18.9357797484,15.0789324677\C,0,-8.8345074
 751,18.4023313276,16.5150423153\C,0,-7.5155403441,18.7883935489,17.231
 5219152\C,0,-6.4182980812,17.7165798393,17.2602256035\N,0,-5.855224013
 6,17.4628476984,15.9244984055\O,0,-9.2920680811,16.2218009544,14.23516
 96447\H,0,-9.6755420447,15.470340934,13.7441272288\H,0,-8.0870856531,1
 9.0641731786,12.0795510789\H,0,-7.1961758289,17.8372441856,14.56190480
 7\H,0,-10.03690207,18.8786876216,14.7677086437\H,0,-8.7119390608,19.99
 5825015,15.0620077792\H,0,-9.6750071451,18.8095952753,17.0893380899\H,
 0,-8.9641844303,17.3137256548,16.5229725202\H,0,-7.7451230631,19.03398
 48328,18.2754311345\H,0,-7.1032816677,19.7064697094,16.7894454766\H,0,
 -5.6504389136,18.0262306035,17.9878667805\H,0,-6.8426067916,16.7746000
 233,17.6308910952\H,0,-5.3705869441,18.2962810551,15.5896650232\H,0,-5
 .1661314963,16.7137490286,15.9685790778\\Version=ES64L-G16RevC.01\HF=-
 1300.605679\RMSD=9.080e-10\Dipole=-0.5839588,-1.3070361,-2.7388338\Qua
 drupole=-344.4845594,521.2861721,-176.8016127,-503.4905197,-303.102091
 ,641.3531509\PG=C01 [X(C20H31N4O4)]\\@
 The archive entry for this job was punched.


 ART, GLORY, FREEDOM FAIL, BUT NATURE STILL IS FAIR.

                                           -- BYRON
 Job cpu time:       0 days  0 hours  2 minutes 54.7 seconds.
 Elapsed time:       0 days  0 hours  0 minutes 44.1 seconds.
 File lengths (MBytes):  RWF=    240 Int=      0 D2E=      0 Chk=     32 Scr=     16
 Normal termination of Gaussian 16 at Wed May 25 19:10:26 2022.
