 Entering Gaussian System, Link 0=/opt/software/Gaussian/g16-AVX2-C.01/g16/g16
 Input=charge-conf-981.com
 Output=charge-conf-981.log
 Initial command:
 /opt/software/Gaussian/g16-AVX2-C.01/g16/l1.exe "/mnt/gs18/scratch/users/kengmith/Gau-14679.inp" -scrdir="/mnt/gs18/scratch/users/kengmith/"
 Entering Link 1 = /opt/software/Gaussian/g16-AVX2-C.01/g16/l1.exe PID=     14695.
  
 Copyright (c) 1988-2019, Gaussian, Inc.  All Rights Reserved.
  
 This is part of the Gaussian(R) 16 program.  It is based on
 the Gaussian(R) 09 system (copyright 2009, Gaussian, Inc.),
 the Gaussian(R) 03 system (copyright 2003, Gaussian, Inc.),
 the Gaussian(R) 98 system (copyright 1998, Gaussian, Inc.),
 the Gaussian(R) 94 system (copyright 1995, Gaussian, Inc.),
 the Gaussian 92(TM) system (copyright 1992, Gaussian, Inc.),
 the Gaussian 90(TM) system (copyright 1990, Gaussian, Inc.),
 the Gaussian 88(TM) system (copyright 1988, Gaussian, Inc.),
 the Gaussian 86(TM) system (copyright 1986, Carnegie Mellon
 University), and the Gaussian 82(TM) system (copyright 1983,
 Carnegie Mellon University). Gaussian is a federally registered
 trademark of Gaussian, Inc.
  
 This software contains proprietary and confidential information,
 including trade secrets, belonging to Gaussian, Inc.
  
 This software is provided under written license and may be
 used, copied, transmitted, or stored only in accord with that
 written license.
  
 The following legend is applicable only to US Government
 contracts under FAR:
  
                    RESTRICTED RIGHTS LEGEND
  
 Use, reproduction and disclosure by the US Government is
 subject to restrictions as set forth in subparagraphs (a)
 and (c) of the Commercial Computer Software - Restricted
 Rights clause in FAR 52.227-19.
  
 Gaussian, Inc.
 340 Quinnipiac St., Bldg. 40, Wallingford CT 06492
  
  
 ---------------------------------------------------------------
 Warning -- This program may not be used in any manner that
 competes with the business of Gaussian, Inc. or will provide
 assistance to any competitor of Gaussian, Inc.  The licensee
 of this program is prohibited from giving any competitor of
 Gaussian, Inc. access to this program.  By using this program,
 the user acknowledges that Gaussian, Inc. is engaged in the
 business of creating and licensing software in the field of
 computational chemistry and represents and warrants to the
 licensee that it is not a competitor of Gaussian, Inc. and that
 it will not use this program in any manner prohibited above.
 ---------------------------------------------------------------
  

 Cite this work as:
 Gaussian 16, Revision C.01,
 M. J. Frisch, G. W. Trucks, H. B. Schlegel, G. E. Scuseria, 
 M. A. Robb, J. R. Cheeseman, G. Scalmani, V. Barone, 
 G. A. Petersson, H. Nakatsuji, X. Li, M. Caricato, A. V. Marenich, 
 J. Bloino, B. G. Janesko, R. Gomperts, B. Mennucci, H. P. Hratchian, 
 J. V. Ortiz, A. F. Izmaylov, J. L. Sonnenberg, D. Williams-Young, 
 F. Ding, F. Lipparini, F. Egidi, J. Goings, B. Peng, A. Petrone, 
 T. Henderson, D. Ranasinghe, V. G. Zakrzewski, J. Gao, N. Rega, 
 G. Zheng, W. Liang, M. Hada, M. Ehara, K. Toyota, R. Fukuda, 
 J. Hasegawa, M. Ishida, T. Nakajima, Y. Honda, O. Kitao, H. Nakai, 
 T. Vreven, K. Throssell, J. A. Montgomery, Jr., J. E. Peralta, 
 F. Ogliaro, M. J. Bearpark, J. J. Heyd, E. N. Brothers, K. N. Kudin, 
 V. N. Staroverov, T. A. Keith, R. Kobayashi, J. Normand, 
 K. Raghavachari, A. P. Rendell, J. C. Burant, S. S. Iyengar, 
 J. Tomasi, M. Cossi, J. M. Millam, M. Klene, C. Adamo, R. Cammi, 
 J. W. Ochterski, R. L. Martin, K. Morokuma, O. Farkas, 
 J. B. Foresman, and D. J. Fox, Gaussian, Inc., Wallingford CT, 2019.
 
 ******************************************
 Gaussian 16:  ES64L-G16RevC.01  3-Jul-2019
                25-May-2022 
 ******************************************
 %mem=8gb
 %nproc=4
 Will use up to    4 processors via shared memory.
 %chk=conf-981.chk
 ----------------------------------------------------------------------
 # B3LYP/6-31G* empiricaldispersion=gd3 guess=read geom=check nosymm in
 tegral(ultrafinegrid)
 ----------------------------------------------------------------------
 1/29=2,38=1,172=1/1;
 2/12=2,15=1,40=1/2;
 3/5=1,6=6,7=1,11=2,14=-4,25=1,30=1,74=-5,75=-5,116=-2,124=31/1,2,3;
 4/5=1/1;
 5/5=2,38=6/2;
 6/7=2,8=2,9=2,10=2,28=1/1;
 99/5=1,9=1/99;
 ------------------------------------------------------
 Candidate Structure: Conf:981 Charge calc in gas phase
 ------------------------------------------------------
 Structure from the checkpoint file:  "conf-981.chk"
 Charge =  1 Multiplicity = 1
 Redundant internal coordinates found in file.  (old form).
 N,0,-9.6544914086,19.9606176477,12.6143430788
 C,0,-8.7606110218,20.5452514663,11.5384750361
 C,0,-8.797152762,19.4215121168,10.459677778
 O,0,-9.8213393209,18.7256617153,10.458572963
 C,0,-7.4370571144,20.9928141583,12.1889119723
 C,0,-7.6825089151,21.7738264517,13.4664620339
 C,0,-7.5761823301,21.1440135197,14.7152656926
 C,0,-8.078122939,23.1176899238,13.4105219469
 C,0,-7.8531072822,21.8509536977,15.8876980471
 C,0,-8.3559204815,23.8226481427,14.5823792513
 C,0,-8.2437153025,23.1898893895,15.8230538766
 H,0,-9.9532802192,20.6689634495,13.2896580484
 H,0,-9.2970235443,21.4162035555,11.1463931401
 H,0,-6.8218427738,20.1120775508,12.3978596276
 H,0,-6.9033995183,21.6207436204,11.4720973559
 H,0,-7.2721369172,20.1006497774,14.7654981645
 H,0,-8.152221799,23.6203462925,12.4480812494
 H,0,-7.7560149721,21.3581703623,16.8507610564
 H,0,-8.6506644204,24.8663848322,14.52745108
 H,0,-8.453943762,23.7404466659,16.7350140772
 H,0,-9.1317100583,19.2069024021,13.1061330893
 H,0,-10.4386498086,19.5031934558,12.1180397204
 N,0,-7.7628974288,19.1511553977,9.6392698115
 C,0,-7.8482687359,17.8891630689,8.8580551658
 C,0,-7.7545590538,16.647221804,9.7738006703
 O,0,-8.1143247759,15.5562910319,9.3532044725
 C,0,-6.6890319135,18.0000634775,7.8535446559
 C,0,-5.6682494646,18.8887380758,8.5771124554
 C,0,-6.5413078667,19.9218379841,9.3041837997
 H,0,-8.820666489,17.8108674646,8.3703582954
 H,0,-6.3007603538,17.0160067004,7.5822689696
 H,0,-7.0425738021,18.4873406818,6.9386884607
 H,0,-5.1060013591,18.2998293576,9.3108442709
 H,0,-4.9511737128,19.3646427943,7.9041454845
 H,0,-6.8053997435,20.7607478073,8.6491424033
 H,0,-6.0496924731,20.3127433468,10.1926395755
 N,0,-7.2400270474,16.8640230723,11.0142821865
 C,0,-7.3669866364,15.9103261734,12.1026948289
 C,0,-7.6886204853,16.6800889895,13.3558278741
 O,0,-7.9223562074,17.8911839881,13.4122774711
 C,0,-6.1430173353,14.9640403028,12.2465608562
 C,0,-6.4758368638,13.5348986944,12.7120715067
 C,0,-7.1808610984,12.6409831676,11.6602761773
 C,0,-8.7010457953,12.492888264,11.8038442176
 N,0,-9.4106651344,13.7482755901,11.5106006749
 O,0,-7.7076510257,15.9121847523,14.4435558909
 H,0,-7.9322273569,16.4697761413,15.2126562843
 H,0,-7.0092945764,17.8119297812,11.2681750772
 H,0,-8.2590964657,15.2666869667,11.9171946726
 H,0,-5.4006732177,15.4130510095,12.9184160938
 H,0,-5.6801062284,14.9171869342,11.2552193225
 H,0,-5.5233135981,13.0660378937,12.9858762577
 H,0,-7.0683963907,13.5729466491,13.6336808086
 H,0,-6.757291364,11.6311948079,11.7207876757
 H,0,-6.9538359707,13.0030292895,10.6475477197
 H,0,-9.0310163882,11.662977691,11.1578438475
 H,0,-8.9404057693,12.2041688126,12.8353996793
 H,0,-9.2846326796,13.9952064389,10.528399827
 H,0,-10.4111763115,13.6321087835,11.6636101932
 Recover connectivity data from disk.
                           ----------------------------
                           !    Current Parameters    !
                           ! (Angstroms and Degrees)  !
 --------------------------                            --------------------------
 ! Name  Definition              Value                                          !
 --------------------------------------------------------------------------------
 ! R1    R(1,2)                  1.516                                          !
 ! R2    R(1,12)                 1.0233                                         !
 ! R3    R(1,21)                 1.0408                                         !
 ! R4    R(1,22)                 1.0346                                         !
 ! R5    R(2,3)                  1.5582                                         !
 ! R6    R(2,5)                  1.5412                                         !
 ! R7    R(2,13)                 1.0955                                         !
 ! R8    R(3,4)                  1.2382                                         !
 ! R9    R(3,23)                 1.3475                                         !
 ! R10   R(5,6)                  1.5174                                         !
 ! R11   R(5,14)                 1.0945                                         !
 ! R12   R(5,15)                 1.0922                                         !
 ! R13   R(6,7)                  1.4027                                         !
 ! R14   R(6,8)                  1.402                                          !
 ! R15   R(7,9)                  1.3968                                         !
 ! R16   R(7,16)                 1.0879                                         !
 ! R17   R(8,10)                 1.3955                                         !
 ! R18   R(8,17)                 1.0883                                         !
 ! R19   R(9,11)                 1.3962                                         !
 ! R20   R(9,18)                 1.0862                                         !
 ! R21   R(10,11)                1.3972                                         !
 ! R22   R(10,19)                1.0859                                         !
 ! R23   R(11,20)                1.0858                                         !
 ! R24   R(23,24)                1.4867                                         !
 ! R25   R(23,29)                1.4827                                         !
 ! R26   R(24,25)                1.5459                                         !
 ! R27   R(24,27)                1.5379                                         !
 ! R28   R(24,30)                1.0907                                         !
 ! R29   R(25,26)                1.2233                                         !
 ! R30   R(25,37)                1.3603                                         !
 ! R31   R(27,28)                1.5347                                         !
 ! R32   R(27,31)                1.0921                                         !
 ! R33   R(27,32)                1.0952                                         !
 ! R34   R(28,29)                1.5356                                         !
 ! R35   R(28,33)                1.096                                          !
 ! R36   R(28,34)                1.0925                                         !
 ! R37   R(29,35)                1.0966                                         !
 ! R38   R(29,36)                1.088                                          !
 ! R39   R(37,38)                1.4527                                         !
 ! R40   R(37,48)                1.0081                                         !
 ! R41   R(38,39)                1.5054                                         !
 ! R42   R(38,41)                1.5538                                         !
 ! R43   R(38,49)                1.1156                                         !
 ! R44   R(39,40)                1.2347                                         !
 ! R45   R(39,46)                1.3316                                         !
 ! R46   R(41,42)                1.5395                                         !
 ! R47   R(41,50)                1.0973                                         !
 ! R48   R(41,51)                1.0951                                         !
 ! R49   R(42,43)                1.55                                           !
 ! R50   R(42,52)                1.0964                                         !
 ! R51   R(42,53)                1.0963                                         !
 ! R52   R(43,44)                1.5341                                         !
 ! R53   R(43,54)                1.0967                                         !
 ! R54   R(43,55)                1.0992                                         !
 ! R55   R(44,45)                1.4716                                         !
 ! R56   R(44,56)                1.1022                                         !
 ! R57   R(44,57)                1.0976                                         !
 ! R58   R(45,58)                1.0206                                         !
 ! R59   R(45,59)                1.0188                                         !
 ! R60   R(46,47)                0.9761                                         !
 ! A1    A(2,1,12)             111.9356                                         !
 ! A2    A(2,1,21)             108.5683                                         !
 ! A3    A(2,1,22)             106.0787                                         !
 ! A4    A(12,1,21)            109.6411                                         !
 ! A5    A(12,1,22)            113.6606                                         !
 ! A6    A(21,1,22)            106.6897                                         !
 ! A7    A(1,2,3)              101.5012                                         !
 ! A8    A(1,2,5)              108.5935                                         !
 ! A9    A(1,2,13)             105.7765                                         !
 ! A10   A(3,2,5)              121.4515                                         !
 ! A11   A(3,2,13)             108.3065                                         !
 ! A12   A(5,2,13)             109.9193                                         !
 ! A13   A(2,3,4)              115.1702                                         !
 ! A14   A(2,3,23)             123.2441                                         !
 ! A15   A(4,3,23)             121.4368                                         !
 ! A16   A(2,5,6)              111.4629                                         !
 ! A17   A(2,5,14)             109.246                                          !
 ! A18   A(2,5,15)             108.0345                                         !
 ! A19   A(6,5,14)             110.1448                                         !
 ! A20   A(6,5,15)             109.6148                                         !
 ! A21   A(14,5,15)            108.2578                                         !
 ! A22   A(5,6,7)              120.4127                                         !
 ! A23   A(5,6,8)              120.3597                                         !
 ! A24   A(7,6,8)              119.1635                                         !
 ! A25   A(6,7,9)              120.3325                                         !
 ! A26   A(6,7,16)             119.5322                                         !
 ! A27   A(9,7,16)             120.1348                                         !
 ! A28   A(6,8,10)             120.4568                                         !
 ! A29   A(6,8,17)             119.8155                                         !
 ! A30   A(10,8,17)            119.7188                                         !
 ! A31   A(7,9,11)             120.1286                                         !
 ! A32   A(7,9,18)             119.795                                          !
 ! A33   A(11,9,18)            120.0747                                         !
 ! A34   A(8,10,11)            120.0593                                         !
 ! A35   A(8,10,19)            119.8077                                         !
 ! A36   A(11,10,19)           120.1307                                         !
 ! A37   A(9,11,10)            119.8582                                         !
 ! A38   A(9,11,20)            120.1003                                         !
 ! A39   A(10,11,20)           120.0404                                         !
 ! A40   A(3,23,24)            116.4974                                         !
 ! A41   A(3,23,29)            131.7317                                         !
 ! A42   A(24,23,29)           111.7016                                         !
 ! A43   A(23,24,25)           111.5433                                         !
 ! A44   A(23,24,27)           103.8113                                         !
 ! A45   A(23,24,30)           110.3105                                         !
 ! A46   A(25,24,27)           113.5255                                         !
 ! A47   A(25,24,30)           105.1447                                         !
 ! A48   A(27,24,30)           112.653                                          !
 ! A49   A(24,25,26)           119.6666                                         !
 ! A50   A(24,25,37)           115.7897                                         !
 ! A51   A(26,25,37)           124.5337                                         !
 ! A52   A(24,27,28)           103.6016                                         !
 ! A53   A(24,27,31)           111.423                                          !
 ! A54   A(24,27,32)           109.5347                                         !
 ! A55   A(28,27,31)           113.7285                                         !
 ! A56   A(28,27,32)           110.544                                          !
 ! A57   A(31,27,32)           107.9497                                         !
 ! A58   A(27,28,29)           103.5702                                         !
 ! A59   A(27,28,33)           110.2243                                         !
 ! A60   A(27,28,34)           113.4776                                         !
 ! A61   A(29,28,33)           109.6434                                         !
 ! A62   A(29,28,34)           111.8239                                         !
 ! A63   A(33,28,34)           108.0424                                         !
 ! A64   A(23,29,28)           103.0454                                         !
 ! A65   A(23,29,35)           109.524                                          !
 ! A66   A(23,29,36)           111.9907                                         !
 ! A67   A(28,29,35)           111.6387                                         !
 ! A68   A(28,29,36)           111.8041                                         !
 ! A69   A(35,29,36)           108.7671                                         !
 ! A70   A(25,37,38)           123.0614                                         !
 ! A71   A(25,37,48)           117.7812                                         !
 ! A72   A(38,37,48)           116.6551                                         !
 ! A73   A(37,38,39)           107.858                                          !
 ! A74   A(37,38,41)           113.6002                                         !
 ! A75   A(37,38,49)           108.9096                                         !
 ! A76   A(39,38,41)           113.7427                                         !
 ! A77   A(39,38,49)           105.2227                                         !
 ! A78   A(41,38,49)           107.0948                                         !
 ! A79   A(38,39,40)           125.4529                                         !
 ! A80   A(38,39,46)           112.8388                                         !
 ! A81   A(40,39,46)           121.7074                                         !
 ! A82   A(38,41,42)           115.0288                                         !
 ! A83   A(38,41,50)           109.9011                                         !
 ! A84   A(38,41,51)           105.9753                                         !
 ! A85   A(42,41,50)           109.937                                          !
 ! A86   A(42,41,51)           108.9902                                         !
 ! A87   A(50,41,51)           106.6068                                         !
 ! A88   A(41,42,43)           115.3753                                         !
 ! A89   A(41,42,52)           106.54                                           !
 ! A90   A(41,42,53)           109.8056                                         !
 ! A91   A(43,42,52)           108.5423                                         !
 ! A92   A(43,42,53)           110.1579                                         !
 ! A93   A(52,42,53)           105.9308                                         !
 ! A94   A(42,43,44)           116.2892                                         !
 ! A95   A(42,43,54)           108.5363                                         !
 ! A96   A(42,43,55)           109.9562                                         !
 ! A97   A(44,43,54)           106.7782                                         !
 ! A98   A(44,43,55)           108.825                                          !
 ! A99   A(54,43,55)           105.9225                                         !
 ! A100  A(43,44,45)           112.1379                                         !
 ! A101  A(43,44,56)           108.3294                                         !
 ! A102  A(43,44,57)           109.2346                                         !
 ! A103  A(45,44,56)           112.406                                          !
 ! A104  A(45,44,57)           107.8495                                         !
 ! A105  A(56,44,57)           106.7065                                         !
 ! A106  A(44,45,58)           109.7937                                         !
 ! A107  A(44,45,59)           110.2651                                         !
 ! A108  A(58,45,59)           107.0619                                         !
 ! A109  A(39,46,47)           108.5103                                         !
 ! D1    D(12,1,2,3)          -164.2425                                         !
 ! D2    D(12,1,2,5)            66.6894                                         !
 ! D3    D(12,1,2,13)          -51.2525                                         !
 ! D4    D(21,1,2,3)            74.5899                                         !
 ! D5    D(21,1,2,5)           -54.4781                                         !
 ! D6    D(21,1,2,13)         -172.42                                           !
 ! D7    D(22,1,2,3)           -39.7478                                         !
 ! D8    D(22,1,2,5)          -168.8159                                         !
 ! D9    D(22,1,2,13)           73.2422                                         !
 ! D10   D(1,2,3,4)             27.2289                                         !
 ! D11   D(1,2,3,23)          -148.3864                                         !
 ! D12   D(5,2,3,4)            147.6185                                         !
 ! D13   D(5,2,3,23)           -27.9968                                         !
 ! D14   D(13,2,3,4)           -83.8446                                         !
 ! D15   D(13,2,3,23)          100.5401                                         !
 ! D16   D(1,2,5,6)            -46.1516                                         !
 ! D17   D(1,2,5,14)            75.8019                                         !
 ! D18   D(1,2,5,15)          -166.6393                                         !
 ! D19   D(3,2,5,6)           -163.0469                                         !
 ! D20   D(3,2,5,14)           -41.0934                                         !
 ! D21   D(3,2,5,15)            76.4654                                         !
 ! D22   D(13,2,5,6)            69.127                                          !
 ! D23   D(13,2,5,14)         -168.9196                                         !
 ! D24   D(13,2,5,15)          -51.3607                                         !
 ! D25   D(2,3,23,24)          168.2344                                         !
 ! D26   D(2,3,23,29)          -15.0888                                         !
 ! D27   D(4,3,23,24)           -7.114                                          !
 ! D28   D(4,3,23,29)          169.5628                                         !
 ! D29   D(2,5,6,7)             98.9762                                         !
 ! D30   D(2,5,6,8)            -78.0885                                         !
 ! D31   D(14,5,6,7)           -22.4561                                         !
 ! D32   D(14,5,6,8)           160.4791                                         !
 ! D33   D(15,5,6,7)          -141.4684                                         !
 ! D34   D(15,5,6,8)            41.4669                                         !
 ! D35   D(5,6,7,9)           -177.5056                                         !
 ! D36   D(5,6,7,16)             2.746                                          !
 ! D37   D(8,6,7,9)             -0.406                                          !
 ! D38   D(8,6,7,16)           179.8456                                         !
 ! D39   D(5,6,8,10)           177.4398                                         !
 ! D40   D(5,6,8,17)            -3.6521                                         !
 ! D41   D(7,6,8,10)             0.3386                                         !
 ! D42   D(7,6,8,17)           179.2467                                         !
 ! D43   D(6,7,9,11)             0.2732                                         !
 ! D44   D(6,7,9,18)          -179.24                                           !
 ! D45   D(16,7,9,11)         -179.98                                           !
 ! D46   D(16,7,9,18)            0.5068                                         !
 ! D47   D(6,8,10,11)           -0.1376                                         !
 ! D48   D(6,8,10,19)          179.3106                                         !
 ! D49   D(17,8,10,11)        -179.0467                                         !
 ! D50   D(17,8,10,19)           0.4014                                         !
 ! D51   D(7,9,11,10)           -0.0676                                         !
 ! D52   D(7,9,11,20)         -179.6862                                         !
 ! D53   D(18,9,11,10)         179.4443                                         !
 ! D54   D(18,9,11,20)          -0.1744                                         !
 ! D55   D(8,10,11,9)           -0.0002                                         !
 ! D56   D(8,10,11,20)         179.6187                                         !
 ! D57   D(19,10,11,9)        -179.4465                                         !
 ! D58   D(19,10,11,20)          0.1724                                         !
 ! D59   D(3,23,24,25)         -67.633                                          !
 ! D60   D(3,23,24,27)         169.7537                                         !
 ! D61   D(3,23,24,30)          48.8298                                         !
 ! D62   D(29,23,24,25)        115.0356                                         !
 ! D63   D(29,23,24,27)         -7.5776                                         !
 ! D64   D(29,23,24,30)       -128.5015                                         !
 ! D65   D(3,23,29,28)         167.3426                                         !
 ! D66   D(3,23,29,35)         -73.7253                                         !
 ! D67   D(3,23,29,36)          47.0271                                         !
 ! D68   D(24,23,29,28)        -15.8583                                         !
 ! D69   D(24,23,29,35)        103.0738                                         !
 ! D70   D(24,23,29,36)       -136.1738                                         !
 ! D71   D(23,24,25,26)        162.981                                          !
 ! D72   D(23,24,25,37)        -18.1247                                         !
 ! D73   D(27,24,25,26)        -80.1605                                         !
 ! D74   D(27,24,25,37)         98.7338                                         !
 ! D75   D(30,24,25,26)         43.4131                                         !
 ! D76   D(30,24,25,37)       -137.6927                                         !
 ! D77   D(23,24,27,28)         27.9671                                         !
 ! D78   D(23,24,27,31)        150.6286                                         !
 ! D79   D(23,24,27,32)        -89.999                                          !
 ! D80   D(25,24,27,28)        -93.3275                                         !
 ! D81   D(25,24,27,31)         29.334                                          !
 ! D82   D(25,24,27,32)        148.7064                                         !
 ! D83   D(30,24,27,28)        147.3025                                         !
 ! D84   D(30,24,27,31)        -90.0361                                         !
 ! D85   D(30,24,27,32)         29.3363                                         !
 ! D86   D(24,25,37,38)        164.9156                                         !
 ! D87   D(24,25,37,48)          3.4821                                         !
 ! D88   D(26,25,37,38)        -16.2507                                         !
 ! D89   D(26,25,37,48)       -177.6843                                         !
 ! D90   D(24,27,28,29)        -38.0063                                         !
 ! D91   D(24,27,28,33)         79.2174                                         !
 ! D92   D(24,27,28,34)       -159.4585                                         !
 ! D93   D(31,27,28,29)       -159.1272                                         !
 ! D94   D(31,27,28,33)        -41.9035                                         !
 ! D95   D(31,27,28,34)         79.4206                                         !
 ! D96   D(32,27,28,29)         79.2561                                         !
 ! D97   D(32,27,28,33)       -163.5202                                         !
 ! D98   D(32,27,28,34)        -42.1961                                         !
 ! D99   D(27,28,29,23)         32.8708                                         !
 ! D100  D(27,28,29,35)        -84.5798                                         !
 ! D101  D(27,28,29,36)        153.3142                                         !
 ! D102  D(33,28,29,23)        -84.7589                                         !
 ! D103  D(33,28,29,35)        157.7906                                         !
 ! D104  D(33,28,29,36)         35.6846                                         !
 ! D105  D(34,28,29,23)        155.4272                                         !
 ! D106  D(34,28,29,35)         37.9767                                         !
 ! D107  D(34,28,29,36)        -84.1293                                         !
 ! D108  D(25,37,38,39)       -137.961                                          !
 ! D109  D(25,37,38,41)         94.9984                                         !
 ! D110  D(25,37,38,49)        -24.2598                                         !
 ! D111  D(48,37,38,39)         23.666                                          !
 ! D112  D(48,37,38,41)       -103.3746                                         !
 ! D113  D(48,37,38,49)        137.3672                                         !
 ! D114  D(37,38,39,40)          6.0607                                         !
 ! D115  D(37,38,39,46)       -174.2796                                         !
 ! D116  D(41,38,39,40)        133.0183                                         !
 ! D117  D(41,38,39,46)        -47.322                                          !
 ! D118  D(49,38,39,40)       -110.0772                                         !
 ! D119  D(49,38,39,46)         69.5825                                         !
 ! D120  D(37,38,41,42)       -145.6537                                         !
 ! D121  D(37,38,41,50)         89.6477                                         !
 ! D122  D(37,38,41,51)        -25.1745                                         !
 ! D123  D(39,38,41,42)         90.4451                                         !
 ! D124  D(39,38,41,50)        -34.2536                                         !
 ! D125  D(39,38,41,51)       -149.0757                                         !
 ! D126  D(49,38,41,42)        -25.3646                                         !
 ! D127  D(49,38,41,50)       -150.0632                                         !
 ! D128  D(49,38,41,51)         95.1147                                         !
 ! D129  D(38,39,46,47)       -179.2916                                         !
 ! D130  D(40,39,46,47)          0.3826                                         !
 ! D131  D(38,41,42,43)         72.1307                                         !
 ! D132  D(38,41,42,52)       -167.3379                                         !
 ! D133  D(38,41,42,53)        -53.0529                                         !
 ! D134  D(50,41,42,43)       -163.1894                                         !
 ! D135  D(50,41,42,52)        -42.658                                          !
 ! D136  D(50,41,42,53)         71.6269                                         !
 ! D137  D(51,41,42,43)        -46.6797                                         !
 ! D138  D(51,41,42,52)         73.8517                                         !
 ! D139  D(51,41,42,53)       -171.8634                                         !
 ! D140  D(41,42,43,44)       -100.1204                                         !
 ! D141  D(41,42,43,54)        139.5335                                         !
 ! D142  D(41,42,43,55)         24.0924                                         !
 ! D143  D(52,42,43,44)        140.4452                                         !
 ! D144  D(52,42,43,54)         20.0991                                         !
 ! D145  D(52,42,43,55)        -95.342                                          !
 ! D146  D(53,42,43,44)         24.8809                                         !
 ! D147  D(53,42,43,54)        -95.4653                                         !
 ! D148  D(53,42,43,55)        149.0937                                         !
 ! D149  D(42,43,44,45)         68.5024                                         !
 ! D150  D(42,43,44,56)       -166.8676                                         !
 ! D151  D(42,43,44,57)        -50.9977                                         !
 ! D152  D(54,43,44,45)       -170.2131                                         !
 ! D153  D(54,43,44,56)        -45.5832                                         !
 ! D154  D(54,43,44,57)         70.2867                                         !
 ! D155  D(55,43,44,45)        -56.2897                                         !
 ! D156  D(55,43,44,56)         68.3403                                         !
 ! D157  D(55,43,44,57)       -175.7898                                         !
 ! D158  D(43,44,45,58)         65.3573                                         !
 ! D159  D(43,44,45,59)       -176.914                                          !
 ! D160  D(56,44,45,58)        -56.9842                                         !
 ! D161  D(56,44,45,59)         60.7445                                         !
 ! D162  D(57,44,45,58)       -174.3348                                         !
 ! D163  D(57,44,45,59)        -56.6061                                         !
 --------------------------------------------------------------------------------
 Symmetry turned off by external request.
 Stoichiometry    C20H31N4O4(1+)
 Framework group  C1[X(C20H31N4O4)]
 Deg. of freedom   171
 Full point group                 C1      NOp   1
                          Input orientation:                          
 ---------------------------------------------------------------------
 Center     Atomic      Atomic             Coordinates (Angstroms)
 Number     Number       Type             X           Y           Z
 ---------------------------------------------------------------------
      1          7           0       -9.654491   19.960618   12.614343
      2          6           0       -8.760611   20.545251   11.538475
      3          6           0       -8.797153   19.421512   10.459678
      4          8           0       -9.821339   18.725662   10.458573
      5          6           0       -7.437057   20.992814   12.188912
      6          6           0       -7.682509   21.773826   13.466462
      7          6           0       -7.576182   21.144014   14.715266
      8          6           0       -8.078123   23.117690   13.410522
      9          6           0       -7.853107   21.850954   15.887698
     10          6           0       -8.355920   23.822648   14.582379
     11          6           0       -8.243715   23.189889   15.823054
     12          1           0       -9.953280   20.668963   13.289658
     13          1           0       -9.297024   21.416204   11.146393
     14          1           0       -6.821843   20.112078   12.397860
     15          1           0       -6.903400   21.620744   11.472097
     16          1           0       -7.272137   20.100650   14.765498
     17          1           0       -8.152222   23.620346   12.448081
     18          1           0       -7.756015   21.358170   16.850761
     19          1           0       -8.650664   24.866385   14.527451
     20          1           0       -8.453944   23.740447   16.735014
     21          1           0       -9.131710   19.206902   13.106133
     22          1           0      -10.438650   19.503193   12.118040
     23          7           0       -7.762897   19.151155    9.639270
     24          6           0       -7.848269   17.889163    8.858055
     25          6           0       -7.754559   16.647222    9.773801
     26          8           0       -8.114325   15.556291    9.353204
     27          6           0       -6.689032   18.000063    7.853545
     28          6           0       -5.668249   18.888738    8.577112
     29          6           0       -6.541308   19.921838    9.304184
     30          1           0       -8.820666   17.810867    8.370358
     31          1           0       -6.300760   17.016007    7.582269
     32          1           0       -7.042574   18.487341    6.938688
     33          1           0       -5.106001   18.299829    9.310844
     34          1           0       -4.951174   19.364643    7.904145
     35          1           0       -6.805400   20.760748    8.649142
     36          1           0       -6.049692   20.312743   10.192640
     37          7           0       -7.240027   16.864023   11.014282
     38          6           0       -7.366987   15.910326   12.102695
     39          6           0       -7.688620   16.680089   13.355828
     40          8           0       -7.922356   17.891184   13.412277
     41          6           0       -6.143017   14.964040   12.246561
     42          6           0       -6.475837   13.534899   12.712072
     43          6           0       -7.180861   12.640983   11.660276
     44          6           0       -8.701046   12.492888   11.803844
     45          7           0       -9.410665   13.748276   11.510601
     46          8           0       -7.707651   15.912185   14.443556
     47          1           0       -7.932227   16.469776   15.212656
     48          1           0       -7.009295   17.811930   11.268175
     49          1           0       -8.259096   15.266687   11.917195
     50          1           0       -5.400673   15.413051   12.918416
     51          1           0       -5.680106   14.917187   11.255219
     52          1           0       -5.523314   13.066038   12.985876
     53          1           0       -7.068396   13.572947   13.633681
     54          1           0       -6.757291   11.631195   11.720788
     55          1           0       -6.953836   13.003029   10.647548
     56          1           0       -9.031016   11.662978   11.157844
     57          1           0       -8.940406   12.204169   12.835400
     58          1           0       -9.284633   13.995206   10.528400
     59          1           0      -10.411176   13.632109   11.663610
 ---------------------------------------------------------------------
 Rotational constants (GHZ):           0.2616460           0.1107857           0.0887706
 Standard basis: 6-31G(d) (6D, 7F)
   482 basis functions,   908 primitive gaussians,   482 cartesian basis functions
   105 alpha electrons      105 beta electrons
       nuclear repulsion energy      2864.8776684192 Hartrees.
 NAtoms=   59 NActive=   59 NUniq=   59 SFac= 1.00D+00 NAtFMM=   60 NAOKFM=F Big=F
 Integral buffers will be    131072 words long.
 Raffenetti 2 integral format.
 Two-electron integral symmetry is turned off.
 Nuclear repulsion after empirical dispersion term =     2864.8018059112 Hartrees.
 One-electron integrals computed using PRISM.
 NBasis=   482 RedAO= T EigKep=  4.68D-04  NBF=   482
 NBsUse=   482 1.00D-06 EigRej= -1.00D+00 NBFU=   482
 Initial guess from the checkpoint file:  "conf-981.chk"
 B after Tr=     0.000000    0.000000    0.000000
         Rot=    1.000000    0.000000    0.000000    0.000000 Ang=   0.00 deg.
 Requested convergence on RMS density matrix=1.00D-08 within 128 cycles.
 Requested convergence on MAX density matrix=1.00D-06.
 Requested convergence on             energy=1.00D-06.
 No special actions if energy rises.
 SCF Done:  E(RB3LYP) =  -1300.60568383     A.U. after    1 cycles
            NFock=  1  Conv=0.61D-08     -V/T= 2.0095

 **********************************************************************

            Population analysis using the SCF Density.

 **********************************************************************

 Alpha  occ. eigenvalues --  -19.32468 -19.27873 -19.25775 -19.21441 -14.58020
 Alpha  occ. eigenvalues --  -14.50331 -14.46232 -14.39100 -10.45356 -10.43345
 Alpha  occ. eigenvalues --  -10.40544 -10.38912 -10.35124 -10.34152 -10.33814
 Alpha  occ. eigenvalues --  -10.32832 -10.31989 -10.30612 -10.30553 -10.30446
 Alpha  occ. eigenvalues --  -10.30163 -10.30100 -10.29921 -10.29862 -10.27815
 Alpha  occ. eigenvalues --  -10.27788 -10.25860 -10.25179  -1.23839  -1.18666
 Alpha  occ. eigenvalues --   -1.14628  -1.13530  -1.12582  -1.07486  -1.02853
 Alpha  occ. eigenvalues --   -0.97514  -0.95468  -0.93268  -0.91166  -0.89367
 Alpha  occ. eigenvalues --   -0.86940  -0.85937  -0.85701  -0.83898  -0.79922
 Alpha  occ. eigenvalues --   -0.78262  -0.77277  -0.74422  -0.73670  -0.72193
 Alpha  occ. eigenvalues --   -0.71418  -0.70894  -0.70413  -0.69735  -0.68942
 Alpha  occ. eigenvalues --   -0.68486  -0.64999  -0.64176  -0.64008  -0.62819
 Alpha  occ. eigenvalues --   -0.62094  -0.61521  -0.60313  -0.59087  -0.58306
 Alpha  occ. eigenvalues --   -0.57529  -0.56840  -0.56636  -0.56330  -0.56017
 Alpha  occ. eigenvalues --   -0.54898  -0.54271  -0.53685  -0.53383  -0.53183
 Alpha  occ. eigenvalues --   -0.52642  -0.52214  -0.52162  -0.51577  -0.51098
 Alpha  occ. eigenvalues --   -0.50754  -0.49927  -0.48965  -0.48798  -0.47956
 Alpha  occ. eigenvalues --   -0.47469  -0.47088  -0.46831  -0.45741  -0.45408
 Alpha  occ. eigenvalues --   -0.45020  -0.44907  -0.44396  -0.43251  -0.41728
 Alpha  occ. eigenvalues --   -0.40832  -0.40351  -0.40158  -0.39886  -0.38897
 Alpha  occ. eigenvalues --   -0.36462  -0.36083  -0.35648  -0.34555  -0.31303
 Alpha virt. eigenvalues --   -0.13538  -0.12286  -0.11907  -0.11676  -0.07862
 Alpha virt. eigenvalues --   -0.06749  -0.05171  -0.04256  -0.03272  -0.02468
 Alpha virt. eigenvalues --   -0.01207  -0.00571   0.00698   0.01113   0.01333
 Alpha virt. eigenvalues --    0.01870   0.02342   0.02660   0.03203   0.03247
 Alpha virt. eigenvalues --    0.04264   0.04411   0.04567   0.04930   0.05255
 Alpha virt. eigenvalues --    0.05641   0.06414   0.06720   0.07038   0.07295
 Alpha virt. eigenvalues --    0.07822   0.08374   0.09029   0.09155   0.09680
 Alpha virt. eigenvalues --    0.10282   0.10425   0.10731   0.10921   0.11383
 Alpha virt. eigenvalues --    0.12155   0.12597   0.12995   0.13179   0.14280
 Alpha virt. eigenvalues --    0.14690   0.15494   0.16043   0.16898   0.17506
 Alpha virt. eigenvalues --    0.17893   0.19663   0.19845   0.20779   0.22151
 Alpha virt. eigenvalues --    0.22595   0.22778   0.23225   0.23765   0.24316
 Alpha virt. eigenvalues --    0.26246   0.28356   0.28512   0.32696   0.33379
 Alpha virt. eigenvalues --    0.35393   0.37936   0.39147   0.40214   0.40542
 Alpha virt. eigenvalues --    0.41106   0.41787   0.42597   0.43024   0.43236
 Alpha virt. eigenvalues --    0.43303   0.43738   0.44114   0.44905   0.45324
 Alpha virt. eigenvalues --    0.45901   0.46522   0.46783   0.47540   0.48218
 Alpha virt. eigenvalues --    0.48322   0.48683   0.49365   0.49485   0.50188
 Alpha virt. eigenvalues --    0.50349   0.50765   0.51019   0.51527   0.52203
 Alpha virt. eigenvalues --    0.52763   0.53477   0.54146   0.55248   0.55630
 Alpha virt. eigenvalues --    0.56041   0.56089   0.56996   0.57845   0.58605
 Alpha virt. eigenvalues --    0.59299   0.59776   0.60793   0.62067   0.63600
 Alpha virt. eigenvalues --    0.63712   0.64407   0.65950   0.66127   0.66624
 Alpha virt. eigenvalues --    0.66808   0.68509   0.68873   0.69269   0.69789
 Alpha virt. eigenvalues --    0.70307   0.70914   0.71739   0.72160   0.72596
 Alpha virt. eigenvalues --    0.72995   0.73277   0.73372   0.74158   0.74189
 Alpha virt. eigenvalues --    0.74756   0.75068   0.75589   0.76217   0.76728
 Alpha virt. eigenvalues --    0.76851   0.77687   0.77930   0.79082   0.79561
 Alpha virt. eigenvalues --    0.79734   0.80623   0.80972   0.81352   0.81700
 Alpha virt. eigenvalues --    0.82346   0.83131   0.83615   0.83996   0.84399
 Alpha virt. eigenvalues --    0.85085   0.85433   0.86025   0.86790   0.87107
 Alpha virt. eigenvalues --    0.87884   0.88058   0.88524   0.89179   0.90300
 Alpha virt. eigenvalues --    0.90485   0.91076   0.92229   0.92422   0.94308
 Alpha virt. eigenvalues --    0.94933   0.95785   0.97129   0.98686   0.99908
 Alpha virt. eigenvalues --    1.00530   1.01400   1.02668   1.03612   1.04815
 Alpha virt. eigenvalues --    1.05543   1.05633   1.06622   1.07974   1.09298
 Alpha virt. eigenvalues --    1.10676   1.12004   1.13104   1.14240   1.16719
 Alpha virt. eigenvalues --    1.17844   1.18542   1.18946   1.20110   1.20571
 Alpha virt. eigenvalues --    1.22553   1.24238   1.25476   1.27887   1.27975
 Alpha virt. eigenvalues --    1.28843   1.30335   1.31649   1.32182   1.33030
 Alpha virt. eigenvalues --    1.34204   1.36509   1.37184   1.37914   1.38309
 Alpha virt. eigenvalues --    1.39481   1.40033   1.40842   1.42797   1.42872
 Alpha virt. eigenvalues --    1.44856   1.46828   1.49421   1.50835   1.51463
 Alpha virt. eigenvalues --    1.51643   1.54049   1.55299   1.56191   1.57559
 Alpha virt. eigenvalues --    1.58873   1.60432   1.61371   1.61492   1.62893
 Alpha virt. eigenvalues --    1.63095   1.63635   1.64993   1.65852   1.66761
 Alpha virt. eigenvalues --    1.67944   1.68307   1.68531   1.69348   1.69888
 Alpha virt. eigenvalues --    1.70085   1.71610   1.72363   1.73632   1.74206
 Alpha virt. eigenvalues --    1.75465   1.76013   1.76518   1.77282   1.77756
 Alpha virt. eigenvalues --    1.78748   1.79049   1.80691   1.81802   1.82063
 Alpha virt. eigenvalues --    1.82112   1.82996   1.83445   1.83909   1.85234
 Alpha virt. eigenvalues --    1.86200   1.86800   1.87426   1.88105   1.89334
 Alpha virt. eigenvalues --    1.90873   1.92327   1.92718   1.93336   1.93715
 Alpha virt. eigenvalues --    1.94348   1.95364   1.96285   1.97058   1.97476
 Alpha virt. eigenvalues --    1.98653   1.98864   1.99218   2.00957   2.01804
 Alpha virt. eigenvalues --    2.02880   2.03618   2.04535   2.05643   2.06112
 Alpha virt. eigenvalues --    2.06375   2.08925   2.10461   2.11177   2.11864
 Alpha virt. eigenvalues --    2.13039   2.15216   2.17580   2.18734   2.19595
 Alpha virt. eigenvalues --    2.20241   2.20788   2.21710   2.22351   2.23800
 Alpha virt. eigenvalues --    2.23837   2.26831   2.28071   2.28154   2.28742
 Alpha virt. eigenvalues --    2.29737   2.30857   2.32158   2.33519   2.36031
 Alpha virt. eigenvalues --    2.36977   2.38413   2.39508   2.39749   2.41215
 Alpha virt. eigenvalues --    2.42881   2.43970   2.45002   2.45902   2.47124
 Alpha virt. eigenvalues --    2.48300   2.48961   2.49292   2.49899   2.50610
 Alpha virt. eigenvalues --    2.52679   2.54139   2.54493   2.55361   2.57596
 Alpha virt. eigenvalues --    2.58573   2.60567   2.61411   2.62884   2.62956
 Alpha virt. eigenvalues --    2.63639   2.64361   2.65847   2.66450   2.69578
 Alpha virt. eigenvalues --    2.70945   2.72360   2.77194   2.80372   2.85146
 Alpha virt. eigenvalues --    2.86082   2.91240   2.92023   2.93688   2.94497
 Alpha virt. eigenvalues --    2.99791   3.07186   3.10172   3.29454   3.73145
 Alpha virt. eigenvalues --    3.77500   3.84902   3.91705   3.94708   3.98424
 Alpha virt. eigenvalues --    3.99529   4.01409   4.03646   4.07113   4.08970
 Alpha virt. eigenvalues --    4.09755   4.13273   4.18357   4.20314   4.23111
 Alpha virt. eigenvalues --    4.24472   4.26375   4.27791   4.32312   4.41705
 Alpha virt. eigenvalues --    4.44836   4.46375   4.48783   4.51186   4.59137
 Alpha virt. eigenvalues --    4.62355   4.66218
          Condensed to atoms (all electrons):
 Mulliken charges:
               1
     1  N   -0.762865
     2  C   -0.105249
     3  C    0.622191
     4  O   -0.526917
     5  C   -0.391442
     6  C    0.114720
     7  C   -0.211476
     8  C   -0.186892
     9  C   -0.126735
    10  C   -0.125849
    11  C   -0.124079
    12  H    0.408044
    13  H    0.223045
    14  H    0.188773
    15  H    0.195255
    16  H    0.151378
    17  H    0.142666
    18  H    0.159542
    19  H    0.165916
    20  H    0.166788
    21  H    0.448487
    22  H    0.422104
    23  N   -0.492092
    24  C   -0.039924
    25  C    0.620719
    26  O   -0.514048
    27  C   -0.307302
    28  C   -0.307839
    29  C   -0.148250
    30  H    0.214306
    31  H    0.199229
    32  H    0.176489
    33  H    0.169545
    34  H    0.185518
    35  H    0.183949
    36  H    0.176731
    37  N   -0.612998
    38  C   -0.073325
    39  C    0.597255
    40  O   -0.551607
    41  C   -0.274341
    42  C   -0.270511
    43  C   -0.275595
    44  C   -0.135655
    45  N   -0.755806
    46  O   -0.520427
    47  H    0.425931
    48  H    0.332984
    49  H    0.291089
    50  H    0.141217
    51  H    0.169335
    52  H    0.149886
    53  H    0.156847
    54  H    0.151944
    55  H    0.152212
    56  H    0.138208
    57  H    0.145220
    58  H    0.344480
    59  H    0.309219
 Sum of Mulliken charges =   1.00000
 Mulliken charges with hydrogens summed into heavy atoms:
               1
     1  N    0.515771
     2  C    0.117796
     3  C    0.622191
     4  O   -0.526917
     5  C   -0.007414
     6  C    0.114720
     7  C   -0.060098
     8  C   -0.044226
     9  C    0.032808
    10  C    0.040067
    11  C    0.042708
    23  N   -0.492092
    24  C    0.174383
    25  C    0.620719
    26  O   -0.514048
    27  C    0.068416
    28  C    0.047224
    29  C    0.212430
    37  N   -0.280014
    38  C    0.217763
    39  C    0.597255
    40  O   -0.551607
    41  C    0.036210
    42  C    0.036223
    43  C    0.028561
    44  C    0.147773
    45  N   -0.102107
    46  O   -0.094496
 Electronic spatial extent (au):  <R**2>=         409689.8851
 Charge=              1.0000 electrons
 Dipole moment (field-independent basis, Debye):
    X=            -39.0836    Y=             94.2468    Z=             59.7298  Tot=            118.2270
 Quadrupole moment (field-independent basis, Debye-Ang):
   XX=            168.3464   YY=           1728.7454   ZZ=            613.5903
   XY=           -772.8669   XZ=           -499.9157   YZ=           1169.0644
 Traceless Quadrupole moment (field-independent basis, Debye-Ang):
   XX=           -668.5476   YY=            891.8514   ZZ=           -223.3038
   XY=           -772.8669   XZ=           -499.9157   YZ=           1169.0644
 Octapole moment (field-independent basis, Debye-Ang**2):
  XXX=            883.3040  YYY=          29762.8339  ZZZ=           4684.6880  XYY=         -14383.5249
  XXY=           3605.2688  XXZ=           2392.3921  XZZ=          -5356.6324  YZZ=          12227.9771
  YYZ=          21519.6644  XYZ=          -9861.0367
 Hexadecapole moment (field-independent basis, Debye-Ang**3):
 XXXX=         -33755.6765 YYYY=         467866.3151 ZZZZ=           3921.3501 XXXY=          11645.6812
 XXXZ=           6725.0807 YYYX=        -253385.4705 YYYZ=         373480.2101 ZZZX=         -45082.3920
 ZZZY=          98892.0023 XXYY=          67876.9503 XXZZ=          24192.0618 YYZZ=         225568.4422
 XXYZ=          50044.8819 YYXZ=        -184348.3641 ZZXY=        -107477.2373
 N-N= 2.864801805911D+03 E-N=-8.731870410530D+03  KE= 1.288372873059D+03
 Unable to Open any file for archive entry.
 1\1\GINC-LAC-314\SP\RB3LYP\6-31G(d)\C20H31N4O4(1+)\KENGMITH\25-May-202
 2\0\\# B3LYP/6-31G* empiricaldispersion=gd3 guess=read geom=check nosy
 mm integral(ultrafinegrid)\\Candidate Structure: Conf:981 Charge calc 
 in gas phase\\1,1\N,0,-9.6544914086,19.9606176477,12.6143430788\C,0,-8
 .7606110218,20.5452514663,11.5384750361\C,0,-8.797152762,19.4215121168
 ,10.459677778\O,0,-9.8213393209,18.7256617153,10.458572963\C,0,-7.4370
 571144,20.9928141583,12.1889119723\C,0,-7.6825089151,21.7738264517,13.
 4664620339\C,0,-7.5761823301,21.1440135197,14.7152656926\C,0,-8.078122
 939,23.1176899238,13.4105219469\C,0,-7.8531072822,21.8509536977,15.887
 6980471\C,0,-8.3559204815,23.8226481427,14.5823792513\C,0,-8.243715302
 5,23.1898893895,15.8230538766\H,0,-9.9532802192,20.6689634495,13.28965
 80484\H,0,-9.2970235443,21.4162035555,11.1463931401\H,0,-6.8218427738,
 20.1120775508,12.3978596276\H,0,-6.9033995183,21.6207436204,11.4720973
 559\H,0,-7.2721369172,20.1006497774,14.7654981645\H,0,-8.152221799,23.
 6203462925,12.4480812494\H,0,-7.7560149721,21.3581703623,16.8507610564
 \H,0,-8.6506644204,24.8663848322,14.52745108\H,0,-8.453943762,23.74044
 66659,16.7350140772\H,0,-9.1317100583,19.2069024021,13.1061330893\H,0,
 -10.4386498086,19.5031934558,12.1180397204\N,0,-7.7628974288,19.151155
 3977,9.6392698115\C,0,-7.8482687359,17.8891630689,8.8580551658\C,0,-7.
 7545590538,16.647221804,9.7738006703\O,0,-8.1143247759,15.5562910319,9
 .3532044725\C,0,-6.6890319135,18.0000634775,7.8535446559\C,0,-5.668249
 4646,18.8887380758,8.5771124554\C,0,-6.5413078667,19.9218379841,9.3041
 837997\H,0,-8.820666489,17.8108674646,8.3703582954\H,0,-6.3007603538,1
 7.0160067004,7.5822689696\H,0,-7.0425738021,18.4873406818,6.9386884607
 \H,0,-5.1060013591,18.2998293576,9.3108442709\H,0,-4.9511737128,19.364
 6427943,7.9041454845\H,0,-6.8053997435,20.7607478073,8.6491424033\H,0,
 -6.0496924731,20.3127433468,10.1926395755\N,0,-7.2400270474,16.8640230
 723,11.0142821865\C,0,-7.3669866364,15.9103261734,12.1026948289\C,0,-7
 .6886204853,16.6800889895,13.3558278741\O,0,-7.9223562074,17.891183988
 1,13.4122774711\C,0,-6.1430173353,14.9640403028,12.2465608562\C,0,-6.4
 758368638,13.5348986944,12.7120715067\C,0,-7.1808610984,12.6409831676,
 11.6602761773\C,0,-8.7010457953,12.492888264,11.8038442176\N,0,-9.4106
 651344,13.7482755901,11.5106006749\O,0,-7.7076510257,15.9121847523,14.
 4435558909\H,0,-7.9322273569,16.4697761413,15.2126562843\H,0,-7.009294
 5764,17.8119297812,11.2681750772\H,0,-8.2590964657,15.2666869667,11.91
 71946726\H,0,-5.4006732177,15.4130510095,12.9184160938\H,0,-5.68010622
 84,14.9171869342,11.2552193225\H,0,-5.5233135981,13.0660378937,12.9858
 762577\H,0,-7.0683963907,13.5729466491,13.6336808086\H,0,-6.757291364,
 11.6311948079,11.7207876757\H,0,-6.9538359707,13.0030292895,10.6475477
 197\H,0,-9.0310163882,11.662977691,11.1578438475\H,0,-8.9404057693,12.
 2041688126,12.8353996793\H,0,-9.2846326796,13.9952064389,10.528399827\
 H,0,-10.4111763115,13.6321087835,11.6636101932\\Version=ES64L-G16RevC.
 01\HF=-1300.6056838\RMSD=6.106e-09\Dipole=-0.6151805,2.8294883,1.08913
 5\Quadrupole=-497.0487566,663.0696265,-166.0208699,-574.6076172,-371.6
 750555,869.1707381\PG=C01 [X(C20H31N4O4)]\\@
 The archive entry for this job was punched.


 IT IS DOUBTED WHETHER A MAN EVER BRINGS HIS FACULTIES TO BEAR WITH THEIR FULL FORCE
 ON A SUBJECT UNTIL HE WRITES UPON IT.

                          -- CICERO
 Job cpu time:       0 days  0 hours  1 minutes 14.1 seconds.
 Elapsed time:       0 days  0 hours  0 minutes 18.9 seconds.
 File lengths (MBytes):  RWF=    240 Int=      0 D2E=      0 Chk=     32 Scr=     16
 Normal termination of Gaussian 16 at Wed May 25 19:10:03 2022.
