 Entering Gaussian System, Link 0=/opt/software/Gaussian/g16-AVX2-C.01/g16/g16
 Input=charge-conf-746.com
 Output=charge-conf-746.log
 Initial command:
 /opt/software/Gaussian/g16-AVX2-C.01/g16/l1.exe "/mnt/gs18/scratch/users/kengmith/Gau-12513.inp" -scrdir="/mnt/gs18/scratch/users/kengmith/"
 Entering Link 1 = /opt/software/Gaussian/g16-AVX2-C.01/g16/l1.exe PID=     12524.
  
 Copyright (c) 1988-2019, Gaussian, Inc.  All Rights Reserved.
  
 This is part of the Gaussian(R) 16 program.  It is based on
 the Gaussian(R) 09 system (copyright 2009, Gaussian, Inc.),
 the Gaussian(R) 03 system (copyright 2003, Gaussian, Inc.),
 the Gaussian(R) 98 system (copyright 1998, Gaussian, Inc.),
 the Gaussian(R) 94 system (copyright 1995, Gaussian, Inc.),
 the Gaussian 92(TM) system (copyright 1992, Gaussian, Inc.),
 the Gaussian 90(TM) system (copyright 1990, Gaussian, Inc.),
 the Gaussian 88(TM) system (copyright 1988, Gaussian, Inc.),
 the Gaussian 86(TM) system (copyright 1986, Carnegie Mellon
 University), and the Gaussian 82(TM) system (copyright 1983,
 Carnegie Mellon University). Gaussian is a federally registered
 trademark of Gaussian, Inc.
  
 This software contains proprietary and confidential information,
 including trade secrets, belonging to Gaussian, Inc.
  
 This software is provided under written license and may be
 used, copied, transmitted, or stored only in accord with that
 written license.
  
 The following legend is applicable only to US Government
 contracts under FAR:
  
                    RESTRICTED RIGHTS LEGEND
  
 Use, reproduction and disclosure by the US Government is
 subject to restrictions as set forth in subparagraphs (a)
 and (c) of the Commercial Computer Software - Restricted
 Rights clause in FAR 52.227-19.
  
 Gaussian, Inc.
 340 Quinnipiac St., Bldg. 40, Wallingford CT 06492
  
  
 ---------------------------------------------------------------
 Warning -- This program may not be used in any manner that
 competes with the business of Gaussian, Inc. or will provide
 assistance to any competitor of Gaussian, Inc.  The licensee
 of this program is prohibited from giving any competitor of
 Gaussian, Inc. access to this program.  By using this program,
 the user acknowledges that Gaussian, Inc. is engaged in the
 business of creating and licensing software in the field of
 computational chemistry and represents and warrants to the
 licensee that it is not a competitor of Gaussian, Inc. and that
 it will not use this program in any manner prohibited above.
 ---------------------------------------------------------------
  

 Cite this work as:
 Gaussian 16, Revision C.01,
 M. J. Frisch, G. W. Trucks, H. B. Schlegel, G. E. Scuseria, 
 M. A. Robb, J. R. Cheeseman, G. Scalmani, V. Barone, 
 G. A. Petersson, H. Nakatsuji, X. Li, M. Caricato, A. V. Marenich, 
 J. Bloino, B. G. Janesko, R. Gomperts, B. Mennucci, H. P. Hratchian, 
 J. V. Ortiz, A. F. Izmaylov, J. L. Sonnenberg, D. Williams-Young, 
 F. Ding, F. Lipparini, F. Egidi, J. Goings, B. Peng, A. Petrone, 
 T. Henderson, D. Ranasinghe, V. G. Zakrzewski, J. Gao, N. Rega, 
 G. Zheng, W. Liang, M. Hada, M. Ehara, K. Toyota, R. Fukuda, 
 J. Hasegawa, M. Ishida, T. Nakajima, Y. Honda, O. Kitao, H. Nakai, 
 T. Vreven, K. Throssell, J. A. Montgomery, Jr., J. E. Peralta, 
 F. Ogliaro, M. J. Bearpark, J. J. Heyd, E. N. Brothers, K. N. Kudin, 
 V. N. Staroverov, T. A. Keith, R. Kobayashi, J. Normand, 
 K. Raghavachari, A. P. Rendell, J. C. Burant, S. S. Iyengar, 
 J. Tomasi, M. Cossi, J. M. Millam, M. Klene, C. Adamo, R. Cammi, 
 J. W. Ochterski, R. L. Martin, K. Morokuma, O. Farkas, 
 J. B. Foresman, and D. J. Fox, Gaussian, Inc., Wallingford CT, 2019.
 
 ******************************************
 Gaussian 16:  ES64L-G16RevC.01  3-Jul-2019
                25-May-2022 
 ******************************************
 %mem=8gb
 %nproc=4
 Will use up to    4 processors via shared memory.
 %chk=conf-746.chk
 ----------------------------------------------------------------------
 # B3LYP/6-31G* empiricaldispersion=gd3 guess=read geom=check nosymm in
 tegral(ultrafinegrid)
 ----------------------------------------------------------------------
 1/29=2,38=1,172=1/1;
 2/12=2,15=1,40=1/2;
 3/5=1,6=6,7=1,11=2,14=-4,25=1,30=1,74=-5,75=-5,116=-2,124=31/1,2,3;
 4/5=1/1;
 5/5=2,38=6/2;
 6/7=2,8=2,9=2,10=2,28=1/1;
 99/5=1,9=1/99;
 ------------------------------------------------------
 Candidate Structure: Conf:746 Charge calc in gas phase
 ------------------------------------------------------
 Structure from the checkpoint file:  "conf-746.chk"
 Charge =  1 Multiplicity = 1
 Redundant internal coordinates found in file.  (old form).
 N,0,-6.0332073544,17.8966408566,9.5905277756
 C,0,-6.9995265575,19.0508367061,9.4300057707
 C,0,-6.71484715,19.9116898308,10.6858321644
 O,0,-5.6898761961,19.6570465014,11.3255236461
 C,0,-8.426330445,18.4803018819,9.277828029
 C,0,-8.4690754992,17.3318041688,8.2894540055
 C,0,-8.4825993097,16.0060416147,8.7475797201
 C,0,-8.4279890703,17.5771975915,6.9094008373
 C,0,-8.4653250054,14.9446759275,7.8394727731
 C,0,-8.4093698743,16.5164892941,6.0029313425
 C,0,-8.4275417935,15.1984541465,6.4670737645
 H,0,-6.3497522182,17.3224014448,10.3996636684
 H,0,-6.6999833006,19.5804724311,8.5191117145
 H,0,-8.7734685484,18.1475412433,10.2601227874
 H,0,-9.0801157176,19.2887665735,8.9447445515
 H,0,-8.5189576222,15.8085160384,9.8169998601
 H,0,-8.4291873146,18.6015349813,6.5416240256
 H,0,-8.4894530953,13.9219019464,8.2040896245
 H,0,-8.3896613416,16.7182176572,4.9360743219
 H,0,-8.4189598363,14.3736476934,5.7609876635
 H,0,-5.1144034258,18.2741486775,9.8571873334
 H,0,-5.9990977607,17.3168864482,8.7467640782
 N,0,-7.6148232472,20.8249883853,11.0983885127
 C,0,-7.4062464706,21.4373791033,12.4351312807
 C,0,-7.3406181001,20.3706578681,13.5420160946
 O,0,-6.6208172133,20.5053303197,14.5120758536
 C,0,-8.5899616158,22.4158394799,12.5554818273
 C,0,-8.8674557451,22.81619315,11.0978653252
 C,0,-8.6960318053,21.492288458,10.3396027051
 H,0,-6.4431691065,21.9534065053,12.4619771275
 H,0,-9.4598131389,21.9032081715,12.9829079044
 H,0,-8.3460016925,23.2607281776,13.2020233316
 H,0,-9.8607892125,23.2469540668,10.949565047
 H,0,-8.1236913983,23.5429317909,10.753405102
 H,0,-8.4125118271,21.6254922494,9.2915689424
 H,0,-9.6187042325,20.9012068616,10.3819866423
 N,0,-8.1888047132,19.2977029822,13.3604539758
 C,0,-7.9749857957,18.0466564376,14.0620797457
 C,0,-7.1338746669,17.1175470627,13.1897130275
 O,0,-7.2395747241,17.0434089293,11.9679416744
 C,0,-9.3212393062,17.3691996581,14.4086143649
 C,0,-9.2112803688,16.0406774734,15.1707390966
 C,0,-8.5324213212,16.1515196249,16.5413926834
 C,0,-8.4730021179,14.8100744843,17.2989749603
 N,0,-7.6885039989,13.7425061033,16.6759788251
 O,0,-6.3020637291,16.352726013,13.8926866186
 H,0,-5.8336596594,15.7468094481,13.2859976077
 H,0,-8.6534171778,19.222632816,12.4656688581
 H,0,-7.4127174002,18.2764363149,14.9680390308
 H,0,-9.8776788051,17.2178180639,13.4726758995
 H,0,-9.8851491054,18.0981767677,15.0016045642
 H,0,-10.2275932727,15.647137674,15.3034315329
 H,0,-8.6796343563,15.3016056513,14.5561611312
 H,0,-9.0706722017,16.8894489004,17.1534474204
 H,0,-7.5063974491,16.5275485254,16.4261594891
 H,0,-8.0581839893,14.9877950268,18.2982102247
 H,0,-9.4912560955,14.4289408549,17.4511861211
 H,0,-8.0978896762,13.4610687987,15.7877827989
 H,0,-6.743757557,14.0690242767,16.4776018849
 Recover connectivity data from disk.
                           ----------------------------
                           !    Current Parameters    !
                           ! (Angstroms and Degrees)  !
 --------------------------                            --------------------------
 ! Name  Definition              Value                                          !
 --------------------------------------------------------------------------------
 ! R1    R(1,2)                  1.5138                                         !
 ! R2    R(1,12)                 1.0415                                         !
 ! R3    R(1,21)                 1.0285                                         !
 ! R4    R(1,22)                 1.0243                                         !
 ! R5    R(2,3)                  1.5489                                         !
 ! R6    R(2,5)                  1.5442                                         !
 ! R7    R(2,13)                 1.0954                                         !
 ! R8    R(3,4)                  1.2348                                         !
 ! R9    R(3,23)                 1.3469                                         !
 ! R10   R(5,6)                  1.5158                                         !
 ! R11   R(5,14)                 1.0937                                         !
 ! R12   R(5,15)                 1.0918                                         !
 ! R13   R(6,7)                  1.4028                                         !
 ! R14   R(6,8)                  1.4023                                         !
 ! R15   R(7,9)                  1.3969                                         !
 ! R16   R(7,16)                 1.0881                                         !
 ! R17   R(8,10)                 1.3954                                         !
 ! R18   R(8,17)                 1.0884                                         !
 ! R19   R(9,11)                 1.3962                                         !
 ! R20   R(9,18)                 1.0861                                         !
 ! R21   R(10,11)                1.3975                                         !
 ! R22   R(10,19)                1.0859                                         !
 ! R23   R(11,20)                1.0858                                         !
 ! R24   R(23,24)                1.4851                                         !
 ! R25   R(23,29)                1.4799                                         !
 ! R26   R(24,25)                1.5386                                         !
 ! R27   R(24,27)                1.5405                                         !
 ! R28   R(24,30)                1.0929                                         !
 ! R29   R(25,26)                1.2154                                         !
 ! R30   R(25,37)                1.3797                                         !
 ! R31   R(27,28)                1.5369                                         !
 ! R32   R(27,31)                1.0964                                         !
 ! R33   R(27,32)                1.0915                                         !
 ! R34   R(28,29)                1.5353                                         !
 ! R35   R(28,33)                1.0928                                         !
 ! R36   R(28,34)                1.0954                                         !
 ! R37   R(29,35)                1.0938                                         !
 ! R38   R(29,36)                1.0966                                         !
 ! R39   R(37,38)                1.4502                                         !
 ! R40   R(37,48)                1.011                                          !
 ! R41   R(38,39)                1.527                                          !
 ! R42   R(38,41)                1.5464                                         !
 ! R43   R(38,49)                1.0907                                         !
 ! R44   R(39,40)                1.2286                                         !
 ! R45   R(39,46)                1.3308                                         !
 ! R46   R(41,42)                1.5355                                         !
 ! R47   R(41,50)                1.0993                                         !
 ! R48   R(41,51)                1.0959                                         !
 ! R49   R(42,43)                1.5336                                         !
 ! R50   R(42,52)                1.0979                                         !
 ! R51   R(42,53)                1.0984                                         !
 ! R52   R(43,44)                1.5417                                         !
 ! R53   R(43,54)                1.0995                                         !
 ! R54   R(43,55)                1.0988                                         !
 ! R55   R(44,45)                1.464                                          !
 ! R56   R(44,56)                1.0964                                         !
 ! R57   R(44,57)                1.0978                                         !
 ! R58   R(45,58)                1.0177                                         !
 ! R59   R(45,59)                1.0191                                         !
 ! R60   R(46,47)                0.977                                          !
 ! A1    A(2,1,12)             107.9842                                         !
 ! A2    A(2,1,21)             108.5351                                         !
 ! A3    A(2,1,22)             111.4347                                         !
 ! A4    A(12,1,21)            105.8114                                         !
 ! A5    A(12,1,22)            109.7565                                         !
 ! A6    A(21,1,22)            113.052                                          !
 ! A7    A(1,2,3)              102.7353                                         !
 ! A8    A(1,2,5)              108.5758                                         !
 ! A9    A(1,2,13)             106.3949                                         !
 ! A10   A(3,2,5)              117.0693                                         !
 ! A11   A(3,2,13)             110.8066                                         !
 ! A12   A(5,2,13)             110.4481                                         !
 ! A13   A(2,3,4)              117.2571                                         !
 ! A14   A(2,3,23)             120.1567                                         !
 ! A15   A(4,3,23)             122.3978                                         !
 ! A16   A(2,5,6)              111.7314                                         !
 ! A17   A(2,5,14)             108.4927                                         !
 ! A18   A(2,5,15)             108.0459                                         !
 ! A19   A(6,5,14)             110.252                                          !
 ! A20   A(6,5,15)             110.1965                                         !
 ! A21   A(14,5,15)            108.0137                                         !
 ! A22   A(5,6,7)              120.2257                                         !
 ! A23   A(5,6,8)              120.549                                          !
 ! A24   A(7,6,8)              119.1489                                         !
 ! A25   A(6,7,9)              120.3747                                         !
 ! A26   A(6,7,16)             119.5293                                         !
 ! A27   A(9,7,16)             120.0919                                         !
 ! A28   A(6,8,10)             120.4427                                         !
 ! A29   A(6,8,17)             119.8165                                         !
 ! A30   A(10,8,17)            119.7311                                         !
 ! A31   A(7,9,11)             120.0813                                         !
 ! A32   A(7,9,18)             119.7998                                         !
 ! A33   A(11,9,18)            120.1171                                         !
 ! A34   A(8,10,11)            120.0663                                         !
 ! A35   A(8,10,19)            119.817                                          !
 ! A36   A(11,10,19)           120.1144                                         !
 ! A37   A(9,11,10)            119.8845                                         !
 ! A38   A(9,11,20)            120.09                                           !
 ! A39   A(10,11,20)           120.0242                                         !
 ! A40   A(3,23,24)            117.4815                                         !
 ! A41   A(3,23,29)            129.5578                                         !
 ! A42   A(24,23,29)           112.222                                          !
 ! A43   A(23,24,25)           111.5705                                         !
 ! A44   A(23,24,27)           102.9631                                         !
 ! A45   A(23,24,30)           109.9115                                         !
 ! A46   A(25,24,27)           114.6409                                         !
 ! A47   A(25,24,30)           105.788                                          !
 ! A48   A(27,24,30)           112.0426                                         !
 ! A49   A(24,25,26)           121.5072                                         !
 ! A50   A(24,25,37)           114.7246                                         !
 ! A51   A(26,25,37)           123.7289                                         !
 ! A52   A(24,27,28)           103.3035                                         !
 ! A53   A(24,27,31)           110.0664                                         !
 ! A54   A(24,27,32)           111.4809                                         !
 ! A55   A(28,27,31)           110.3827                                         !
 ! A56   A(28,27,32)           113.6103                                         !
 ! A57   A(31,27,32)           107.958                                          !
 ! A58   A(27,28,29)           102.9224                                         !
 ! A59   A(27,28,33)           113.2979                                         !
 ! A60   A(27,28,34)           110.3935                                         !
 ! A61   A(29,28,33)           111.9856                                         !
 ! A62   A(29,28,34)           109.9359                                         !
 ! A63   A(33,28,34)           108.2388                                         !
 ! A64   A(23,29,28)           102.5432                                         !
 ! A65   A(23,29,35)           110.9038                                         !
 ! A66   A(23,29,36)           110.6014                                         !
 ! A67   A(28,29,35)           113.3994                                         !
 ! A68   A(28,29,36)           110.5957                                         !
 ! A69   A(35,29,36)           108.7089                                         !
 ! A70   A(25,37,38)           121.1016                                         !
 ! A71   A(25,37,48)           117.1758                                         !
 ! A72   A(38,37,48)           115.5877                                         !
 ! A73   A(37,38,39)           109.251                                          !
 ! A74   A(37,38,41)           110.9759                                         !
 ! A75   A(37,38,49)           107.2247                                         !
 ! A76   A(39,38,41)           109.9375                                         !
 ! A77   A(39,38,49)           108.5871                                         !
 ! A78   A(41,38,49)           110.7891                                         !
 ! A79   A(38,39,40)           123.8801                                         !
 ! A80   A(38,39,46)           113.0912                                         !
 ! A81   A(40,39,46)           122.9839                                         !
 ! A82   A(38,41,42)           115.3342                                         !
 ! A83   A(38,41,50)           108.0705                                         !
 ! A84   A(38,41,51)           106.129                                          !
 ! A85   A(42,41,50)           109.8563                                         !
 ! A86   A(42,41,51)           110.1078                                         !
 ! A87   A(50,41,51)           106.9668                                         !
 ! A88   A(41,42,43)           114.3785                                         !
 ! A89   A(41,42,52)           107.6873                                         !
 ! A90   A(41,42,53)           109.8215                                         !
 ! A91   A(43,42,52)           109.1268                                         !
 ! A92   A(43,42,53)           109.5386                                         !
 ! A93   A(52,42,53)           105.9309                                         !
 ! A94   A(42,43,44)           113.1635                                         !
 ! A95   A(42,43,54)           109.2288                                         !
 ! A96   A(42,43,55)           110.1419                                         !
 ! A97   A(44,43,54)           109.226                                          !
 ! A98   A(44,43,55)           108.2582                                         !
 ! A99   A(54,43,55)           106.6077                                         !
 ! A100  A(43,44,45)           116.4893                                         !
 ! A101  A(43,44,56)           108.7462                                         !
 ! A102  A(43,44,57)           109.5388                                         !
 ! A103  A(45,44,56)           107.6554                                         !
 ! A104  A(45,44,57)           107.6291                                         !
 ! A105  A(56,44,57)           106.3095                                         !
 ! A106  A(44,45,58)           110.9467                                         !
 ! A107  A(44,45,59)           110.2411                                         !
 ! A108  A(58,45,59)           106.9563                                         !
 ! A109  A(39,46,47)           109.1509                                         !
 ! D1    D(12,1,2,3)            68.7887                                         !
 ! D2    D(12,1,2,5)           -55.8319                                         !
 ! D3    D(12,1,2,13)         -174.7172                                         !
 ! D4    D(21,1,2,3)           -45.4774                                         !
 ! D5    D(21,1,2,5)          -170.0981                                         !
 ! D6    D(21,1,2,13)           71.0166                                         !
 ! D7    D(22,1,2,3)          -170.5983                                         !
 ! D8    D(22,1,2,5)            64.781                                          !
 ! D9    D(22,1,2,13)          -54.1043                                         !
 ! D10   D(1,2,3,4)             13.5361                                         !
 ! D11   D(1,2,3,23)          -161.5951                                         !
 ! D12   D(5,2,3,4)            132.37                                           !
 ! D13   D(5,2,3,23)           -42.7613                                         !
 ! D14   D(13,2,3,4)           -99.7577                                         !
 ! D15   D(13,2,3,23)           85.1111                                         !
 ! D16   D(1,2,5,6)            -46.2883                                         !
 ! D17   D(1,2,5,14)            75.4627                                         !
 ! D18   D(1,2,5,15)          -167.6704                                         !
 ! D19   D(3,2,5,6)           -161.9413                                         !
 ! D20   D(3,2,5,14)           -40.1903                                         !
 ! D21   D(3,2,5,15)            76.6766                                         !
 ! D22   D(13,2,5,6)            70.0133                                         !
 ! D23   D(13,2,5,14)         -168.2357                                         !
 ! D24   D(13,2,5,15)          -51.3688                                         !
 ! D25   D(2,3,23,24)          168.9881                                         !
 ! D26   D(2,3,23,29)          -21.7175                                         !
 ! D27   D(4,3,23,24)           -5.8853                                         !
 ! D28   D(4,3,23,29)          163.4092                                         !
 ! D29   D(2,5,6,7)            100.0113                                         !
 ! D30   D(2,5,6,8)            -76.7812                                         !
 ! D31   D(14,5,6,7)           -20.7198                                         !
 ! D32   D(14,5,6,8)           162.4876                                         !
 ! D33   D(15,5,6,7)          -139.8596                                         !
 ! D34   D(15,5,6,8)            43.3478                                         !
 ! D35   D(5,6,7,9)           -177.3066                                         !
 ! D36   D(5,6,7,16)             3.4362                                         !
 ! D37   D(8,6,7,9)             -0.4693                                         !
 ! D38   D(8,6,7,16)          -179.7265                                         !
 ! D39   D(5,6,8,10)           177.2306                                         !
 ! D40   D(5,6,8,17)            -3.9046                                         !
 ! D41   D(7,6,8,10)             0.4038                                         !
 ! D42   D(7,6,8,17)           179.2686                                         !
 ! D43   D(6,7,9,11)             0.326                                          !
 ! D44   D(6,7,9,18)          -179.1826                                         !
 ! D45   D(16,7,9,11)          179.5791                                         !
 ! D46   D(16,7,9,18)            0.0705                                         !
 ! D47   D(6,8,10,11)           -0.1945                                         !
 ! D48   D(6,8,10,19)          179.2623                                         !
 ! D49   D(17,8,10,11)        -179.0603                                         !
 ! D50   D(17,8,10,19)           0.3964                                         !
 ! D51   D(7,9,11,10)           -0.1111                                         !
 ! D52   D(7,9,11,20)         -179.7042                                         !
 ! D53   D(18,9,11,10)         179.3959                                         !
 ! D54   D(18,9,11,20)          -0.1971                                         !
 ! D55   D(8,10,11,9)            0.0455                                         !
 ! D56   D(8,10,11,20)         179.6388                                         !
 ! D57   D(19,10,11,9)        -179.4096                                         !
 ! D58   D(19,10,11,20)          0.1837                                         !
 ! D59   D(3,23,24,25)         -57.1197                                         !
 ! D60   D(3,23,24,27)         179.441                                          !
 ! D61   D(3,23,24,30)          59.9046                                         !
 ! D62   D(29,23,24,25)        131.7803                                         !
 ! D63   D(29,23,24,27)          8.341                                          !
 ! D64   D(29,23,24,30)       -111.1954                                         !
 ! D65   D(3,23,29,28)        -153.2886                                         !
 ! D66   D(3,23,29,35)         -31.9235                                         !
 ! D67   D(3,23,29,36)          88.7662                                         !
 ! D68   D(24,23,29,28)         16.4568                                         !
 ! D69   D(24,23,29,35)        137.8219                                         !
 ! D70   D(24,23,29,36)       -101.4884                                         !
 ! D71   D(23,24,25,26)        145.7206                                         !
 ! D72   D(23,24,25,37)        -36.4752                                         !
 ! D73   D(27,24,25,26)        -97.7459                                         !
 ! D74   D(27,24,25,37)         80.0583                                         !
 ! D75   D(30,24,25,26)         26.2253                                         !
 ! D76   D(30,24,25,37)       -155.9705                                         !
 ! D77   D(23,24,27,28)        -29.7618                                         !
 ! D78   D(23,24,27,31)         88.1035                                         !
 ! D79   D(23,24,27,32)       -152.1281                                         !
 ! D80   D(25,24,27,28)       -151.1373                                         !
 ! D81   D(25,24,27,31)        -33.2719                                         !
 ! D82   D(25,24,27,32)         86.4965                                         !
 ! D83   D(30,24,27,28)         88.2878                                         !
 ! D84   D(30,24,27,31)       -153.8469                                         !
 ! D85   D(30,24,27,32)        -34.0785                                         !
 ! D86   D(24,25,37,38)        161.2223                                         !
 ! D87   D(24,25,37,48)          9.9746                                         !
 ! D88   D(26,25,37,38)        -21.0287                                         !
 ! D89   D(26,25,37,48)       -172.2764                                         !
 ! D90   D(24,27,28,29)         40.285                                          !
 ! D91   D(24,27,28,33)        161.4165                                         !
 ! D92   D(24,27,28,34)        -77.0067                                         !
 ! D93   D(31,27,28,29)        -77.3588                                         !
 ! D94   D(31,27,28,33)         43.7726                                         !
 ! D95   D(31,27,28,34)        165.3495                                         !
 ! D96   D(32,27,28,29)        161.217                                          !
 ! D97   D(32,27,28,33)        -77.6515                                         !
 ! D98   D(32,27,28,34)         43.9254                                         !
 ! D99   D(27,28,29,23)        -34.4828                                         !
 ! D100  D(27,28,29,35)       -154.1232                                         !
 ! D101  D(27,28,29,36)         83.4663                                         !
 ! D102  D(33,28,29,23)       -156.5049                                         !
 ! D103  D(33,28,29,35)         83.8548                                         !
 ! D104  D(33,28,29,36)        -38.5557                                         !
 ! D105  D(34,28,29,23)         83.1323                                         !
 ! D106  D(34,28,29,35)        -36.5081                                         !
 ! D107  D(34,28,29,36)       -158.9186                                         !
 ! D108  D(25,37,38,39)        -92.7948                                         !
 ! D109  D(25,37,38,41)        145.8249                                         !
 ! D110  D(25,37,38,49)         24.7052                                         !
 ! D111  D(48,37,38,39)         58.8813                                         !
 ! D112  D(48,37,38,41)        -62.499                                          !
 ! D113  D(48,37,38,49)        176.3813                                         !
 ! D114  D(37,38,39,40)        -37.0487                                         !
 ! D115  D(37,38,39,46)        145.3236                                         !
 ! D116  D(41,38,39,40)         84.959                                          !
 ! D117  D(41,38,39,46)        -92.6687                                         !
 ! D118  D(49,38,39,40)       -153.6874                                         !
 ! D119  D(49,38,39,46)         28.6849                                         !
 ! D120  D(37,38,41,42)       -179.2887                                         !
 ! D121  D(37,38,41,50)         57.3598                                         !
 ! D122  D(37,38,41,51)        -57.0897                                         !
 ! D123  D(39,38,41,42)         59.7348                                         !
 ! D124  D(39,38,41,50)        -63.6167                                         !
 ! D125  D(39,38,41,51)       -178.0662                                         !
 ! D126  D(49,38,41,42)        -60.2912                                         !
 ! D127  D(49,38,41,50)        176.3573                                         !
 ! D128  D(49,38,41,51)         61.9078                                         !
 ! D129  D(38,39,46,47)        176.6474                                         !
 ! D130  D(40,39,46,47)         -1.0047                                         !
 ! D131  D(38,41,42,43)         61.4563                                         !
 ! D132  D(38,41,42,52)       -177.0707                                         !
 ! D133  D(38,41,42,53)        -62.1613                                         !
 ! D134  D(50,41,42,43)       -176.1416                                         !
 ! D135  D(50,41,42,52)        -54.6687                                         !
 ! D136  D(50,41,42,53)         60.2408                                         !
 ! D137  D(51,41,42,43)        -58.5857                                         !
 ! D138  D(51,41,42,52)         62.8873                                         !
 ! D139  D(51,41,42,53)        177.7967                                         !
 ! D140  D(41,42,43,44)        178.3525                                         !
 ! D141  D(41,42,43,54)         56.444                                          !
 ! D142  D(41,42,43,55)        -60.3225                                         !
 ! D143  D(52,42,43,44)         57.6745                                         !
 ! D144  D(52,42,43,54)        -64.234                                          !
 ! D145  D(52,42,43,55)        178.9995                                         !
 ! D146  D(53,42,43,44)        -57.8782                                         !
 ! D147  D(53,42,43,54)       -179.7867                                         !
 ! D148  D(53,42,43,55)         63.4469                                         !
 ! D149  D(42,43,44,45)         63.1786                                         !
 ! D150  D(42,43,44,56)       -175.0199                                         !
 ! D151  D(42,43,44,57)        -59.227                                          !
 ! D152  D(54,43,44,45)       -174.9114                                         !
 ! D153  D(54,43,44,56)        -53.1098                                         !
 ! D154  D(54,43,44,57)         62.683                                          !
 ! D155  D(55,43,44,45)        -59.2023                                         !
 ! D156  D(55,43,44,56)         62.5992                                         !
 ! D157  D(55,43,44,57)        178.3921                                         !
 ! D158  D(43,44,45,58)        -64.2455                                         !
 ! D159  D(43,44,45,59)         54.0479                                         !
 ! D160  D(56,44,45,58)        173.3809                                         !
 ! D161  D(56,44,45,59)        -68.3257                                         !
 ! D162  D(57,44,45,58)         59.1526                                         !
 ! D163  D(57,44,45,59)        177.446                                          !
 --------------------------------------------------------------------------------
 Symmetry turned off by external request.
 Stoichiometry    C20H31N4O4(1+)
 Framework group  C1[X(C20H31N4O4)]
 Deg. of freedom   171
 Full point group                 C1      NOp   1
                          Input orientation:                          
 ---------------------------------------------------------------------
 Center     Atomic      Atomic             Coordinates (Angstroms)
 Number     Number       Type             X           Y           Z
 ---------------------------------------------------------------------
      1          7           0       -6.033207   17.896641    9.590528
      2          6           0       -6.999527   19.050837    9.430006
      3          6           0       -6.714847   19.911690   10.685832
      4          8           0       -5.689876   19.657047   11.325524
      5          6           0       -8.426330   18.480302    9.277828
      6          6           0       -8.469075   17.331804    8.289454
      7          6           0       -8.482599   16.006042    8.747580
      8          6           0       -8.427989   17.577198    6.909401
      9          6           0       -8.465325   14.944676    7.839473
     10          6           0       -8.409370   16.516489    6.002931
     11          6           0       -8.427542   15.198454    6.467074
     12          1           0       -6.349752   17.322401   10.399664
     13          1           0       -6.699983   19.580472    8.519112
     14          1           0       -8.773469   18.147541   10.260123
     15          1           0       -9.080116   19.288767    8.944745
     16          1           0       -8.518958   15.808516    9.817000
     17          1           0       -8.429187   18.601535    6.541624
     18          1           0       -8.489453   13.921902    8.204090
     19          1           0       -8.389661   16.718218    4.936074
     20          1           0       -8.418960   14.373648    5.760988
     21          1           0       -5.114403   18.274149    9.857187
     22          1           0       -5.999098   17.316886    8.746764
     23          7           0       -7.614823   20.824988   11.098389
     24          6           0       -7.406246   21.437379   12.435131
     25          6           0       -7.340618   20.370658   13.542016
     26          8           0       -6.620817   20.505330   14.512076
     27          6           0       -8.589962   22.415839   12.555482
     28          6           0       -8.867456   22.816193   11.097865
     29          6           0       -8.696032   21.492288   10.339603
     30          1           0       -6.443169   21.953407   12.461977
     31          1           0       -9.459813   21.903208   12.982908
     32          1           0       -8.346002   23.260728   13.202023
     33          1           0       -9.860789   23.246954   10.949565
     34          1           0       -8.123691   23.542932   10.753405
     35          1           0       -8.412512   21.625492    9.291569
     36          1           0       -9.618704   20.901207   10.381987
     37          7           0       -8.188805   19.297703   13.360454
     38          6           0       -7.974986   18.046656   14.062080
     39          6           0       -7.133875   17.117547   13.189713
     40          8           0       -7.239575   17.043409   11.967942
     41          6           0       -9.321239   17.369200   14.408614
     42          6           0       -9.211280   16.040677   15.170739
     43          6           0       -8.532421   16.151520   16.541393
     44          6           0       -8.473002   14.810074   17.298975
     45          7           0       -7.688504   13.742506   16.675979
     46          8           0       -6.302064   16.352726   13.892687
     47          1           0       -5.833660   15.746809   13.285998
     48          1           0       -8.653417   19.222633   12.465669
     49          1           0       -7.412717   18.276436   14.968039
     50          1           0       -9.877679   17.217818   13.472676
     51          1           0       -9.885149   18.098177   15.001605
     52          1           0      -10.227593   15.647138   15.303432
     53          1           0       -8.679634   15.301606   14.556161
     54          1           0       -9.070672   16.889449   17.153447
     55          1           0       -7.506397   16.527549   16.426159
     56          1           0       -8.058184   14.987795   18.298210
     57          1           0       -9.491256   14.428941   17.451186
     58          1           0       -8.097890   13.461069   15.787783
     59          1           0       -6.743758   14.069024   16.477602
 ---------------------------------------------------------------------
 Rotational constants (GHZ):           0.1913792           0.1228984           0.0846552
 Standard basis: 6-31G(d) (6D, 7F)
   482 basis functions,   908 primitive gaussians,   482 cartesian basis functions
   105 alpha electrons      105 beta electrons
       nuclear repulsion energy      2830.0707150096 Hartrees.
 NAtoms=   59 NActive=   59 NUniq=   59 SFac= 1.00D+00 NAtFMM=   60 NAOKFM=F Big=F
 Integral buffers will be    131072 words long.
 Raffenetti 2 integral format.
 Two-electron integral symmetry is turned off.
 Nuclear repulsion after empirical dispersion term =     2829.9956237703 Hartrees.
 One-electron integrals computed using PRISM.
 NBasis=   482 RedAO= T EigKep=  4.70D-04  NBF=   482
 NBsUse=   482 1.00D-06 EigRej= -1.00D+00 NBFU=   482
 Initial guess from the checkpoint file:  "conf-746.chk"
 B after Tr=     0.000000    0.000000    0.000000
         Rot=    1.000000    0.000000    0.000000    0.000000 Ang=   0.00 deg.
 Requested convergence on RMS density matrix=1.00D-08 within 128 cycles.
 Requested convergence on MAX density matrix=1.00D-06.
 Requested convergence on             energy=1.00D-06.
 No special actions if energy rises.
 SCF Done:  E(RB3LYP) =  -1300.60084870     A.U. after    3 cycles
            NFock=  3  Conv=0.11D-08     -V/T= 2.0095

 **********************************************************************

            Population analysis using the SCF Density.

 **********************************************************************

 Alpha  occ. eigenvalues --  -19.33621 -19.28761 -19.26180 -19.22028 -14.59181
 Alpha  occ. eigenvalues --  -14.50523 -14.46831 -14.37963 -10.46129 -10.43572
 Alpha  occ. eigenvalues --  -10.41021 -10.39457 -10.35847 -10.35016 -10.34707
 Alpha  occ. eigenvalues --  -10.34156 -10.32417 -10.31052 -10.31003 -10.30969
 Alpha  occ. eigenvalues --  -10.30677 -10.30546 -10.30517 -10.30255 -10.29693
 Alpha  occ. eigenvalues --  -10.27663 -10.27377 -10.25819  -1.24776  -1.19074
 Alpha  occ. eigenvalues --   -1.15687  -1.14292  -1.13501  -1.08086  -1.03646
 Alpha  occ. eigenvalues --   -0.97962  -0.94780  -0.93983  -0.91556  -0.90825
 Alpha  occ. eigenvalues --   -0.87739  -0.86490  -0.86144  -0.84313  -0.80265
 Alpha  occ. eigenvalues --   -0.79231  -0.77756  -0.75166  -0.74510  -0.72861
 Alpha  occ. eigenvalues --   -0.72019  -0.71714  -0.71002  -0.70193  -0.69977
 Alpha  occ. eigenvalues --   -0.68467  -0.66069  -0.65325  -0.63819  -0.63549
 Alpha  occ. eigenvalues --   -0.62709  -0.62628  -0.61640  -0.59582  -0.59301
 Alpha  occ. eigenvalues --   -0.57873  -0.57453  -0.57285  -0.56518  -0.56220
 Alpha  occ. eigenvalues --   -0.55599  -0.54695  -0.54223  -0.54038  -0.53994
 Alpha  occ. eigenvalues --   -0.53451  -0.52935  -0.52716  -0.52082  -0.51335
 Alpha  occ. eigenvalues --   -0.50654  -0.50237  -0.49725  -0.49137  -0.48805
 Alpha  occ. eigenvalues --   -0.47827  -0.47472  -0.47175  -0.46274  -0.46204
 Alpha  occ. eigenvalues --   -0.45849  -0.45624  -0.45505  -0.44268  -0.43511
 Alpha  occ. eigenvalues --   -0.42150  -0.41470  -0.40458  -0.40345  -0.38771
 Alpha  occ. eigenvalues --   -0.36889  -0.36654  -0.36480  -0.35183  -0.29847
 Alpha virt. eigenvalues --   -0.14006  -0.13206  -0.12149  -0.12076  -0.08656
 Alpha virt. eigenvalues --   -0.07884  -0.06062  -0.05538  -0.04423  -0.03391
 Alpha virt. eigenvalues --   -0.02465  -0.01627  -0.00315   0.00358   0.00452
 Alpha virt. eigenvalues --    0.01179   0.01665   0.01886   0.01939   0.02620
 Alpha virt. eigenvalues --    0.03013   0.03473   0.03879   0.04410   0.04493
 Alpha virt. eigenvalues --    0.05592   0.05829   0.06445   0.06586   0.06987
 Alpha virt. eigenvalues --    0.07150   0.07842   0.08456   0.08791   0.08862
 Alpha virt. eigenvalues --    0.09119   0.09551   0.09658   0.10271   0.11105
 Alpha virt. eigenvalues --    0.11378   0.11467   0.12162   0.12636   0.13262
 Alpha virt. eigenvalues --    0.14641   0.15368   0.15561   0.16212   0.16542
 Alpha virt. eigenvalues --    0.17216   0.17916   0.18547   0.19317   0.20346
 Alpha virt. eigenvalues --    0.20860   0.21327   0.21889   0.22861   0.23228
 Alpha virt. eigenvalues --    0.25193   0.27272   0.28642   0.29461   0.32284
 Alpha virt. eigenvalues --    0.35460   0.36163   0.38122   0.39249   0.39772
 Alpha virt. eigenvalues --    0.40411   0.40901   0.41607   0.42331   0.42719
 Alpha virt. eigenvalues --    0.42971   0.43218   0.43302   0.44053   0.44788
 Alpha virt. eigenvalues --    0.45561   0.46027   0.46340   0.46807   0.47893
 Alpha virt. eigenvalues --    0.47957   0.49049   0.49117   0.49780   0.49836
 Alpha virt. eigenvalues --    0.50075   0.50645   0.50733   0.51176   0.51525
 Alpha virt. eigenvalues --    0.52006   0.52823   0.53406   0.53655   0.54497
 Alpha virt. eigenvalues --    0.54706   0.55144   0.55813   0.56799   0.57606
 Alpha virt. eigenvalues --    0.58686   0.59806   0.60624   0.60848   0.61540
 Alpha virt. eigenvalues --    0.63118   0.63339   0.64624   0.65472   0.66323
 Alpha virt. eigenvalues --    0.67025   0.67148   0.68167   0.68400   0.68696
 Alpha virt. eigenvalues --    0.69214   0.70120   0.71377   0.71740   0.72198
 Alpha virt. eigenvalues --    0.72451   0.72753   0.73018   0.73555   0.74039
 Alpha virt. eigenvalues --    0.74492   0.74640   0.75509   0.76122   0.76617
 Alpha virt. eigenvalues --    0.76896   0.77146   0.77499   0.78542   0.78969
 Alpha virt. eigenvalues --    0.79067   0.80213   0.80307   0.80863   0.81058
 Alpha virt. eigenvalues --    0.81529   0.81747   0.82161   0.83024   0.83371
 Alpha virt. eigenvalues --    0.83993   0.84792   0.85745   0.86151   0.86718
 Alpha virt. eigenvalues --    0.87048   0.87400   0.88355   0.89234   0.89610
 Alpha virt. eigenvalues --    0.90546   0.91504   0.93080   0.93843   0.94099
 Alpha virt. eigenvalues --    0.95263   0.96225   0.96690   0.98112   0.98331
 Alpha virt. eigenvalues --    0.99313   1.00601   1.01527   1.01744   1.02343
 Alpha virt. eigenvalues --    1.03265   1.04300   1.05837   1.06396   1.06997
 Alpha virt. eigenvalues --    1.07925   1.08374   1.11711   1.12072   1.13760
 Alpha virt. eigenvalues --    1.14620   1.16352   1.18249   1.19556   1.22462
 Alpha virt. eigenvalues --    1.23586   1.25216   1.25258   1.26408   1.27006
 Alpha virt. eigenvalues --    1.28810   1.30101   1.31017   1.31601   1.31809
 Alpha virt. eigenvalues --    1.32227   1.35019   1.35604   1.36483   1.37425
 Alpha virt. eigenvalues --    1.37615   1.38731   1.39387   1.39957   1.41311
 Alpha virt. eigenvalues --    1.41643   1.42754   1.44100   1.46025   1.47281
 Alpha virt. eigenvalues --    1.49081   1.50958   1.51584   1.52117   1.55077
 Alpha virt. eigenvalues --    1.58098   1.59115   1.59654   1.60485   1.61226
 Alpha virt. eigenvalues --    1.62543   1.63026   1.63484   1.64596   1.66661
 Alpha virt. eigenvalues --    1.67018   1.68102   1.68265   1.68595   1.68973
 Alpha virt. eigenvalues --    1.69892   1.70845   1.72299   1.72689   1.74063
 Alpha virt. eigenvalues --    1.74336   1.74983   1.76530   1.77218   1.77646
 Alpha virt. eigenvalues --    1.78034   1.78668   1.80102   1.80599   1.81518
 Alpha virt. eigenvalues --    1.82414   1.83856   1.84635   1.85777   1.86924
 Alpha virt. eigenvalues --    1.87100   1.87680   1.88026   1.88759   1.90428
 Alpha virt. eigenvalues --    1.90872   1.91577   1.92262   1.93234   1.93313
 Alpha virt. eigenvalues --    1.93820   1.95104   1.95451   1.95645   1.96913
 Alpha virt. eigenvalues --    1.98246   1.98535   1.98881   1.99617   2.01356
 Alpha virt. eigenvalues --    2.02074   2.02498   2.03267   2.04626   2.05676
 Alpha virt. eigenvalues --    2.06614   2.07134   2.09145   2.10204   2.11446
 Alpha virt. eigenvalues --    2.12455   2.13861   2.14766   2.16828   2.17592
 Alpha virt. eigenvalues --    2.18805   2.19164   2.20753   2.20942   2.22094
 Alpha virt. eigenvalues --    2.22976   2.24192   2.24902   2.27211   2.27955
 Alpha virt. eigenvalues --    2.28657   2.29807   2.32058   2.32497   2.33626
 Alpha virt. eigenvalues --    2.35182   2.35441   2.38241   2.39221   2.40398
 Alpha virt. eigenvalues --    2.41909   2.42931   2.44273   2.45235   2.46585
 Alpha virt. eigenvalues --    2.48227   2.49062   2.49895   2.50592   2.51431
 Alpha virt. eigenvalues --    2.53852   2.53985   2.55715   2.57391   2.57811
 Alpha virt. eigenvalues --    2.59512   2.59904   2.61426   2.62631   2.63136
 Alpha virt. eigenvalues --    2.63321   2.64937   2.64998   2.65794   2.66741
 Alpha virt. eigenvalues --    2.72125   2.72777   2.75880   2.79495   2.84962
 Alpha virt. eigenvalues --    2.86003   2.90963   2.92205   2.92653   2.95267
 Alpha virt. eigenvalues --    2.96655   3.04259   3.08273   3.29019   3.70254
 Alpha virt. eigenvalues --    3.71192   3.74731   3.91437   3.91736   3.97802
 Alpha virt. eigenvalues --    3.98309   4.00720   4.04570   4.05878   4.08867
 Alpha virt. eigenvalues --    4.11175   4.14900   4.16821   4.18696   4.21999
 Alpha virt. eigenvalues --    4.24176   4.27346   4.29908   4.34007   4.37278
 Alpha virt. eigenvalues --    4.41677   4.45028   4.45576   4.50093   4.57114
 Alpha virt. eigenvalues --    4.58787   4.66965
          Condensed to atoms (all electrons):
 Mulliken charges:
               1
     1  N   -0.749392
     2  C   -0.117687
     3  C    0.633347
     4  O   -0.527783
     5  C   -0.383386
     6  C    0.115412
     7  C   -0.213942
     8  C   -0.188199
     9  C   -0.125632
    10  C   -0.125453
    11  C   -0.124384
    12  H    0.441552
    13  H    0.218319
    14  H    0.189715
    15  H    0.193126
    16  H    0.153636
    17  H    0.141045
    18  H    0.162842
    19  H    0.166896
    20  H    0.168462
    21  H    0.418715
    22  H    0.409533
    23  N   -0.487487
    24  C   -0.024592
    25  C    0.615574
    26  O   -0.480603
    27  C   -0.315709
    28  C   -0.300162
    29  C   -0.147365
    30  H    0.208394
    31  H    0.170597
    32  H    0.200326
    33  H    0.184423
    34  H    0.179168
    35  H    0.173949
    36  H    0.172964
    37  N   -0.604669
    38  C   -0.055235
    39  C    0.625875
    40  O   -0.534806
    41  C   -0.279772
    42  C   -0.269902
    43  C   -0.272465
    44  C   -0.149226
    45  N   -0.698483
    46  O   -0.517493
    47  H    0.422457
    48  H    0.331508
    49  H    0.227898
    50  H    0.136644
    51  H    0.180066
    52  H    0.157682
    53  H    0.117829
    54  H    0.142740
    55  H    0.138750
    56  H    0.159655
    57  H    0.150104
    58  H    0.293015
    59  H    0.291608
 Sum of Mulliken charges =   1.00000
 Mulliken charges with hydrogens summed into heavy atoms:
               1
     1  N    0.520409
     2  C    0.100632
     3  C    0.633347
     4  O   -0.527783
     5  C   -0.000544
     6  C    0.115412
     7  C   -0.060306
     8  C   -0.047154
     9  C    0.037209
    10  C    0.041443
    11  C    0.044078
    23  N   -0.487487
    24  C    0.183803
    25  C    0.615574
    26  O   -0.480603
    27  C    0.055214
    28  C    0.063429
    29  C    0.199548
    37  N   -0.273161
    38  C    0.172663
    39  C    0.625875
    40  O   -0.534806
    41  C    0.036938
    42  C    0.005609
    43  C    0.009025
    44  C    0.160533
    45  N   -0.113860
    46  O   -0.095036
 Electronic spatial extent (au):  <R**2>=         409780.9379
 Charge=              1.0000 electrons
 Dipole moment (field-independent basis, Debye):
    X=            -37.0865    Y=             88.1018    Z=             45.8765  Tot=            106.0283
 Quadrupole moment (field-independent basis, Debye-Ang):
   XX=            133.4345   YY=           1482.9632   ZZ=            287.0711
   XY=           -694.4207   XZ=           -368.6221   YZ=            846.3956
 Traceless Quadrupole moment (field-independent basis, Debye-Ang):
   XX=           -501.0551   YY=            848.4736   ZZ=           -347.4185
   XY=           -694.4207   XZ=           -368.6221   YZ=            846.3956
 Octapole moment (field-independent basis, Debye-Ang**2):
  XXX=           1433.6254  YYY=          22535.4132  ZZZ=          -1319.3855  XYY=         -11964.1581
  XXY=           2681.7745  XXZ=           1156.8088  XZZ=          -2540.9781  YZZ=           5403.0703
  YYZ=          13927.7485  XYZ=          -6970.8616
 Hexadecapole moment (field-independent basis, Debye-Ang**3):
 XXXX=         -41907.5865 YYYY=         285027.9933 ZZZZ=        -102526.6709 XXXY=          23163.3733
 XXXZ=          19111.4880 YYYX=        -188204.7491 YYYZ=         198725.1941 ZZZX=           4620.0328
 ZZZY=         -20404.5267 XXYY=          44323.4494 XXZZ=           -861.1266 YYZZ=          77478.4086
 XXYZ=          24377.5420 YYXZ=        -118607.0677 ZZXY=         -49775.3612
 N-N= 2.829995623770D+03 E-N=-8.660973918635D+03  KE= 1.288378326889D+03
 Unable to Open any file for archive entry.
 1\1\GINC-LAC-310\SP\RB3LYP\6-31G(d)\C20H31N4O4(1+)\KENGMITH\25-May-202
 2\0\\# B3LYP/6-31G* empiricaldispersion=gd3 guess=read geom=check nosy
 mm integral(ultrafinegrid)\\Candidate Structure: Conf:746 Charge calc 
 in gas phase\\1,1\N,0,-6.0332073544,17.8966408566,9.5905277756\C,0,-6.
 9995265575,19.0508367061,9.4300057707\C,0,-6.71484715,19.9116898308,10
 .6858321644\O,0,-5.6898761961,19.6570465014,11.3255236461\C,0,-8.42633
 0445,18.4803018819,9.277828029\C,0,-8.4690754992,17.3318041688,8.28945
 40055\C,0,-8.4825993097,16.0060416147,8.7475797201\C,0,-8.4279890703,1
 7.5771975915,6.9094008373\C,0,-8.4653250054,14.9446759275,7.8394727731
 \C,0,-8.4093698743,16.5164892941,6.0029313425\C,0,-8.4275417935,15.198
 4541465,6.4670737645\H,0,-6.3497522182,17.3224014448,10.3996636684\H,0
 ,-6.6999833006,19.5804724311,8.5191117145\H,0,-8.7734685484,18.1475412
 433,10.2601227874\H,0,-9.0801157176,19.2887665735,8.9447445515\H,0,-8.
 5189576222,15.8085160384,9.8169998601\H,0,-8.4291873146,18.6015349813,
 6.5416240256\H,0,-8.4894530953,13.9219019464,8.2040896245\H,0,-8.38966
 13416,16.7182176572,4.9360743219\H,0,-8.4189598363,14.3736476934,5.760
 9876635\H,0,-5.1144034258,18.2741486775,9.8571873334\H,0,-5.9990977607
 ,17.3168864482,8.7467640782\N,0,-7.6148232472,20.8249883853,11.0983885
 127\C,0,-7.4062464706,21.4373791033,12.4351312807\C,0,-7.3406181001,20
 .3706578681,13.5420160946\O,0,-6.6208172133,20.5053303197,14.512075853
 6\C,0,-8.5899616158,22.4158394799,12.5554818273\C,0,-8.8674557451,22.8
 1619315,11.0978653252\C,0,-8.6960318053,21.492288458,10.3396027051\H,0
 ,-6.4431691065,21.9534065053,12.4619771275\H,0,-9.4598131389,21.903208
 1715,12.9829079044\H,0,-8.3460016925,23.2607281776,13.2020233316\H,0,-
 9.8607892125,23.2469540668,10.949565047\H,0,-8.1236913983,23.542931790
 9,10.753405102\H,0,-8.4125118271,21.6254922494,9.2915689424\H,0,-9.618
 7042325,20.9012068616,10.3819866423\N,0,-8.1888047132,19.2977029822,13
 .3604539758\C,0,-7.9749857957,18.0466564376,14.0620797457\C,0,-7.13387
 46669,17.1175470627,13.1897130275\O,0,-7.2395747241,17.0434089293,11.9
 679416744\C,0,-9.3212393062,17.3691996581,14.4086143649\C,0,-9.2112803
 688,16.0406774734,15.1707390966\C,0,-8.5324213212,16.1515196249,16.541
 3926834\C,0,-8.4730021179,14.8100744843,17.2989749603\N,0,-7.688503998
 9,13.7425061033,16.6759788251\O,0,-6.3020637291,16.352726013,13.892686
 6186\H,0,-5.8336596594,15.7468094481,13.2859976077\H,0,-8.6534171778,1
 9.222632816,12.4656688581\H,0,-7.4127174002,18.2764363149,14.968039030
 8\H,0,-9.8776788051,17.2178180639,13.4726758995\H,0,-9.8851491054,18.0
 981767677,15.0016045642\H,0,-10.2275932727,15.647137674,15.3034315329\
 H,0,-8.6796343563,15.3016056513,14.5561611312\H,0,-9.0706722017,16.889
 4489004,17.1534474204\H,0,-7.5063974491,16.5275485254,16.4261594891\H,
 0,-8.0581839893,14.9877950268,18.2982102247\H,0,-9.4912560955,14.42894
 08549,17.4511861211\H,0,-8.0978896762,13.4610687987,15.7877827989\H,0,
 -6.743757557,14.0690242767,16.4776018849\\Version=ES64L-G16RevC.01\HF=
 -1300.6008487\RMSD=1.095e-09\Dipole=0.2203705,0.4052499,-4.2251033\Qua
 drupole=-372.5222135,630.8193537,-258.2971402,-516.2847492,-274.061476
 8,629.2743927\PG=C01 [X(C20H31N4O4)]\\@
 The archive entry for this job was punched.


 NOTHING WILL BE ATTEMPTED IF ALL POSSIBLE OBJECTIONS
 MUST FIRST BE OVERCOME.

                               -- THE GOLDEN PRINCIPLE,
                    PAUL DICKSON'S "THE OFFICIAL RULES"
 Job cpu time:       0 days  0 hours  2 minutes 55.6 seconds.
 Elapsed time:       0 days  0 hours  0 minutes 45.0 seconds.
 File lengths (MBytes):  RWF=    240 Int=      0 D2E=      0 Chk=     32 Scr=     16
 Normal termination of Gaussian 16 at Wed May 25 19:10:27 2022.
