 Entering Gaussian System, Link 0=/opt/software/Gaussian/g16-AVX2-C.01/g16/g16
 Input=charge-conf-622.com
 Output=charge-conf-622.log
 Initial command:
 /opt/software/Gaussian/g16-AVX2-C.01/g16/l1.exe "/mnt/gs18/scratch/users/kengmith/Gau-19122.inp" -scrdir="/mnt/gs18/scratch/users/kengmith/"
 Entering Link 1 = /opt/software/Gaussian/g16-AVX2-C.01/g16/l1.exe PID=     19136.
  
 Copyright (c) 1988-2019, Gaussian, Inc.  All Rights Reserved.
  
 This is part of the Gaussian(R) 16 program.  It is based on
 the Gaussian(R) 09 system (copyright 2009, Gaussian, Inc.),
 the Gaussian(R) 03 system (copyright 2003, Gaussian, Inc.),
 the Gaussian(R) 98 system (copyright 1998, Gaussian, Inc.),
 the Gaussian(R) 94 system (copyright 1995, Gaussian, Inc.),
 the Gaussian 92(TM) system (copyright 1992, Gaussian, Inc.),
 the Gaussian 90(TM) system (copyright 1990, Gaussian, Inc.),
 the Gaussian 88(TM) system (copyright 1988, Gaussian, Inc.),
 the Gaussian 86(TM) system (copyright 1986, Carnegie Mellon
 University), and the Gaussian 82(TM) system (copyright 1983,
 Carnegie Mellon University). Gaussian is a federally registered
 trademark of Gaussian, Inc.
  
 This software contains proprietary and confidential information,
 including trade secrets, belonging to Gaussian, Inc.
  
 This software is provided under written license and may be
 used, copied, transmitted, or stored only in accord with that
 written license.
  
 The following legend is applicable only to US Government
 contracts under FAR:
  
                    RESTRICTED RIGHTS LEGEND
  
 Use, reproduction and disclosure by the US Government is
 subject to restrictions as set forth in subparagraphs (a)
 and (c) of the Commercial Computer Software - Restricted
 Rights clause in FAR 52.227-19.
  
 Gaussian, Inc.
 340 Quinnipiac St., Bldg. 40, Wallingford CT 06492
  
  
 ---------------------------------------------------------------
 Warning -- This program may not be used in any manner that
 competes with the business of Gaussian, Inc. or will provide
 assistance to any competitor of Gaussian, Inc.  The licensee
 of this program is prohibited from giving any competitor of
 Gaussian, Inc. access to this program.  By using this program,
 the user acknowledges that Gaussian, Inc. is engaged in the
 business of creating and licensing software in the field of
 computational chemistry and represents and warrants to the
 licensee that it is not a competitor of Gaussian, Inc. and that
 it will not use this program in any manner prohibited above.
 ---------------------------------------------------------------
  

 Cite this work as:
 Gaussian 16, Revision C.01,
 M. J. Frisch, G. W. Trucks, H. B. Schlegel, G. E. Scuseria, 
 M. A. Robb, J. R. Cheeseman, G. Scalmani, V. Barone, 
 G. A. Petersson, H. Nakatsuji, X. Li, M. Caricato, A. V. Marenich, 
 J. Bloino, B. G. Janesko, R. Gomperts, B. Mennucci, H. P. Hratchian, 
 J. V. Ortiz, A. F. Izmaylov, J. L. Sonnenberg, D. Williams-Young, 
 F. Ding, F. Lipparini, F. Egidi, J. Goings, B. Peng, A. Petrone, 
 T. Henderson, D. Ranasinghe, V. G. Zakrzewski, J. Gao, N. Rega, 
 G. Zheng, W. Liang, M. Hada, M. Ehara, K. Toyota, R. Fukuda, 
 J. Hasegawa, M. Ishida, T. Nakajima, Y. Honda, O. Kitao, H. Nakai, 
 T. Vreven, K. Throssell, J. A. Montgomery, Jr., J. E. Peralta, 
 F. Ogliaro, M. J. Bearpark, J. J. Heyd, E. N. Brothers, K. N. Kudin, 
 V. N. Staroverov, T. A. Keith, R. Kobayashi, J. Normand, 
 K. Raghavachari, A. P. Rendell, J. C. Burant, S. S. Iyengar, 
 J. Tomasi, M. Cossi, J. M. Millam, M. Klene, C. Adamo, R. Cammi, 
 J. W. Ochterski, R. L. Martin, K. Morokuma, O. Farkas, 
 J. B. Foresman, and D. J. Fox, Gaussian, Inc., Wallingford CT, 2019.
 
 ******************************************
 Gaussian 16:  ES64L-G16RevC.01  3-Jul-2019
                25-May-2022 
 ******************************************
 %mem=8gb
 %nproc=4
 Will use up to    4 processors via shared memory.
 %chk=conf-622.chk
 ----------------------------------------------------------------------
 # B3LYP/6-31G* empiricaldispersion=gd3 guess=read geom=check nosymm in
 tegral(ultrafinegrid)
 ----------------------------------------------------------------------
 1/29=2,38=1,172=1/1;
 2/12=2,15=1,40=1/2;
 3/5=1,6=6,7=1,11=2,14=-4,25=1,30=1,74=-5,75=-5,116=-2,124=31/1,2,3;
 4/5=1/1;
 5/5=2,38=6/2;
 6/7=2,8=2,9=2,10=2,28=1/1;
 99/5=1,9=1/99;
 ------------------------------------------------------
 Candidate Structure: Conf:622 Charge calc in gas phase
 ------------------------------------------------------
 Structure from the checkpoint file:  "conf-622.chk"
 Charge =  1 Multiplicity = 1
 Redundant internal coordinates found in file.  (old form).
 N,0,-9.1743309281,16.2347188901,12.3787499884
 C,0,-7.7817749966,15.9665548302,12.9183478999
 C,0,-7.5733776171,17.1921605434,13.8495176831
 O,0,-8.6128558466,17.6851023639,14.3042772742
 C,0,-6.8621423108,15.690781491,11.7248954877
 C,0,-7.5353523954,14.7424035434,10.7448242884
 C,0,-8.2199776491,15.2397760683,9.6260303486
 C,0,-7.5279666847,13.3601917814,10.9838128512
 C,0,-8.8747787152,14.3655355137,8.7578103802
 C,0,-8.1837277851,12.4873716403,10.1162437613
 C,0,-8.8573509085,12.9894356757,9.0009653542
 H,0,-9.0930775314,17.0411371029,11.6710534929
 H,0,-7.8461696283,15.0717322767,13.5492398701
 H,0,-6.6225313149,16.6404959066,11.2450576353
 H,0,-5.9334471093,15.2404955303,12.0870623385
 H,0,-8.2342049942,16.3122368968,9.448419702
 H,0,-6.9915885885,12.9670928087,11.8446160847
 H,0,-9.3924275011,14.7566650601,7.8866916006
 H,0,-8.1611086472,11.418467781,10.3056119057
 H,0,-9.3627622188,12.3102810749,8.3208034733
 H,0,-9.7457335143,16.5927838783,13.1588203244
 H,0,-9.5676187559,15.4076147155,11.9323746413
 N,0,-6.3619784113,17.7202700888,14.1141720015
 C,0,-6.3944030036,18.9632724709,14.9212579206
 C,0,-7.1050077253,20.1071239153,14.1642610536
 O,0,-7.6808731104,20.986852055,14.7809685593
 C,0,-4.9174726175,19.2368109458,15.2421766905
 C,0,-4.1630824613,18.5561212039,14.0952869796
 C,0,-4.9844916779,17.2867413349,13.8057565054
 H,0,-6.9940572057,18.8116526757,15.8198380906
 H,0,-4.7151534488,20.3072528236,15.3198949293
 H,0,-4.6557196926,18.7792023756,16.2022588863
 H,0,-4.1591570264,19.2040064838,13.2109302424
 H,0,-3.1263122174,18.3182440936,14.3442282872
 H,0,-4.6955661222,16.4529759063,14.4576330042
 H,0,-4.8781171338,16.9728214392,12.7673854792
 N,0,-7.0004901383,20.0567113188,12.788725913
 C,0,-8.0303943569,20.6342689474,11.9346329111
 C,0,-8.967850872,19.5463932495,11.3888943199
 O,0,-8.4668411705,18.4398795082,11.0364423044
 C,0,-7.3824471641,21.396500091,10.7349318286
 C,0,-8.2573555737,21.5209130465,9.4721900094
 C,0,-9.5845749921,22.2846219001,9.6762404675
 C,0,-10.7465374588,21.7974024804,8.7972063499
 N,0,-11.0323649485,20.3243198159,9.0176435605
 O,0,-10.1945452155,19.863553831,11.2616894414
 H,0,-10.6621132926,19.9922514635,10.0412181505
 H,0,-6.6199241144,19.1982152931,12.4097309456
 H,0,-8.6182641038,21.3059153243,12.5582152576
 H,0,-6.4637167266,20.8658400136,10.4624628245
 H,0,-7.079234052,22.388321898,11.0878478727
 H,0,-7.6733414626,22.0118190109,8.6860358434
 H,0,-8.4456452048,20.502536867,9.1010274987
 H,0,-9.4418375648,23.3496477675,9.4604599758
 H,0,-9.9045847617,22.2164642816,10.7158882025
 H,0,-11.6600561721,22.3384978343,9.0509107222
 H,0,-10.5557117044,21.9450073858,7.7326713287
 H,0,-12.0218558285,20.112100563,8.8824752822
 H,0,-10.5140955963,19.7591539732,8.338543234
 Recover connectivity data from disk.
                           ----------------------------
                           !    Current Parameters    !
                           ! (Angstroms and Degrees)  !
 --------------------------                            --------------------------
 ! Name  Definition              Value                                          !
 --------------------------------------------------------------------------------
 ! R1    R(1,2)                  1.5173                                         !
 ! R2    R(1,12)                 1.076                                          !
 ! R3    R(1,21)                 1.0311                                         !
 ! R4    R(1,22)                 1.0188                                         !
 ! R5    R(2,3)                  1.5533                                         !
 ! R6    R(2,5)                  1.5317                                         !
 ! R7    R(2,13)                 1.0968                                         !
 ! R8    R(3,4)                  1.2371                                         !
 ! R9    R(3,23)                 1.3477                                         !
 ! R10   R(5,6)                  1.5209                                         !
 ! R11   R(5,14)                 1.0907                                         !
 ! R12   R(5,15)                 1.0938                                         !
 ! R13   R(6,7)                  1.4028                                         !
 ! R14   R(6,8)                  1.4027                                         !
 ! R15   R(7,9)                  1.3953                                         !
 ! R16   R(7,16)                 1.0872                                         !
 ! R17   R(8,10)                 1.3945                                         !
 ! R18   R(8,17)                 1.0878                                         !
 ! R19   R(9,11)                 1.3975                                         !
 ! R20   R(9,18)                 1.0862                                         !
 ! R21   R(10,11)                1.3963                                         !
 ! R22   R(10,19)                1.0858                                         !
 ! R23   R(11,20)                1.086                                          !
 ! R24   R(23,24)                1.4824                                         !
 ! R25   R(23,29)                1.4767                                         !
 ! R26   R(24,25)                1.5448                                         !
 ! R27   R(24,27)                1.5359                                         !
 ! R28   R(24,30)                1.0909                                         !
 ! R29   R(25,26)                1.219                                          !
 ! R30   R(25,37)                1.3804                                         !
 ! R31   R(27,28)                1.5323                                         !
 ! R32   R(27,31)                1.0922                                         !
 ! R33   R(27,32)                1.0953                                         !
 ! R34   R(28,29)                1.5394                                         !
 ! R35   R(28,33)                1.0963                                         !
 ! R36   R(28,34)                1.0925                                         !
 ! R37   R(29,35)                1.0971                                         !
 ! R38   R(29,36)                1.09                                           !
 ! R39   R(37,38)                1.4573                                         !
 ! R40   R(37,48)                1.0127                                         !
 ! R41   R(38,39)                1.5363                                         !
 ! R42   R(38,41)                1.5621                                         !
 ! R43   R(38,49)                1.0888                                         !
 ! R44   R(39,40)                1.2648                                         !
 ! R45   R(39,46)                1.2734                                         !
 ! R46   R(41,42)                1.5413                                         !
 ! R47   R(41,50)                1.0954                                         !
 ! R48   R(41,51)                1.0955                                         !
 ! R49   R(42,43)                1.5448                                         !
 ! R50   R(42,52)                1.0955                                         !
 ! R51   R(42,53)                1.1001                                         !
 ! R52   R(43,44)                1.5363                                         !
 ! R53   R(43,54)                1.096                                          !
 ! R54   R(43,55)                1.0899                                         !
 ! R55   R(44,45)                1.5167                                         !
 ! R56   R(44,56)                1.0916                                         !
 ! R57   R(44,57)                1.0915                                         !
 ! R58   R(45,58)                1.021                                          !
 ! R59   R(45,59)                1.0243                                         !
 ! R60   R(46,47)                1.3133                                         !
 ! A1    A(2,1,12)             107.2806                                         !
 ! A2    A(2,1,21)             107.5128                                         !
 ! A3    A(2,1,22)             111.5064                                         !
 ! A4    A(12,1,21)            106.2106                                         !
 ! A5    A(12,1,22)            110.4516                                         !
 ! A6    A(21,1,22)            113.5434                                         !
 ! A7    A(1,2,3)              101.3543                                         !
 ! A8    A(1,2,5)              107.8037                                         !
 ! A9    A(1,2,13)             107.15                                           !
 ! A10   A(3,2,5)              121.9121                                         !
 ! A11   A(3,2,13)             107.8666                                         !
 ! A12   A(5,2,13)             109.6675                                         !
 ! A13   A(2,3,4)              114.965                                          !
 ! A14   A(2,3,23)             123.1958                                         !
 ! A15   A(4,3,23)             121.7991                                         !
 ! A16   A(2,5,6)              110.4019                                         !
 ! A17   A(2,5,14)             108.5368                                         !
 ! A18   A(2,5,15)             109.0202                                         !
 ! A19   A(6,5,14)             110.898                                          !
 ! A20   A(6,5,15)             109.4198                                         !
 ! A21   A(14,5,15)            108.5179                                         !
 ! A22   A(5,6,7)              120.5892                                         !
 ! A23   A(5,6,8)              120.1533                                         !
 ! A24   A(7,6,8)              119.1977                                         !
 ! A25   A(6,7,9)              120.2091                                         !
 ! A26   A(6,7,16)             119.1076                                         !
 ! A27   A(9,7,16)             120.6831                                         !
 ! A28   A(6,8,10)             120.5498                                         !
 ! A29   A(6,8,17)             119.5721                                         !
 ! A30   A(10,8,17)            119.8702                                         !
 ! A31   A(7,9,11)             120.1879                                         !
 ! A32   A(7,9,18)             119.8065                                         !
 ! A33   A(11,9,18)            120.0038                                         !
 ! A34   A(8,10,11)            119.917                                          !
 ! A35   A(8,10,19)            119.8602                                         !
 ! A36   A(11,10,19)           120.2205                                         !
 ! A37   A(9,11,10)            119.9365                                         !
 ! A38   A(9,11,20)            120.0681                                         !
 ! A39   A(10,11,20)           119.9947                                         !
 ! A40   A(3,23,24)            114.5708                                         !
 ! A41   A(3,23,29)            133.0322                                         !
 ! A42   A(24,23,29)           112.3518                                         !
 ! A43   A(23,24,25)           111.3549                                         !
 ! A44   A(23,24,27)           104.0078                                         !
 ! A45   A(23,24,30)           110.1179                                         !
 ! A46   A(25,24,27)           114.3835                                         !
 ! A47   A(25,24,30)           104.6967                                         !
 ! A48   A(27,24,30)           112.4094                                         !
 ! A49   A(24,25,26)           120.2505                                         !
 ! A50   A(24,25,37)           115.2409                                         !
 ! A51   A(26,25,37)           124.49                                           !
 ! A52   A(24,27,28)           103.7636                                         !
 ! A53   A(24,27,31)           111.5643                                         !
 ! A54   A(24,27,32)           109.7877                                         !
 ! A55   A(28,27,31)           113.4198                                         !
 ! A56   A(28,27,32)           110.6609                                         !
 ! A57   A(31,27,32)           107.6282                                         !
 ! A58   A(27,28,29)           104.1453                                         !
 ! A59   A(27,28,33)           110.0613                                         !
 ! A60   A(27,28,34)           113.1671                                         !
 ! A61   A(29,28,33)           109.7246                                         !
 ! A62   A(29,28,34)           111.6966                                         !
 ! A63   A(33,28,34)           108.0054                                         !
 ! A64   A(23,29,28)           102.4962                                         !
 ! A65   A(23,29,35)           110.1628                                         !
 ! A66   A(23,29,36)           111.9971                                         !
 ! A67   A(28,29,35)           111.9866                                         !
 ! A68   A(28,29,36)           111.3815                                         !
 ! A69   A(35,29,36)           108.7521                                         !
 ! A70   A(25,37,38)           121.0656                                         !
 ! A71   A(25,37,48)           115.6165                                         !
 ! A72   A(38,37,48)           112.4719                                         !
 ! A73   A(37,38,39)           111.0266                                         !
 ! A74   A(37,38,41)           110.5091                                         !
 ! A75   A(37,38,49)           106.8808                                         !
 ! A76   A(39,38,41)           109.0156                                         !
 ! A77   A(39,38,49)           108.1071                                         !
 ! A78   A(41,38,49)           111.2724                                         !
 ! A79   A(38,39,40)           118.4765                                         !
 ! A80   A(38,39,46)           116.5481                                         !
 ! A81   A(40,39,46)           124.8666                                         !
 ! A82   A(38,41,42)           115.6679                                         !
 ! A83   A(38,41,50)           107.6104                                         !
 ! A84   A(38,41,51)           108.0085                                         !
 ! A85   A(42,41,50)           108.1448                                         !
 ! A86   A(42,41,51)           110.3626                                         !
 ! A87   A(50,41,51)           106.6532                                         !
 ! A88   A(41,42,43)           114.7964                                         !
 ! A89   A(41,42,52)           108.7535                                         !
 ! A90   A(41,42,53)           107.3883                                         !
 ! A91   A(43,42,52)           109.3462                                         !
 ! A92   A(43,42,53)           110.8027                                         !
 ! A93   A(52,42,53)           105.3041                                         !
 ! A94   A(42,43,44)           114.6735                                         !
 ! A95   A(42,43,54)           110.0296                                         !
 ! A96   A(42,43,55)           110.3245                                         !
 ! A97   A(44,43,54)           107.0991                                         !
 ! A98   A(44,43,55)           107.6911                                         !
 ! A99   A(54,43,55)           106.6668                                         !
 ! A100  A(43,44,45)           111.5554                                         !
 ! A101  A(43,44,56)           110.0447                                         !
 ! A102  A(43,44,57)           112.5142                                         !
 ! A103  A(45,44,56)           106.8546                                         !
 ! A104  A(45,44,57)           107.8206                                         !
 ! A105  A(56,44,57)           107.8141                                         !
 ! A106  A(44,45,58)           111.4254                                         !
 ! A107  A(44,45,59)           110.1322                                         !
 ! A108  A(58,45,59)           106.7327                                         !
 ! A109  A(39,46,47)           117.4007                                         !
 ! D1    D(12,1,2,3)            73.5128                                         !
 ! D2    D(12,1,2,5)           -55.5945                                         !
 ! D3    D(12,1,2,13)         -173.5666                                         !
 ! D4    D(21,1,2,3)           -40.362                                          !
 ! D5    D(21,1,2,5)          -169.4693                                         !
 ! D6    D(21,1,2,13)           72.5586                                         !
 ! D7    D(22,1,2,3)          -165.4294                                         !
 ! D8    D(22,1,2,5)            65.4632                                         !
 ! D9    D(22,1,2,13)          -52.5088                                         !
 ! D10   D(1,2,3,4)             26.7111                                         !
 ! D11   D(1,2,3,23)          -151.0212                                         !
 ! D12   D(5,2,3,4)            146.212                                          !
 ! D13   D(5,2,3,23)           -31.5203                                         !
 ! D14   D(13,2,3,4)           -85.6678                                         !
 ! D15   D(13,2,3,23)           96.5999                                         !
 ! D16   D(1,2,5,6)            -44.9298                                         !
 ! D17   D(1,2,5,14)            76.8137                                         !
 ! D18   D(1,2,5,15)          -165.1576                                         !
 ! D19   D(3,2,5,6)           -161.2623                                         !
 ! D20   D(3,2,5,14)           -39.5188                                         !
 ! D21   D(3,2,5,15)            78.5099                                         !
 ! D22   D(13,2,5,6)            71.4086                                         !
 ! D23   D(13,2,5,14)         -166.8479                                         !
 ! D24   D(13,2,5,15)          -48.8192                                         !
 ! D25   D(2,3,23,24)          174.4222                                         !
 ! D26   D(2,3,23,29)           -8.2629                                         !
 ! D27   D(4,3,23,24)           -3.1588                                         !
 ! D28   D(4,3,23,29)          174.1561                                         !
 ! D29   D(2,5,6,7)             96.2024                                         !
 ! D30   D(2,5,6,8)            -80.9638                                         !
 ! D31   D(14,5,6,7)           -24.1349                                         !
 ! D32   D(14,5,6,8)           158.699                                          !
 ! D33   D(15,5,6,7)          -143.8101                                         !
 ! D34   D(15,5,6,8)            39.0238                                         !
 ! D35   D(5,6,7,9)           -177.7314                                         !
 ! D36   D(5,6,7,16)             2.1222                                         !
 ! D37   D(8,6,7,9)             -0.5384                                         !
 ! D38   D(8,6,7,16)           179.3151                                         !
 ! D39   D(5,6,8,10)           177.6849                                         !
 ! D40   D(5,6,8,17)            -3.3361                                         !
 ! D41   D(7,6,8,10)             0.4794                                         !
 ! D42   D(7,6,8,17)           179.4585                                         !
 ! D43   D(6,7,9,11)             0.2804                                         !
 ! D44   D(6,7,9,18)          -179.238                                          !
 ! D45   D(16,7,9,11)         -179.5708                                         !
 ! D46   D(16,7,9,18)            0.9107                                         !
 ! D47   D(6,8,10,11)           -0.1598                                         !
 ! D48   D(6,8,10,19)          179.2903                                         !
 ! D49   D(17,8,10,11)        -179.1358                                         !
 ! D50   D(17,8,10,19)           0.3143                                         !
 ! D51   D(7,9,11,10)            0.0445                                         !
 ! D52   D(7,9,11,20)         -179.6451                                         !
 ! D53   D(18,9,11,10)         179.562                                          !
 ! D54   D(18,9,11,20)          -0.1276                                         !
 ! D55   D(8,10,11,9)           -0.105                                          !
 ! D56   D(8,10,11,20)         179.5849                                         !
 ! D57   D(19,10,11,9)        -179.5531                                         !
 ! D58   D(19,10,11,20)          0.1368                                         !
 ! D59   D(3,23,24,25)         -64.0258                                         !
 ! D60   D(3,23,24,27)         172.3046                                         !
 ! D61   D(3,23,24,30)          51.6529                                         !
 ! D62   D(29,23,24,25)        118.0961                                         !
 ! D63   D(29,23,24,27)         -5.5735                                         !
 ! D64   D(29,23,24,30)       -126.2252                                         !
 ! D65   D(3,23,29,28)         165.842                                          !
 ! D66   D(3,23,29,35)         -74.8248                                         !
 ! D67   D(3,23,29,36)          46.3521                                         !
 ! D68   D(24,23,29,28)        -16.7983                                         !
 ! D69   D(24,23,29,35)        102.5349                                         !
 ! D70   D(24,23,29,36)       -136.2882                                         !
 ! D71   D(23,24,25,26)        151.5689                                         !
 ! D72   D(23,24,25,37)        -29.929                                          !
 ! D73   D(27,24,25,26)        -90.8777                                         !
 ! D74   D(27,24,25,37)         87.6244                                         !
 ! D75   D(30,24,25,26)         32.5991                                         !
 ! D76   D(30,24,25,37)       -148.8989                                         !
 ! D77   D(23,24,27,28)         25.8119                                         !
 ! D78   D(23,24,27,31)        148.2794                                         !
 ! D79   D(23,24,27,32)        -92.4947                                         !
 ! D80   D(25,24,27,28)        -95.8656                                         !
 ! D81   D(25,24,27,31)         26.6019                                         !
 ! D82   D(25,24,27,32)        145.8277                                         !
 ! D83   D(30,24,27,28)        144.9112                                         !
 ! D84   D(30,24,27,31)        -92.6213                                         !
 ! D85   D(30,24,27,32)         26.6045                                         !
 ! D86   D(24,25,37,38)        152.2519                                         !
 ! D87   D(24,25,37,48)         10.6497                                         !
 ! D88   D(26,25,37,38)        -29.3181                                         !
 ! D89   D(26,25,37,48)       -170.9202                                         !
 ! D90   D(24,27,28,29)        -36.4731                                         !
 ! D91   D(24,27,28,33)         81.0799                                         !
 ! D92   D(24,27,28,34)       -157.9758                                         !
 ! D93   D(31,27,28,29)       -157.7038                                         !
 ! D94   D(31,27,28,33)        -40.1508                                         !
 ! D95   D(31,27,28,34)         80.7936                                         !
 ! D96   D(32,27,28,29)         81.2287                                         !
 ! D97   D(32,27,28,33)       -161.2183                                         !
 ! D98   D(32,27,28,34)        -40.274                                          !
 ! D99   D(27,28,29,23)         32.448                                          !
 ! D100  D(27,28,29,35)        -85.601                                          !
 ! D101  D(27,28,29,36)        152.3672                                         !
 ! D102  D(33,28,29,23)        -85.3373                                         !
 ! D103  D(33,28,29,35)        156.6137                                         !
 ! D104  D(33,28,29,36)         34.5818                                         !
 ! D105  D(34,28,29,23)        154.9227                                         !
 ! D106  D(34,28,29,35)         36.8737                                         !
 ! D107  D(34,28,29,36)        -85.1582                                         !
 ! D108  D(25,37,38,39)       -100.703                                          !
 ! D109  D(25,37,38,41)        138.2006                                         !
 ! D110  D(25,37,38,49)         16.9817                                         !
 ! D111  D(48,37,38,39)         41.9897                                         !
 ! D112  D(48,37,38,41)        -79.1067                                         !
 ! D113  D(48,37,38,49)        159.6744                                         !
 ! D114  D(37,38,39,40)        -39.3535                                         !
 ! D115  D(37,38,39,46)        144.2528                                         !
 ! D116  D(41,38,39,40)         82.6174                                         !
 ! D117  D(41,38,39,46)        -93.7763                                         !
 ! D118  D(49,38,39,40)       -156.2897                                         !
 ! D119  D(49,38,39,46)         27.3166                                         !
 ! D120  D(37,38,41,42)        154.4406                                         !
 ! D121  D(37,38,41,50)         33.4399                                         !
 ! D122  D(37,38,41,51)        -81.3533                                         !
 ! D123  D(39,38,41,42)         32.1572                                         !
 ! D124  D(39,38,41,50)        -88.8435                                         !
 ! D125  D(39,38,41,51)        156.3633                                         !
 ! D126  D(49,38,41,42)        -86.9827                                         !
 ! D127  D(49,38,41,50)        152.0166                                         !
 ! D128  D(49,38,41,51)         37.2234                                         !
 ! D129  D(38,39,46,47)        110.0511                                         !
 ! D130  D(40,39,46,47)        -66.0849                                         !
 ! D131  D(38,41,42,43)         60.8745                                         !
 ! D132  D(38,41,42,52)       -176.2896                                         !
 ! D133  D(38,41,42,53)        -62.8107                                         !
 ! D134  D(50,41,42,43)       -178.4134                                         !
 ! D135  D(50,41,42,52)        -55.5775                                         !
 ! D136  D(50,41,42,53)         57.9014                                         !
 ! D137  D(51,41,42,43)        -62.0982                                         !
 ! D138  D(51,41,42,52)         60.7377                                         !
 ! D139  D(51,41,42,53)        174.2166                                         !
 ! D140  D(41,42,43,44)       -147.7221                                         !
 ! D141  D(41,42,43,54)         91.4894                                         !
 ! D142  D(41,42,43,55)        -25.9343                                         !
 ! D143  D(52,42,43,44)         89.7611                                         !
 ! D144  D(52,42,43,54)        -31.0274                                         !
 ! D145  D(52,42,43,55)       -148.4511                                         !
 ! D146  D(53,42,43,44)        -25.8738                                         !
 ! D147  D(53,42,43,54)       -146.6623                                         !
 ! D148  D(53,42,43,55)         95.914                                          !
 ! D149  D(42,43,44,45)         57.6343                                         !
 ! D150  D(42,43,44,56)        176.0572                                         !
 ! D151  D(42,43,44,57)        -63.6938                                         !
 ! D152  D(54,43,44,45)       -179.9765                                         !
 ! D153  D(54,43,44,56)        -61.5536                                         !
 ! D154  D(54,43,44,57)         58.6954                                         !
 ! D155  D(55,43,44,45)        -65.5776                                         !
 ! D156  D(55,43,44,56)         52.8453                                         !
 ! D157  D(55,43,44,57)        173.0942                                         !
 ! D158  D(43,44,45,58)        148.7878                                         !
 ! D159  D(43,44,45,59)        -92.9662                                         !
 ! D160  D(56,44,45,58)         28.4734                                         !
 ! D161  D(56,44,45,59)        146.7194                                         !
 ! D162  D(57,44,45,58)        -87.195                                          !
 ! D163  D(57,44,45,59)         31.0509                                         !
 --------------------------------------------------------------------------------
 Symmetry turned off by external request.
 Stoichiometry    C20H31N4O4(1+)
 Framework group  C1[X(C20H31N4O4)]
 Deg. of freedom   171
 Full point group                 C1      NOp   1
                          Input orientation:                          
 ---------------------------------------------------------------------
 Center     Atomic      Atomic             Coordinates (Angstroms)
 Number     Number       Type             X           Y           Z
 ---------------------------------------------------------------------
      1          7           0       -9.174331   16.234719   12.378750
      2          6           0       -7.781775   15.966555   12.918348
      3          6           0       -7.573378   17.192161   13.849518
      4          8           0       -8.612856   17.685102   14.304277
      5          6           0       -6.862142   15.690781   11.724895
      6          6           0       -7.535352   14.742404   10.744824
      7          6           0       -8.219978   15.239776    9.626030
      8          6           0       -7.527967   13.360192   10.983813
      9          6           0       -8.874779   14.365536    8.757810
     10          6           0       -8.183728   12.487372   10.116244
     11          6           0       -8.857351   12.989436    9.000965
     12          1           0       -9.093078   17.041137   11.671053
     13          1           0       -7.846170   15.071732   13.549240
     14          1           0       -6.622531   16.640496   11.245058
     15          1           0       -5.933447   15.240496   12.087062
     16          1           0       -8.234205   16.312237    9.448420
     17          1           0       -6.991589   12.967093   11.844616
     18          1           0       -9.392428   14.756665    7.886692
     19          1           0       -8.161109   11.418468   10.305612
     20          1           0       -9.362762   12.310281    8.320803
     21          1           0       -9.745734   16.592784   13.158820
     22          1           0       -9.567619   15.407615   11.932375
     23          7           0       -6.361978   17.720270   14.114172
     24          6           0       -6.394403   18.963272   14.921258
     25          6           0       -7.105008   20.107124   14.164261
     26          8           0       -7.680873   20.986852   14.780969
     27          6           0       -4.917473   19.236811   15.242177
     28          6           0       -4.163082   18.556121   14.095287
     29          6           0       -4.984492   17.286741   13.805757
     30          1           0       -6.994057   18.811653   15.819838
     31          1           0       -4.715153   20.307253   15.319895
     32          1           0       -4.655720   18.779202   16.202259
     33          1           0       -4.159157   19.204006   13.210930
     34          1           0       -3.126312   18.318244   14.344228
     35          1           0       -4.695566   16.452976   14.457633
     36          1           0       -4.878117   16.972821   12.767385
     37          7           0       -7.000490   20.056711   12.788726
     38          6           0       -8.030394   20.634269   11.934633
     39          6           0       -8.967851   19.546393   11.388894
     40          8           0       -8.466841   18.439880   11.036442
     41          6           0       -7.382447   21.396500   10.734932
     42          6           0       -8.257356   21.520913    9.472190
     43          6           0       -9.584575   22.284622    9.676240
     44          6           0      -10.746537   21.797402    8.797206
     45          7           0      -11.032365   20.324320    9.017644
     46          8           0      -10.194545   19.863554   11.261689
     47          1           0      -10.662113   19.992251   10.041218
     48          1           0       -6.619924   19.198215   12.409731
     49          1           0       -8.618264   21.305915   12.558215
     50          1           0       -6.463717   20.865840   10.462463
     51          1           0       -7.079234   22.388322   11.087848
     52          1           0       -7.673341   22.011819    8.686036
     53          1           0       -8.445645   20.502537    9.101027
     54          1           0       -9.441838   23.349648    9.460460
     55          1           0       -9.904585   22.216464   10.715888
     56          1           0      -11.660056   22.338498    9.050911
     57          1           0      -10.555712   21.945007    7.732671
     58          1           0      -12.021856   20.112101    8.882475
     59          1           0      -10.514096   19.759154    8.338543
 ---------------------------------------------------------------------
 Rotational constants (GHZ):           0.1862201           0.1476646           0.0936797
 Standard basis: 6-31G(d) (6D, 7F)
   482 basis functions,   908 primitive gaussians,   482 cartesian basis functions
   105 alpha electrons      105 beta electrons
       nuclear repulsion energy      2892.9991920194 Hartrees.
 NAtoms=   59 NActive=   59 NUniq=   59 SFac= 1.00D+00 NAtFMM=   60 NAOKFM=F Big=F
 Integral buffers will be    131072 words long.
 Raffenetti 2 integral format.
 Two-electron integral symmetry is turned off.
 Nuclear repulsion after empirical dispersion term =     2892.9209292805 Hartrees.
 One-electron integrals computed using PRISM.
 NBasis=   482 RedAO= T EigKep=  4.67D-04  NBF=   482
 NBsUse=   482 1.00D-06 EigRej= -1.00D+00 NBFU=   482
 Initial guess from the checkpoint file:  "conf-622.chk"
 B after Tr=     0.000000    0.000000    0.000000
         Rot=    1.000000    0.000000    0.000000    0.000000 Ang=   0.00 deg.
 Requested convergence on RMS density matrix=1.00D-08 within 128 cycles.
 Requested convergence on MAX density matrix=1.00D-06.
 Requested convergence on             energy=1.00D-06.
 No special actions if energy rises.
 SCF Done:  E(RB3LYP) =  -1300.61165159     A.U. after    1 cycles
            NFock=  1  Conv=0.68D-08     -V/T= 2.0094

 **********************************************************************

            Population analysis using the SCF Density.

 **********************************************************************

 Alpha  occ. eigenvalues --  -19.23939 -19.22903 -19.22419 -19.19750 -14.54717
 Alpha  occ. eigenvalues --  -14.53406 -14.48728 -14.44160 -10.41502 -10.40093
 Alpha  occ. eigenvalues --  -10.38381 -10.37083 -10.35792 -10.33945 -10.32442
 Alpha  occ. eigenvalues --  -10.31997 -10.31724 -10.30892 -10.29688 -10.29623
 Alpha  occ. eigenvalues --  -10.29548 -10.29413 -10.29365 -10.29316 -10.29239
 Alpha  occ. eigenvalues --  -10.29075 -10.28684 -10.28579  -1.16925  -1.16076
 Alpha  occ. eigenvalues --   -1.11645  -1.09936  -1.09021  -1.06564  -1.05989
 Alpha  occ. eigenvalues --   -1.00761  -0.96418  -0.91725  -0.90961  -0.89783
 Alpha  occ. eigenvalues --   -0.86699  -0.85286  -0.84925  -0.84408  -0.80407
 Alpha  occ. eigenvalues --   -0.78358  -0.75415  -0.73916  -0.71567  -0.71060
 Alpha  occ. eigenvalues --   -0.70652  -0.70133  -0.69172  -0.68727  -0.68181
 Alpha  occ. eigenvalues --   -0.67780  -0.66929  -0.66121  -0.64122  -0.61933
 Alpha  occ. eigenvalues --   -0.61209  -0.60849  -0.59903  -0.59453  -0.57820
 Alpha  occ. eigenvalues --   -0.57139  -0.56435  -0.56296  -0.55539  -0.55170
 Alpha  occ. eigenvalues --   -0.54635  -0.54298  -0.53922  -0.53547  -0.52770
 Alpha  occ. eigenvalues --   -0.52285  -0.52065  -0.51474  -0.51128  -0.50578
 Alpha  occ. eigenvalues --   -0.49916  -0.49699  -0.48751  -0.48198  -0.47584
 Alpha  occ. eigenvalues --   -0.47281  -0.46924  -0.46289  -0.45724  -0.44815
 Alpha  occ. eigenvalues --   -0.44647  -0.44397  -0.44300  -0.43631  -0.43290
 Alpha  occ. eigenvalues --   -0.42253  -0.39121  -0.38295  -0.37993  -0.37422
 Alpha  occ. eigenvalues --   -0.36686  -0.35618  -0.35042  -0.33411  -0.32701
 Alpha virt. eigenvalues --   -0.11689  -0.10863  -0.10649  -0.08851  -0.07816
 Alpha virt. eigenvalues --   -0.06438  -0.04451  -0.03379  -0.02947  -0.01878
 Alpha virt. eigenvalues --   -0.01052  -0.00256   0.00452   0.01169   0.01832
 Alpha virt. eigenvalues --    0.01955   0.02156   0.02867   0.03186   0.03550
 Alpha virt. eigenvalues --    0.03926   0.04217   0.04790   0.05244   0.05478
 Alpha virt. eigenvalues --    0.05736   0.06075   0.06488   0.06669   0.06854
 Alpha virt. eigenvalues --    0.07631   0.07947   0.07980   0.08703   0.09544
 Alpha virt. eigenvalues --    0.09761   0.10104   0.10585   0.11108   0.11242
 Alpha virt. eigenvalues --    0.11949   0.12546   0.12611   0.13573   0.14158
 Alpha virt. eigenvalues --    0.14367   0.15193   0.15740   0.16806   0.17326
 Alpha virt. eigenvalues --    0.18454   0.19760   0.20548   0.20772   0.21909
 Alpha virt. eigenvalues --    0.22378   0.23505   0.24194   0.24726   0.26279
 Alpha virt. eigenvalues --    0.28185   0.30064   0.32412   0.33000   0.34298
 Alpha virt. eigenvalues --    0.36304   0.38371   0.39257   0.40111   0.40522
 Alpha virt. eigenvalues --    0.41213   0.41583   0.42418   0.42866   0.43122
 Alpha virt. eigenvalues --    0.44218   0.44338   0.44490   0.45294   0.45879
 Alpha virt. eigenvalues --    0.46011   0.47070   0.47180   0.47865   0.48400
 Alpha virt. eigenvalues --    0.48567   0.49176   0.49792   0.50544   0.50778
 Alpha virt. eigenvalues --    0.51019   0.51441   0.51716   0.52036   0.52394
 Alpha virt. eigenvalues --    0.52838   0.53596   0.53875   0.54459   0.55262
 Alpha virt. eigenvalues --    0.56308   0.56643   0.57252   0.57565   0.58241
 Alpha virt. eigenvalues --    0.59344   0.59889   0.61020   0.61234   0.62231
 Alpha virt. eigenvalues --    0.62917   0.64309   0.65613   0.65758   0.67208
 Alpha virt. eigenvalues --    0.67241   0.68465   0.68970   0.69677   0.70455
 Alpha virt. eigenvalues --    0.71299   0.71581   0.71744   0.72496   0.73285
 Alpha virt. eigenvalues --    0.73558   0.73667   0.74029   0.74360   0.74489
 Alpha virt. eigenvalues --    0.74940   0.75190   0.75774   0.75900   0.76335
 Alpha virt. eigenvalues --    0.76477   0.77422   0.77658   0.78016   0.78678
 Alpha virt. eigenvalues --    0.79372   0.79978   0.80309   0.80747   0.81229
 Alpha virt. eigenvalues --    0.81984   0.82126   0.82989   0.83364   0.83866
 Alpha virt. eigenvalues --    0.84764   0.85197   0.85742   0.86549   0.86800
 Alpha virt. eigenvalues --    0.87482   0.88609   0.89029   0.90173   0.90862
 Alpha virt. eigenvalues --    0.91857   0.92892   0.93361   0.93857   0.95748
 Alpha virt. eigenvalues --    0.96224   0.97030   0.98429   0.98835   1.00612
 Alpha virt. eigenvalues --    1.02315   1.03309   1.03789   1.04563   1.05108
 Alpha virt. eigenvalues --    1.05818   1.06849   1.07383   1.08796   1.10007
 Alpha virt. eigenvalues --    1.10340   1.12160   1.13707   1.15432   1.15779
 Alpha virt. eigenvalues --    1.18307   1.20792   1.21710   1.23025   1.24561
 Alpha virt. eigenvalues --    1.25030   1.25730   1.27489   1.27985   1.29416
 Alpha virt. eigenvalues --    1.30566   1.32076   1.33070   1.33266   1.33784
 Alpha virt. eigenvalues --    1.35186   1.36812   1.37597   1.38491   1.38873
 Alpha virt. eigenvalues --    1.39468   1.40546   1.40796   1.41467   1.41940
 Alpha virt. eigenvalues --    1.44055   1.45229   1.47554   1.49813   1.51891
 Alpha virt. eigenvalues --    1.52420   1.52525   1.54471   1.56729   1.57765
 Alpha virt. eigenvalues --    1.59012   1.59867   1.61241   1.62337   1.63285
 Alpha virt. eigenvalues --    1.65227   1.65527   1.65797   1.68365   1.68482
 Alpha virt. eigenvalues --    1.69968   1.71131   1.71304   1.71476   1.72516
 Alpha virt. eigenvalues --    1.73528   1.74134   1.74668   1.74840   1.76592
 Alpha virt. eigenvalues --    1.77097   1.77803   1.78428   1.78515   1.79797
 Alpha virt. eigenvalues --    1.80080   1.80358   1.81367   1.82794   1.83014
 Alpha virt. eigenvalues --    1.83846   1.84275   1.85352   1.85883   1.87130
 Alpha virt. eigenvalues --    1.87361   1.87486   1.88788   1.90112   1.90541
 Alpha virt. eigenvalues --    1.90796   1.91677   1.92246   1.92581   1.94821
 Alpha virt. eigenvalues --    1.95386   1.95749   1.96693   1.97773   1.98435
 Alpha virt. eigenvalues --    1.99027   1.99949   2.00750   2.01462   2.02239
 Alpha virt. eigenvalues --    2.03891   2.04167   2.04735   2.05878   2.07087
 Alpha virt. eigenvalues --    2.07315   2.09290   2.09817   2.12627   2.12736
 Alpha virt. eigenvalues --    2.13416   2.13797   2.17104   2.18759   2.20302
 Alpha virt. eigenvalues --    2.20391   2.20907   2.23101   2.23816   2.24271
 Alpha virt. eigenvalues --    2.24926   2.25583   2.27556   2.28654   2.29164
 Alpha virt. eigenvalues --    2.29992   2.31298   2.31945   2.33200   2.34307
 Alpha virt. eigenvalues --    2.37885   2.38548   2.39765   2.40964   2.42018
 Alpha virt. eigenvalues --    2.42965   2.44101   2.46550   2.47301   2.47500
 Alpha virt. eigenvalues --    2.48366   2.49365   2.50294   2.51238   2.52464
 Alpha virt. eigenvalues --    2.53680   2.55572   2.55682   2.58617   2.59131
 Alpha virt. eigenvalues --    2.60619   2.62134   2.63020   2.64085   2.64964
 Alpha virt. eigenvalues --    2.65364   2.66624   2.66756   2.67471   2.68326
 Alpha virt. eigenvalues --    2.73940   2.75100   2.81460   2.87392   2.88485
 Alpha virt. eigenvalues --    2.90218   2.92560   2.92927   2.95222   2.96053
 Alpha virt. eigenvalues --    3.02667   3.07285   3.10582   3.30406   3.72567
 Alpha virt. eigenvalues --    3.77153   3.86942   3.90996   3.99097   3.99795
 Alpha virt. eigenvalues --    4.01422   4.02989   4.05566   4.08667   4.10084
 Alpha virt. eigenvalues --    4.13209   4.14521   4.19555   4.21329   4.24641
 Alpha virt. eigenvalues --    4.26665   4.29637   4.30284   4.33252   4.39267
 Alpha virt. eigenvalues --    4.45416   4.46715   4.48155   4.55435   4.59938
 Alpha virt. eigenvalues --    4.60699   4.66093
          Condensed to atoms (all electrons):
 Mulliken charges:
               1
     1  N   -0.770777
     2  C   -0.098211
     3  C    0.638007
     4  O   -0.531507
     5  C   -0.383563
     6  C    0.107908
     7  C   -0.209848
     8  C   -0.183645
     9  C   -0.127718
    10  C   -0.125579
    11  C   -0.125645
    12  H    0.442431
    13  H    0.213451
    14  H    0.194921
    15  H    0.185793
    16  H    0.155939
    17  H    0.141760
    18  H    0.147550
    19  H    0.162517
    20  H    0.160792
    21  H    0.417645
    22  H    0.396189
    23  N   -0.490488
    24  C   -0.040289
    25  C    0.609915
    26  O   -0.489338
    27  C   -0.308687
    28  C   -0.308286
    29  C   -0.146889
    30  H    0.209717
    31  H    0.194738
    32  H    0.174166
    33  H    0.169368
    34  H    0.180226
    35  H    0.179354
    36  H    0.175915
    37  N   -0.599219
    38  C   -0.040730
    39  C    0.608199
    40  O   -0.609610
    41  C   -0.271409
    42  C   -0.301162
    43  C   -0.288939
    44  C   -0.178480
    45  N   -0.777571
    46  O   -0.609455
    47  H    0.467212
    48  H    0.326436
    49  H    0.204225
    50  H    0.152071
    51  H    0.174895
    52  H    0.167170
    53  H    0.123444
    54  H    0.177814
    55  H    0.196279
    56  H    0.201554
    57  H    0.191015
    58  H    0.388455
    59  H    0.379974
 Sum of Mulliken charges =   1.00000
 Mulliken charges with hydrogens summed into heavy atoms:
               1
     1  N    0.485488
     2  C    0.115240
     3  C    0.638007
     4  O   -0.531507
     5  C   -0.002849
     6  C    0.107908
     7  C   -0.053909
     8  C   -0.041884
     9  C    0.019832
    10  C    0.036938
    11  C    0.035147
    23  N   -0.490488
    24  C    0.169428
    25  C    0.609915
    26  O   -0.489338
    27  C    0.060217
    28  C    0.041307
    29  C    0.208380
    37  N   -0.272783
    38  C    0.163495
    39  C    0.608199
    40  O   -0.609610
    41  C    0.055558
    42  C   -0.010549
    43  C    0.085153
    44  C    0.214089
    45  N    0.458070
    46  O   -0.609455
 Electronic spatial extent (au):  <R**2>=         410001.3665
 Charge=              1.0000 electrons
 Dipole moment (field-independent basis, Debye):
    X=            -41.3054    Y=             83.7783    Z=             49.2065  Tot=            105.5757
 Quadrupole moment (field-independent basis, Debye-Ang):
   XX=            233.4287   YY=           1345.1462   ZZ=            360.8948
   XY=           -732.3639   XZ=           -385.7873   YZ=            823.1447
 Traceless Quadrupole moment (field-independent basis, Debye-Ang):
   XX=           -413.0612   YY=            698.6563   ZZ=           -285.5951
   XY=           -732.3639   XZ=           -385.7873   YZ=            823.1447
 Octapole moment (field-independent basis, Debye-Ang**2):
  XXX=           -236.7701  YYY=          19114.6120  ZZZ=             15.6748  XYY=         -12159.4001
  XXY=           4237.4718  XXZ=           1569.0054  XZZ=          -2370.5180  YZZ=           5398.2823
  YYZ=          12211.0091  XYZ=          -6514.2588
 Hexadecapole moment (field-independent basis, Debye-Ang**3):
 XXXX=         -19519.8848 YYYY=         204661.6605 ZZZZ=         -74589.3453 XXXY=          -5800.3629
 XXXZ=           9211.2365 YYYX=        -184654.7511 YYYZ=         144546.5297 ZZZX=           9404.4585
 ZZZY=         -17384.1352 XXYY=          69484.3410 XXZZ=          -3627.8578 YYZZ=          56617.4049
 XXYZ=          25571.0069 YYXZ=         -98916.1838 ZZXY=         -34121.1766
 N-N= 2.892920929281D+03 E-N=-8.789358884777D+03  KE= 1.288471342886D+03
 Unable to Open any file for archive entry.
 1\1\GINC-LAC-307\SP\RB3LYP\6-31G(d)\C20H31N4O4(1+)\KENGMITH\25-May-202
 2\0\\# B3LYP/6-31G* empiricaldispersion=gd3 guess=read geom=check nosy
 mm integral(ultrafinegrid)\\Candidate Structure: Conf:622 Charge calc 
 in gas phase\\1,1\N,0,-9.1743309281,16.2347188901,12.3787499884\C,0,-7
 .7817749966,15.9665548302,12.9183478999\C,0,-7.5733776171,17.192160543
 4,13.8495176831\O,0,-8.6128558466,17.6851023639,14.3042772742\C,0,-6.8
 621423108,15.690781491,11.7248954877\C,0,-7.5353523954,14.7424035434,1
 0.7448242884\C,0,-8.2199776491,15.2397760683,9.6260303486\C,0,-7.52796
 66847,13.3601917814,10.9838128512\C,0,-8.8747787152,14.3655355137,8.75
 78103802\C,0,-8.1837277851,12.4873716403,10.1162437613\C,0,-8.85735090
 85,12.9894356757,9.0009653542\H,0,-9.0930775314,17.0411371029,11.67105
 34929\H,0,-7.8461696283,15.0717322767,13.5492398701\H,0,-6.6225313149,
 16.6404959066,11.2450576353\H,0,-5.9334471093,15.2404955303,12.0870623
 385\H,0,-8.2342049942,16.3122368968,9.448419702\H,0,-6.9915885885,12.9
 670928087,11.8446160847\H,0,-9.3924275011,14.7566650601,7.8866916006\H
 ,0,-8.1611086472,11.418467781,10.3056119057\H,0,-9.3627622188,12.31028
 10749,8.3208034733\H,0,-9.7457335143,16.5927838783,13.1588203244\H,0,-
 9.5676187559,15.4076147155,11.9323746413\N,0,-6.3619784113,17.72027008
 88,14.1141720015\C,0,-6.3944030036,18.9632724709,14.9212579206\C,0,-7.
 1050077253,20.1071239153,14.1642610536\O,0,-7.6808731104,20.986852055,
 14.7809685593\C,0,-4.9174726175,19.2368109458,15.2421766905\C,0,-4.163
 0824613,18.5561212039,14.0952869796\C,0,-4.9844916779,17.2867413349,13
 .8057565054\H,0,-6.9940572057,18.8116526757,15.8198380906\H,0,-4.71515
 34488,20.3072528236,15.3198949293\H,0,-4.6557196926,18.7792023756,16.2
 022588863\H,0,-4.1591570264,19.2040064838,13.2109302424\H,0,-3.1263122
 174,18.3182440936,14.3442282872\H,0,-4.6955661222,16.4529759063,14.457
 6330042\H,0,-4.8781171338,16.9728214392,12.7673854792\N,0,-7.000490138
 3,20.0567113188,12.788725913\C,0,-8.0303943569,20.6342689474,11.934632
 9111\C,0,-8.967850872,19.5463932495,11.3888943199\O,0,-8.4668411705,18
 .4398795082,11.0364423044\C,0,-7.3824471641,21.396500091,10.7349318286
 \C,0,-8.2573555737,21.5209130465,9.4721900094\C,0,-9.5845749921,22.284
 6219001,9.6762404675\C,0,-10.7465374588,21.7974024804,8.7972063499\N,0
 ,-11.0323649485,20.3243198159,9.0176435605\O,0,-10.1945452155,19.86355
 3831,11.2616894414\H,0,-10.6621132926,19.9922514635,10.0412181505\H,0,
 -6.6199241144,19.1982152931,12.4097309456\H,0,-8.6182641038,21.3059153
 243,12.5582152576\H,0,-6.4637167266,20.8658400136,10.4624628245\H,0,-7
 .079234052,22.388321898,11.0878478727\H,0,-7.6733414626,22.0118190109,
 8.6860358434\H,0,-8.4456452048,20.502536867,9.1010274987\H,0,-9.441837
 5648,23.3496477675,9.4604599758\H,0,-9.9045847617,22.2164642816,10.715
 8882025\H,0,-11.6600561721,22.3384978343,9.0509107222\H,0,-10.55571170
 44,21.9450073858,7.7326713287\H,0,-12.0218558285,20.112100563,8.882475
 2822\H,0,-10.5140955963,19.7591539732,8.338543234\\Version=ES64L-G16Re
 vC.01\HF=-1300.6116516\RMSD=6.803e-09\Dipole=-1.2927686,-1.295363,-2.9
 680386\Quadrupole=-307.1008812,519.4338364,-212.3329552,-544.4946126,-
 286.8234138,611.9878804\PG=C01 [X(C20H31N4O4)]\\@
 The archive entry for this job was punched.


 THE MOST SERIOUS THREAT TO THE SURVIVAL OF MANKIND IS NOT NOW
 IGNORANCE IN THE TRADITIONAL SENSE,
 BUT A MORALLY NEUTRAL, AN INSENSITIVE OR INHIBITED HUMAN INTELLIGENCE.

                     -- MARGO JEFFERSON IN NEWSWEEK, SEPTEMBER 2, 1974
 Job cpu time:       0 days  0 hours  1 minutes 16.2 seconds.
 Elapsed time:       0 days  0 hours  0 minutes 19.5 seconds.
 File lengths (MBytes):  RWF=    240 Int=      0 D2E=      0 Chk=     32 Scr=     16
 Normal termination of Gaussian 16 at Wed May 25 19:10:04 2022.
