 Entering Gaussian System, Link 0=/opt/software/Gaussian/g16-AVX2-C.01/g16/g16
 Input=charge-conf-102.com
 Output=charge-conf-102.log
 Initial command:
 /opt/software/Gaussian/g16-AVX2-C.01/g16/l1.exe "/mnt/gs18/scratch/users/kengmith/Gau-95838.inp" -scrdir="/mnt/gs18/scratch/users/kengmith/"
 Entering Link 1 = /opt/software/Gaussian/g16-AVX2-C.01/g16/l1.exe PID=     95850.
  
 Copyright (c) 1988-2019, Gaussian, Inc.  All Rights Reserved.
  
 This is part of the Gaussian(R) 16 program.  It is based on
 the Gaussian(R) 09 system (copyright 2009, Gaussian, Inc.),
 the Gaussian(R) 03 system (copyright 2003, Gaussian, Inc.),
 the Gaussian(R) 98 system (copyright 1998, Gaussian, Inc.),
 the Gaussian(R) 94 system (copyright 1995, Gaussian, Inc.),
 the Gaussian 92(TM) system (copyright 1992, Gaussian, Inc.),
 the Gaussian 90(TM) system (copyright 1990, Gaussian, Inc.),
 the Gaussian 88(TM) system (copyright 1988, Gaussian, Inc.),
 the Gaussian 86(TM) system (copyright 1986, Carnegie Mellon
 University), and the Gaussian 82(TM) system (copyright 1983,
 Carnegie Mellon University). Gaussian is a federally registered
 trademark of Gaussian, Inc.
  
 This software contains proprietary and confidential information,
 including trade secrets, belonging to Gaussian, Inc.
  
 This software is provided under written license and may be
 used, copied, transmitted, or stored only in accord with that
 written license.
  
 The following legend is applicable only to US Government
 contracts under FAR:
  
                    RESTRICTED RIGHTS LEGEND
  
 Use, reproduction and disclosure by the US Government is
 subject to restrictions as set forth in subparagraphs (a)
 and (c) of the Commercial Computer Software - Restricted
 Rights clause in FAR 52.227-19.
  
 Gaussian, Inc.
 340 Quinnipiac St., Bldg. 40, Wallingford CT 06492
  
  
 ---------------------------------------------------------------
 Warning -- This program may not be used in any manner that
 competes with the business of Gaussian, Inc. or will provide
 assistance to any competitor of Gaussian, Inc.  The licensee
 of this program is prohibited from giving any competitor of
 Gaussian, Inc. access to this program.  By using this program,
 the user acknowledges that Gaussian, Inc. is engaged in the
 business of creating and licensing software in the field of
 computational chemistry and represents and warrants to the
 licensee that it is not a competitor of Gaussian, Inc. and that
 it will not use this program in any manner prohibited above.
 ---------------------------------------------------------------
  

 Cite this work as:
 Gaussian 16, Revision C.01,
 M. J. Frisch, G. W. Trucks, H. B. Schlegel, G. E. Scuseria, 
 M. A. Robb, J. R. Cheeseman, G. Scalmani, V. Barone, 
 G. A. Petersson, H. Nakatsuji, X. Li, M. Caricato, A. V. Marenich, 
 J. Bloino, B. G. Janesko, R. Gomperts, B. Mennucci, H. P. Hratchian, 
 J. V. Ortiz, A. F. Izmaylov, J. L. Sonnenberg, D. Williams-Young, 
 F. Ding, F. Lipparini, F. Egidi, J. Goings, B. Peng, A. Petrone, 
 T. Henderson, D. Ranasinghe, V. G. Zakrzewski, J. Gao, N. Rega, 
 G. Zheng, W. Liang, M. Hada, M. Ehara, K. Toyota, R. Fukuda, 
 J. Hasegawa, M. Ishida, T. Nakajima, Y. Honda, O. Kitao, H. Nakai, 
 T. Vreven, K. Throssell, J. A. Montgomery, Jr., J. E. Peralta, 
 F. Ogliaro, M. J. Bearpark, J. J. Heyd, E. N. Brothers, K. N. Kudin, 
 V. N. Staroverov, T. A. Keith, R. Kobayashi, J. Normand, 
 K. Raghavachari, A. P. Rendell, J. C. Burant, S. S. Iyengar, 
 J. Tomasi, M. Cossi, J. M. Millam, M. Klene, C. Adamo, R. Cammi, 
 J. W. Ochterski, R. L. Martin, K. Morokuma, O. Farkas, 
 J. B. Foresman, and D. J. Fox, Gaussian, Inc., Wallingford CT, 2019.
 
 ******************************************
 Gaussian 16:  ES64L-G16RevC.01  3-Jul-2019
                31-May-2022 
 ******************************************
 %mem=8gb
 %nproc=4
 Will use up to    4 processors via shared memory.
 %chk=conf-102.chk
 ----------------------------------------------------------------------
 # B3LYP/6-31G* empiricaldispersion=gd3 guess=read geom=check nosymm in
 tegral(ultrafinegrid)
 ----------------------------------------------------------------------
 1/29=2,38=1,172=1/1;
 2/12=2,15=1,40=1/2;
 3/5=1,6=6,7=1,11=2,14=-4,25=1,30=1,74=-5,75=-5,116=-2,124=31/1,2,3;
 4/5=1/1;
 5/5=2,38=6/2;
 6/7=2,8=2,9=2,10=2,28=1/1;
 99/5=1,9=1/99;
 ------------------------------------------------------
 Candidate Structure: Conf:102 Charge calc in gas phase
 ------------------------------------------------------
 Structure from the checkpoint file:  "conf-102.chk"
 Charge =  1 Multiplicity = 1
 Redundant internal coordinates found in file.  (old form).
 N,0,36.171866947,-29.5678143551,45.2627495847
 C,0,34.9158393174,-29.9200012409,44.6056453832
 C,0,34.7525352692,-29.2224336079,43.2571022231
 O,0,35.5861701058,-29.4103759528,42.3547544246
 C,0,34.8420969778,-31.4568380616,44.3342880454
 C,0,34.3565120859,-32.3005618378,45.494254195
 C,0,34.9536607095,-32.2546056155,46.7616449596
 C,0,33.273130254,-33.1680712564,45.2915748187
 C,0,34.4682469256,-33.0503877979,47.8004145898
 C,0,32.786423492,-33.9675473696,46.3192605996
 C,0,33.3837033268,-33.9093569084,47.5849384587
 O,0,32.8634280206,-34.711321335,48.5561256426
 H,0,34.0945955441,-29.6442319751,45.2748327162
 H,0,34.1793179367,-31.6449135043,43.4784057122
 H,0,35.8464994415,-31.7726138443,44.0120031889
 H,0,35.7947547818,-31.5867801634,46.9336752399
 H,0,32.8163002949,-33.2304429654,44.3071582313
 H,0,34.9391530101,-33.0074438823,48.7810140227
 H,0,31.9504229782,-34.6418227863,46.16448103
 H,0,33.3641841988,-34.5954896305,49.3793224834
 H,0,36.9444692646,-29.6821066105,44.6066345719
 H,0,36.170220054,-28.5921169313,45.559141349
 N,0,33.6484772905,-28.4651346384,43.025292871
 C,0,33.385485228,-27.8945617661,41.6989820886
 C,0,33.3058560448,-29.0416624652,40.6706377737
 O,0,33.8215976364,-28.935495737,39.564896863
 C,0,32.1453591389,-26.9649042165,41.712847082
 C,0,30.8396337699,-27.6811939386,42.0945521739
 C,0,32.0054600817,-26.2483749554,40.3621806475
 H,0,33.0435515706,-28.2257015409,43.7995009039
 H,0,34.255742959,-27.3123531813,41.3833386818
 H,0,32.360965035,-26.2074806368,42.4808551619
 H,0,30.8991466154,-28.2129363113,43.05305813
 H,0,30.0297092379,-26.9513531557,42.1860440878
 H,0,30.5493468605,-28.4042889061,41.3240545887
 H,0,31.1754708022,-25.5362863153,40.400162825
 H,0,31.803945651,-26.9594944394,39.5532923806
 H,0,32.9150221001,-25.696478133,40.1030542426
 N,0,32.6174955661,-30.1641201906,41.0888028323
 C,0,33.062454787,-31.5000211885,40.6651350572
 C,0,32.2986718275,-32.5500442789,41.4722913733
 O,0,32.8329584433,-33.5577402614,41.8889705571
 C,0,32.9398280632,-31.7855548909,39.1504937214
 C,0,33.6299603737,-33.09681675,38.7235651123
 C,0,35.079684472,-33.2377316176,39.2283104225
 N,0,35.8560890577,-32.0100821032,39.0113580325
 C,0,36.2788731052,-31.1723837571,39.9631696787
 N,0,36.5691059772,-31.603546276,41.1966459227
 N,0,36.4515287126,-29.8720185651,39.6616463899
 O,0,30.9948744097,-32.3068665016,41.6991399169
 H,0,30.7199420936,-31.4813719165,41.2549860615
 H,0,32.4009691631,-30.1311490663,42.0810141287
 H,0,34.1028608689,-31.6065026853,40.9755592446
 H,0,33.3751496727,-30.9356864381,38.6226015437
 H,0,31.8805723594,-31.8173804905,38.8688197937
 H,0,33.6105914724,-33.1553216132,37.6287305121
 H,0,33.0789917586,-33.970949985,39.0895321346
 H,0,35.5858990477,-34.0709808586,38.7320096285
 H,0,35.0658099499,-33.4555992623,40.2956704763
 H,0,35.8598903133,-31.63870868,38.0693849366
 H,0,36.4322792236,-30.94954578,41.9657532269
 H,0,36.631313607,-32.5937435152,41.4056693753
 H,0,36.7431794171,-29.2779079383,40.4297993979
 H,0,35.7060742097,-29.4421186305,39.1225918401
 Recover connectivity data from disk.
                           ----------------------------
                           !    Current Parameters    !
                           ! (Angstroms and Degrees)  !
 --------------------------                            --------------------------
 ! Name  Definition              Value                                          !
 --------------------------------------------------------------------------------
 ! R1    R(1,2)                  1.4606                                         !
 ! R2    R(1,21)                 1.02                                           !
 ! R3    R(1,22)                 1.0197                                         !
 ! R4    R(2,3)                  1.527                                          !
 ! R5    R(2,5)                  1.5624                                         !
 ! R6    R(2,13)                 1.0947                                         !
 ! R7    R(3,4)                  1.2428                                         !
 ! R8    R(3,23)                 1.3587                                         !
 ! R9    R(5,6)                  1.5143                                         !
 ! R10   R(5,14)                 1.0987                                         !
 ! R11   R(5,15)                 1.1011                                         !
 ! R12   R(6,7)                  1.4018                                         !
 ! R13   R(6,8)                  1.4026                                         !
 ! R14   R(7,9)                  1.3957                                         !
 ! R15   R(7,16)                 1.0877                                         !
 ! R16   R(8,10)                 1.39                                           !
 ! R17   R(8,17)                 1.087                                          !
 ! R18   R(9,11)                 1.4002                                         !
 ! R19   R(9,18)                 1.0887                                         !
 ! R20   R(10,11)                1.4007                                         !
 ! R21   R(10,19)                1.0851                                         !
 ! R22   R(11,12)                1.3627                                         !
 ! R23   R(12,20)                0.9705                                         !
 ! R24   R(23,24)                1.4676                                         !
 ! R25   R(23,30)                1.0113                                         !
 ! R26   R(24,25)                1.5426                                         !
 ! R27   R(24,27)                1.55                                           !
 ! R28   R(24,31)                1.0936                                         !
 ! R29   R(25,26)                1.2247                                         !
 ! R30   R(25,39)                1.3815                                         !
 ! R31   R(27,28)                1.5374                                         !
 ! R32   R(27,29)                1.5353                                         !
 ! R33   R(27,32)                1.1                                            !
 ! R34   R(28,33)                1.0977                                         !
 ! R35   R(28,34)                1.0941                                         !
 ! R36   R(28,35)                1.0958                                         !
 ! R37   R(29,36)                1.0943                                         !
 ! R38   R(29,37)                1.0957                                         !
 ! R39   R(29,38)                1.095                                          !
 ! R40   R(39,40)                1.4704                                         !
 ! R41   R(39,52)                1.0161                                         !
 ! R42   R(40,41)                1.5289                                         !
 ! R43   R(40,43)                1.5462                                         !
 ! R44   R(40,53)                1.0909                                         !
 ! R45   R(41,42)                1.2143                                         !
 ! R46   R(41,50)                1.3455                                         !
 ! R47   R(43,44)                1.5421                                         !
 ! R48   R(43,54)                1.0911                                         !
 ! R49   R(43,55)                1.0965                                         !
 ! R50   R(44,45)                1.5415                                         !
 ! R51   R(44,56)                1.0966                                         !
 ! R52   R(44,57)                1.0962                                         !
 ! R53   R(45,46)                1.4687                                         !
 ! R54   R(45,58)                1.094                                          !
 ! R55   R(45,59)                1.0895                                         !
 ! R56   R(46,47)                1.3366                                         !
 ! R57   R(46,60)                1.0125                                         !
 ! R58   R(47,48)                1.3385                                         !
 ! R59   R(47,49)                1.346                                          !
 ! R60   R(48,61)                1.0188                                         !
 ! R61   R(48,62)                1.0139                                         !
 ! R62   R(49,63)                1.0139                                         !
 ! R63   R(49,64)                1.0154                                         !
 ! R64   R(50,51)                0.9769                                         !
 ! A1    A(2,1,21)             109.5689                                         !
 ! A2    A(2,1,22)             111.1053                                         !
 ! A3    A(21,1,22)            107.1812                                         !
 ! A4    A(1,2,3)              112.2785                                         !
 ! A5    A(1,2,5)              110.8491                                         !
 ! A6    A(1,2,13)             108.0214                                         !
 ! A7    A(3,2,5)              106.9131                                         !
 ! A8    A(3,2,13)             110.1543                                         !
 ! A9    A(5,2,13)             108.5766                                         !
 ! A10   A(2,3,4)              120.0255                                         !
 ! A11   A(2,3,23)             119.483                                          !
 ! A12   A(4,3,23)             120.3622                                         !
 ! A13   A(2,5,6)              115.4774                                         !
 ! A14   A(2,5,14)             109.3994                                         !
 ! A15   A(2,5,15)             106.8509                                         !
 ! A16   A(6,5,14)             107.9322                                         !
 ! A17   A(6,5,15)             110.9112                                         !
 ! A18   A(14,5,15)            105.8525                                         !
 ! A19   A(5,6,7)              122.5268                                         !
 ! A20   A(5,6,8)              118.7892                                         !
 ! A21   A(7,6,8)              118.6827                                         !
 ! A22   A(6,7,9)              120.4023                                         !
 ! A23   A(6,7,16)             119.5084                                         !
 ! A24   A(9,7,16)             120.0872                                         !
 ! A25   A(6,8,10)             121.2879                                         !
 ! A26   A(6,8,17)             119.4026                                         !
 ! A27   A(10,8,17)            119.2999                                         !
 ! A28   A(7,9,11)             120.3076                                         !
 ! A29   A(7,9,18)             119.8324                                         !
 ! A30   A(11,9,18)            119.8589                                         !
 ! A31   A(8,10,11)            119.6595                                         !
 ! A32   A(8,10,19)            121.4454                                         !
 ! A33   A(11,10,19)           118.895                                          !
 ! A34   A(9,11,10)            119.658                                          !
 ! A35   A(9,11,12)            123.1666                                         !
 ! A36   A(10,11,12)           117.1754                                         !
 ! A37   A(11,12,20)           109.7113                                         !
 ! A38   A(3,23,24)            121.0966                                         !
 ! A39   A(3,23,30)            119.1705                                         !
 ! A40   A(24,23,30)           119.5141                                         !
 ! A41   A(23,24,25)           108.8202                                         !
 ! A42   A(23,24,27)           111.6222                                         !
 ! A43   A(23,24,31)           108.979                                          !
 ! A44   A(25,24,27)           114.2472                                         !
 ! A45   A(25,24,31)           104.1554                                         !
 ! A46   A(27,24,31)           108.6609                                         !
 ! A47   A(24,25,26)           121.042                                          !
 ! A48   A(24,25,39)           115.3475                                         !
 ! A49   A(26,25,39)           123.6098                                         !
 ! A50   A(24,27,28)           113.7218                                         !
 ! A51   A(24,27,29)           110.1789                                         !
 ! A52   A(24,27,32)           105.2136                                         !
 ! A53   A(28,27,29)           111.0054                                         !
 ! A54   A(28,27,32)           108.2959                                         !
 ! A55   A(29,27,32)           108.1026                                         !
 ! A56   A(27,28,33)           113.3548                                         !
 ! A57   A(27,28,34)           109.7965                                         !
 ! A58   A(27,28,35)           110.9681                                         !
 ! A59   A(33,28,34)           106.8728                                         !
 ! A60   A(33,28,35)           107.9791                                         !
 ! A61   A(34,28,35)           107.6308                                         !
 ! A62   A(27,29,36)           110.0157                                         !
 ! A63   A(27,29,37)           111.3034                                         !
 ! A64   A(27,29,38)           111.5744                                         !
 ! A65   A(36,29,37)           107.9668                                         !
 ! A66   A(36,29,38)           108.0754                                         !
 ! A67   A(37,29,38)           107.7685                                         !
 ! A68   A(25,39,40)           120.0108                                         !
 ! A69   A(25,39,52)           112.0479                                         !
 ! A70   A(40,39,52)           112.0441                                         !
 ! A71   A(39,40,41)           108.7041                                         !
 ! A72   A(39,40,43)           115.2156                                         !
 ! A73   A(39,40,53)           107.1744                                         !
 ! A74   A(41,40,43)           110.5315                                         !
 ! A75   A(41,40,53)           105.0211                                         !
 ! A76   A(43,40,53)           109.6548                                         !
 ! A77   A(40,41,42)           122.093                                          !
 ! A78   A(40,41,50)           116.677                                          !
 ! A79   A(42,41,50)           121.2297                                         !
 ! A80   A(40,43,44)           113.1252                                         !
 ! A81   A(40,43,54)           107.3656                                         !
 ! A82   A(40,43,55)           109.488                                          !
 ! A83   A(44,43,54)           110.4771                                         !
 ! A84   A(44,43,55)           109.6655                                         !
 ! A85   A(54,43,55)           106.4838                                         !
 ! A86   A(43,44,45)           114.077                                          !
 ! A87   A(43,44,56)           108.2932                                         !
 ! A88   A(43,44,57)           111.1438                                         !
 ! A89   A(45,44,56)           109.7945                                         !
 ! A90   A(45,44,57)           106.8868                                         !
 ! A91   A(56,44,57)           106.374                                          !
 ! A92   A(44,45,46)           111.8625                                         !
 ! A93   A(44,45,58)           110.8694                                         !
 ! A94   A(44,45,59)           109.0924                                         !
 ! A95   A(46,45,58)           108.9672                                         !
 ! A96   A(46,45,59)           108.5793                                         !
 ! A97   A(58,45,59)           107.3393                                         !
 ! A98   A(45,46,47)           125.868                                          !
 ! A99   A(45,46,60)           116.4868                                         !
 ! A100  A(47,46,60)           115.5585                                         !
 ! A101  A(46,47,48)           121.5301                                         !
 ! A102  A(46,47,49)           119.1144                                         !
 ! A103  A(48,47,49)           119.3293                                         !
 ! A104  A(47,48,61)           117.3725                                         !
 ! A105  A(47,48,62)           121.1889                                         !
 ! A106  A(61,48,62)           118.6539                                         !
 ! A107  A(47,49,63)           115.6749                                         !
 ! A108  A(47,49,64)           115.7071                                         !
 ! A109  A(63,49,64)           111.4243                                         !
 ! A110  A(41,50,51)           110.4124                                         !
 ! D1    D(21,1,2,3)           -49.7948                                         !
 ! D2    D(21,1,2,5)            69.7067                                         !
 ! D3    D(21,1,2,13)         -171.4522                                         !
 ! D4    D(22,1,2,3)            68.4504                                         !
 ! D5    D(22,1,2,5)          -172.0481                                         !
 ! D6    D(22,1,2,13)          -53.2069                                         !
 ! D7    D(1,2,3,4)             59.7662                                         !
 ! D8    D(1,2,3,23)          -124.3504                                         !
 ! D9    D(5,2,3,4)            -62.0087                                         !
 ! D10   D(5,2,3,23)           113.8747                                         !
 ! D11   D(13,2,3,4)          -179.8027                                         !
 ! D12   D(13,2,3,23)           -3.9193                                         !
 ! D13   D(1,2,5,6)             84.039                                          !
 ! D14   D(1,2,5,14)          -153.9974                                         !
 ! D15   D(1,2,5,15)           -39.8392                                         !
 ! D16   D(3,2,5,6)           -153.2899                                         !
 ! D17   D(3,2,5,14)           -31.3263                                         !
 ! D18   D(3,2,5,15)            82.8319                                         !
 ! D19   D(13,2,5,6)           -34.4664                                         !
 ! D20   D(13,2,5,14)           87.4972                                         !
 ! D21   D(13,2,5,15)         -158.3446                                         !
 ! D22   D(2,3,23,24)         -173.5346                                         !
 ! D23   D(2,3,23,30)           11.8672                                         !
 ! D24   D(4,3,23,24)            2.3346                                         !
 ! D25   D(4,3,23,30)         -172.2636                                         !
 ! D26   D(2,5,6,7)            -54.6219                                         !
 ! D27   D(2,5,6,8)            125.7984                                         !
 ! D28   D(14,5,6,7)          -177.3678                                         !
 ! D29   D(14,5,6,8)             3.0524                                         !
 ! D30   D(15,5,6,7)            67.101                                          !
 ! D31   D(15,5,6,8)          -112.4787                                         !
 ! D32   D(5,6,7,9)            179.8893                                         !
 ! D33   D(5,6,7,16)             0.4117                                         !
 ! D34   D(8,6,7,9)             -0.5305                                         !
 ! D35   D(8,6,7,16)           179.9919                                         !
 ! D36   D(5,6,8,10)           179.8987                                         !
 ! D37   D(5,6,8,17)             1.0351                                         !
 ! D38   D(7,6,8,10)             0.3026                                         !
 ! D39   D(7,6,8,17)          -178.561                                          !
 ! D40   D(6,7,9,11)             0.372                                          !
 ! D41   D(6,7,9,18)           179.9908                                         !
 ! D42   D(16,7,9,11)          179.8465                                         !
 ! D43   D(16,7,9,18)           -0.5347                                         !
 ! D44   D(6,8,10,11)            0.0878                                         !
 ! D45   D(6,8,10,19)         -179.8081                                         !
 ! D46   D(17,8,10,11)         178.9526                                         !
 ! D47   D(17,8,10,19)          -0.9434                                         !
 ! D48   D(7,9,11,10)            0.0256                                         !
 ! D49   D(7,9,11,12)          179.9799                                         !
 ! D50   D(18,9,11,10)        -179.5931                                         !
 ! D51   D(18,9,11,12)           0.3612                                         !
 ! D52   D(8,10,11,9)           -0.2535                                         !
 ! D53   D(8,10,11,12)         179.7895                                         !
 ! D54   D(19,10,11,9)         179.6451                                         !
 ! D55   D(19,10,11,12)         -0.3119                                         !
 ! D56   D(9,11,12,20)          -0.8317                                         !
 ! D57   D(10,11,12,20)        179.1236                                         !
 ! D58   D(3,23,24,25)          58.3423                                         !
 ! D59   D(3,23,24,27)        -174.6584                                         !
 ! D60   D(3,23,24,31)         -54.6391                                         !
 ! D61   D(30,23,24,25)       -127.0777                                         !
 ! D62   D(30,23,24,27)         -0.0785                                         !
 ! D63   D(30,23,24,31)        119.9408                                         !
 ! D64   D(23,24,25,26)       -138.5468                                         !
 ! D65   D(23,24,25,39)         41.7445                                         !
 ! D66   D(27,24,25,26)         95.9695                                         !
 ! D67   D(27,24,25,39)        -83.7392                                         !
 ! D68   D(31,24,25,26)        -22.4232                                         !
 ! D69   D(31,24,25,39)        157.8681                                         !
 ! D70   D(23,24,27,28)        -61.8479                                         !
 ! D71   D(23,24,27,29)        172.7976                                         !
 ! D72   D(23,24,27,32)         56.5018                                         !
 ! D73   D(25,24,27,28)         62.1472                                         !
 ! D74   D(25,24,27,29)        -63.2073                                         !
 ! D75   D(25,24,27,32)       -179.5031                                         !
 ! D76   D(31,24,27,28)        177.9458                                         !
 ! D77   D(31,24,27,29)         52.5913                                         !
 ! D78   D(31,24,27,32)        -63.7045                                         !
 ! D79   D(24,25,39,40)       -144.6024                                         !
 ! D80   D(24,25,39,52)        -10.0506                                         !
 ! D81   D(26,25,39,40)         35.6972                                         !
 ! D82   D(26,25,39,52)        170.2491                                         !
 ! D83   D(24,27,28,33)         54.7086                                         !
 ! D84   D(24,27,28,34)        174.1437                                         !
 ! D85   D(24,27,28,35)        -66.9958                                         !
 ! D86   D(29,27,28,33)        179.6219                                         !
 ! D87   D(29,27,28,34)        -60.943                                          !
 ! D88   D(29,27,28,35)         57.9174                                         !
 ! D89   D(32,27,28,33)        -61.8549                                         !
 ! D90   D(32,27,28,34)         57.5802                                         !
 ! D91   D(32,27,28,35)        176.4406                                         !
 ! D92   D(24,27,29,36)       -175.6921                                         !
 ! D93   D(24,27,29,37)         64.6762                                         !
 ! D94   D(24,27,29,38)        -55.7495                                         !
 ! D95   D(28,27,29,36)         57.4217                                         !
 ! D96   D(28,27,29,37)        -62.21                                           !
 ! D97   D(28,27,29,38)        177.3643                                         !
 ! D98   D(32,27,29,36)        -61.2182                                         !
 ! D99   D(32,27,29,37)        179.1501                                         !
 ! D100  D(32,27,29,38)         58.7244                                         !
 ! D101  D(25,39,40,41)        169.4513                                         !
 ! D102  D(25,39,40,43)        -65.8888                                         !
 ! D103  D(25,39,40,53)         56.4325                                         !
 ! D104  D(52,39,40,41)         34.8979                                         !
 ! D105  D(52,39,40,43)        159.5578                                         !
 ! D106  D(52,39,40,53)        -78.1209                                         !
 ! D107  D(39,40,41,42)       -140.3492                                         !
 ! D108  D(39,40,41,50)         39.8296                                         !
 ! D109  D(43,40,41,42)         92.2719                                         !
 ! D110  D(43,40,41,50)        -87.5493                                         !
 ! D111  D(53,40,41,42)        -25.9164                                         !
 ! D112  D(53,40,41,50)        154.2624                                         !
 ! D113  D(39,40,43,44)        170.424                                          !
 ! D114  D(39,40,43,54)         48.2755                                         !
 ! D115  D(39,40,43,55)        -66.9403                                         !
 ! D116  D(41,40,43,44)        -65.8753                                         !
 ! D117  D(41,40,43,54)        171.9762                                         !
 ! D118  D(41,40,43,55)         56.7604                                         !
 ! D119  D(53,40,43,44)         49.4424                                         !
 ! D120  D(53,40,43,54)        -72.7061                                         !
 ! D121  D(53,40,43,55)        172.0782                                         !
 ! D122  D(40,41,50,51)          2.8714                                         !
 ! D123  D(42,41,50,51)       -176.9514                                         !
 ! D124  D(40,43,44,45)        -50.0917                                         !
 ! D125  D(40,43,44,56)       -172.6651                                         !
 ! D126  D(40,43,44,57)         70.835                                          !
 ! D127  D(54,43,44,45)         70.3002                                         !
 ! D128  D(54,43,44,56)        -52.2733                                         !
 ! D129  D(54,43,44,57)       -168.7731                                         !
 ! D130  D(55,43,44,45)       -172.6287                                         !
 ! D131  D(55,43,44,56)         64.7979                                         !
 ! D132  D(55,43,44,57)        -51.702                                          !
 ! D133  D(43,44,45,46)        -46.3181                                         !
 ! D134  D(43,44,45,58)       -168.1734                                         !
 ! D135  D(43,44,45,59)         73.8257                                         !
 ! D136  D(56,44,45,46)         75.4312                                         !
 ! D137  D(56,44,45,58)        -46.4241                                         !
 ! D138  D(56,44,45,59)       -164.425                                          !
 ! D139  D(57,44,45,46)       -169.5846                                         !
 ! D140  D(57,44,45,58)         68.5602                                         !
 ! D141  D(57,44,45,59)        -49.4407                                         !
 ! D142  D(44,45,46,47)        109.8335                                         !
 ! D143  D(44,45,46,60)        -52.9328                                         !
 ! D144  D(58,45,46,47)       -127.2249                                         !
 ! D145  D(58,45,46,60)         70.0087                                         !
 ! D146  D(59,45,46,47)        -10.61                                           !
 ! D147  D(59,45,46,60)       -173.3763                                         !
 ! D148  D(45,46,47,48)         30.1696                                         !
 ! D149  D(45,46,47,49)       -151.7037                                         !
 ! D150  D(60,46,47,48)       -166.9241                                         !
 ! D151  D(60,46,47,49)         11.2026                                         !
 ! D152  D(46,47,48,61)       -150.225                                          !
 ! D153  D(46,47,48,62)         10.6186                                         !
 ! D154  D(49,47,48,61)         31.6523                                         !
 ! D155  D(49,47,48,62)       -167.5041                                         !
 ! D156  D(46,47,49,63)        178.0075                                         !
 ! D157  D(46,47,49,64)         45.0669                                         !
 ! D158  D(48,47,49,63)         -3.824                                          !
 ! D159  D(48,47,49,64)       -136.7646                                         !
 --------------------------------------------------------------------------------
 Symmetry turned off by external request.
 Stoichiometry    C20H33N6O5(1+)
 Framework group  C1[X(C20H33N6O5)]
 Deg. of freedom   186
 Full point group                 C1      NOp   1
                          Input orientation:                          
 ---------------------------------------------------------------------
 Center     Atomic      Atomic             Coordinates (Angstroms)
 Number     Number       Type             X           Y           Z
 ---------------------------------------------------------------------
      1          7           0       36.171867  -29.567814   45.262750
      2          6           0       34.915839  -29.920001   44.605645
      3          6           0       34.752535  -29.222434   43.257102
      4          8           0       35.586170  -29.410376   42.354754
      5          6           0       34.842097  -31.456838   44.334288
      6          6           0       34.356512  -32.300562   45.494254
      7          6           0       34.953661  -32.254606   46.761645
      8          6           0       33.273130  -33.168071   45.291575
      9          6           0       34.468247  -33.050388   47.800415
     10          6           0       32.786423  -33.967547   46.319261
     11          6           0       33.383703  -33.909357   47.584938
     12          8           0       32.863428  -34.711321   48.556126
     13          1           0       34.094596  -29.644232   45.274833
     14          1           0       34.179318  -31.644914   43.478406
     15          1           0       35.846499  -31.772614   44.012003
     16          1           0       35.794755  -31.586780   46.933675
     17          1           0       32.816300  -33.230443   44.307158
     18          1           0       34.939153  -33.007444   48.781014
     19          1           0       31.950423  -34.641823   46.164481
     20          1           0       33.364184  -34.595490   49.379322
     21          1           0       36.944469  -29.682107   44.606635
     22          1           0       36.170220  -28.592117   45.559141
     23          7           0       33.648477  -28.465135   43.025293
     24          6           0       33.385485  -27.894562   41.698982
     25          6           0       33.305856  -29.041662   40.670638
     26          8           0       33.821598  -28.935496   39.564897
     27          6           0       32.145359  -26.964904   41.712847
     28          6           0       30.839634  -27.681194   42.094552
     29          6           0       32.005460  -26.248375   40.362181
     30          1           0       33.043552  -28.225702   43.799501
     31          1           0       34.255743  -27.312353   41.383339
     32          1           0       32.360965  -26.207481   42.480855
     33          1           0       30.899147  -28.212936   43.053058
     34          1           0       30.029709  -26.951353   42.186044
     35          1           0       30.549347  -28.404289   41.324055
     36          1           0       31.175471  -25.536286   40.400163
     37          1           0       31.803946  -26.959494   39.553292
     38          1           0       32.915022  -25.696478   40.103054
     39          7           0       32.617496  -30.164120   41.088803
     40          6           0       33.062455  -31.500021   40.665135
     41          6           0       32.298672  -32.550044   41.472291
     42          8           0       32.832958  -33.557740   41.888971
     43          6           0       32.939828  -31.785555   39.150494
     44          6           0       33.629960  -33.096817   38.723565
     45          6           0       35.079684  -33.237732   39.228310
     46          7           0       35.856089  -32.010082   39.011358
     47          6           0       36.278873  -31.172384   39.963170
     48          7           0       36.569106  -31.603546   41.196646
     49          7           0       36.451529  -29.872019   39.661646
     50          8           0       30.994874  -32.306867   41.699140
     51          1           0       30.719942  -31.481372   41.254986
     52          1           0       32.400969  -30.131149   42.081014
     53          1           0       34.102861  -31.606503   40.975559
     54          1           0       33.375150  -30.935686   38.622602
     55          1           0       31.880572  -31.817380   38.868820
     56          1           0       33.610591  -33.155322   37.628731
     57          1           0       33.078992  -33.970950   39.089532
     58          1           0       35.585899  -34.070981   38.732010
     59          1           0       35.065810  -33.455599   40.295670
     60          1           0       35.859890  -31.638709   38.069385
     61          1           0       36.432279  -30.949546   41.965753
     62          1           0       36.631314  -32.593744   41.405669
     63          1           0       36.743179  -29.277908   40.429799
     64          1           0       35.706074  -29.442119   39.122592
 ---------------------------------------------------------------------
 Rotational constants (GHZ):           0.1835697           0.0990153           0.0885464
 Standard basis: 6-31G(d) (6D, 7F)
   531 basis functions,  1000 primitive gaussians,   531 cartesian basis functions
   117 alpha electrons      117 beta electrons
       nuclear repulsion energy      3471.8621481794 Hartrees.
 NAtoms=   64 NActive=   64 NUniq=   64 SFac= 1.00D+00 NAtFMM=   60 NAOKFM=T Big=T
 Integral buffers will be    131072 words long.
 Raffenetti 2 integral format.
 Two-electron integral symmetry is turned off.
 Nuclear repulsion after empirical dispersion term =     3471.7702741511 Hartrees.
 One-electron integrals computed using PRISM.
 NBasis=   531 RedAO= T EigKep=  4.14D-04  NBF=   531
 NBsUse=   531 1.00D-06 EigRej= -1.00D+00 NBFU=   531
 Initial guess from the checkpoint file:  "conf-102.chk"
 B after Tr=     0.000000    0.000000    0.000000
         Rot=    1.000000    0.000000    0.000000    0.000000 Ang=   0.00 deg.
 Requested convergence on RMS density matrix=1.00D-08 within 128 cycles.
 Requested convergence on MAX density matrix=1.00D-06.
 Requested convergence on             energy=1.00D-06.
 No special actions if energy rises.
 SCF Done:  E(RB3LYP) =  -1486.56501993     A.U. after    1 cycles
            NFock=  1  Conv=0.47D-08     -V/T= 2.0094

 **********************************************************************

            Population analysis using the SCF Density.

 **********************************************************************

 Alpha  occ. eigenvalues --  -19.31748 -19.26550 -19.26182 -19.25696 -19.24347
 Alpha  occ. eigenvalues --  -14.51891 -14.50719 -14.50397 -14.49888 -14.49477
 Alpha  occ. eigenvalues --  -14.43209 -10.47108 -10.44124 -10.42898 -10.42504
 Alpha  occ. eigenvalues --  -10.37007 -10.36357 -10.36071 -10.34437 -10.32217
 Alpha  occ. eigenvalues --  -10.31804 -10.31743 -10.31582 -10.30070 -10.29381
 Alpha  occ. eigenvalues --  -10.28077 -10.26756 -10.26105 -10.26039 -10.25853
 Alpha  occ. eigenvalues --  -10.25221  -1.22296  -1.18548  -1.17469  -1.15992
 Alpha  occ. eigenvalues --   -1.13793  -1.12451  -1.07580  -1.05731  -1.05637
 Alpha  occ. eigenvalues --   -1.03460  -1.00508  -0.93615  -0.92576  -0.92468
 Alpha  occ. eigenvalues --   -0.87903  -0.86926  -0.84129  -0.81727  -0.81630
 Alpha  occ. eigenvalues --   -0.80336  -0.79374  -0.77826  -0.75237  -0.74528
 Alpha  occ. eigenvalues --   -0.73376  -0.73021  -0.72570  -0.70408  -0.69627
 Alpha  occ. eigenvalues --   -0.69301  -0.68058  -0.67286  -0.66438  -0.66147
 Alpha  occ. eigenvalues --   -0.64233  -0.64106  -0.63135  -0.62309  -0.61208
 Alpha  occ. eigenvalues --   -0.60698  -0.59742  -0.59635  -0.59037  -0.58289
 Alpha  occ. eigenvalues --   -0.57185  -0.56906  -0.55693  -0.55601  -0.55486
 Alpha  occ. eigenvalues --   -0.55036  -0.54487  -0.54119  -0.53901  -0.53709
 Alpha  occ. eigenvalues --   -0.53134  -0.51882  -0.51572  -0.50697  -0.49951
 Alpha  occ. eigenvalues --   -0.49824  -0.49166  -0.49028  -0.48390  -0.48313
 Alpha  occ. eigenvalues --   -0.47968  -0.47521  -0.47017  -0.46789  -0.45845
 Alpha  occ. eigenvalues --   -0.45777  -0.45100  -0.44668  -0.43745  -0.42794
 Alpha  occ. eigenvalues --   -0.42462  -0.41811  -0.41106  -0.40517  -0.40356
 Alpha  occ. eigenvalues --   -0.39998  -0.39669  -0.39540  -0.37763  -0.35040
 Alpha  occ. eigenvalues --   -0.32105  -0.28725
 Alpha virt. eigenvalues --   -0.14069  -0.12863  -0.12200  -0.11310  -0.07480
 Alpha virt. eigenvalues --   -0.07073  -0.06128  -0.05643  -0.04797  -0.04581
 Alpha virt. eigenvalues --   -0.02505  -0.01909  -0.01335  -0.00468  -0.00169
 Alpha virt. eigenvalues --    0.00579   0.00819   0.01292   0.02168   0.02179
 Alpha virt. eigenvalues --    0.02445   0.03179   0.03371   0.03626   0.04211
 Alpha virt. eigenvalues --    0.04423   0.04723   0.05267   0.06151   0.06513
 Alpha virt. eigenvalues --    0.06795   0.07013   0.07836   0.08140   0.08308
 Alpha virt. eigenvalues --    0.08748   0.09001   0.09361   0.09783   0.10162
 Alpha virt. eigenvalues --    0.10469   0.10631   0.11244   0.11361   0.11981
 Alpha virt. eigenvalues --    0.12245   0.13063   0.13245   0.14216   0.14587
 Alpha virt. eigenvalues --    0.15100   0.15255   0.16414   0.16989   0.17787
 Alpha virt. eigenvalues --    0.18724   0.18858   0.21558   0.22313   0.23237
 Alpha virt. eigenvalues --    0.25634   0.26597   0.26992   0.27492   0.27745
 Alpha virt. eigenvalues --    0.28571   0.29451   0.30046   0.30742   0.36467
 Alpha virt. eigenvalues --    0.37549   0.38071   0.38649   0.38818   0.40531
 Alpha virt. eigenvalues --    0.40631   0.40921   0.41811   0.42253   0.42684
 Alpha virt. eigenvalues --    0.43471   0.43514   0.43961   0.44706   0.44803
 Alpha virt. eigenvalues --    0.45401   0.45780   0.46335   0.46760   0.47717
 Alpha virt. eigenvalues --    0.48315   0.48582   0.49336   0.49427   0.49794
 Alpha virt. eigenvalues --    0.51006   0.51061   0.51937   0.52324   0.52530
 Alpha virt. eigenvalues --    0.52866   0.53383   0.53665   0.54041   0.54914
 Alpha virt. eigenvalues --    0.55047   0.55825   0.56354   0.56956   0.57598
 Alpha virt. eigenvalues --    0.58444   0.58752   0.59360   0.59441   0.60340
 Alpha virt. eigenvalues --    0.61136   0.61461   0.61622   0.62936   0.63564
 Alpha virt. eigenvalues --    0.64097   0.64695   0.66596   0.66783   0.67492
 Alpha virt. eigenvalues --    0.68327   0.68710   0.69034   0.69231   0.70030
 Alpha virt. eigenvalues --    0.70479   0.70890   0.71804   0.71984   0.73027
 Alpha virt. eigenvalues --    0.73604   0.73985   0.74394   0.74994   0.75337
 Alpha virt. eigenvalues --    0.75963   0.76229   0.76469   0.77033   0.77314
 Alpha virt. eigenvalues --    0.77904   0.78664   0.79082   0.79881   0.80441
 Alpha virt. eigenvalues --    0.80652   0.81288   0.81590   0.82045   0.82472
 Alpha virt. eigenvalues --    0.83138   0.83297   0.83423   0.83821   0.84173
 Alpha virt. eigenvalues --    0.84260   0.84691   0.86146   0.86437   0.86666
 Alpha virt. eigenvalues --    0.87632   0.88116   0.88381   0.89653   0.89774
 Alpha virt. eigenvalues --    0.90208   0.90888   0.91329   0.92266   0.93374
 Alpha virt. eigenvalues --    0.93806   0.94080   0.94459   0.95167   0.95781
 Alpha virt. eigenvalues --    0.97425   0.97986   0.98996   0.99800   1.01313
 Alpha virt. eigenvalues --    1.01780   1.03129   1.03629   1.05781   1.06097
 Alpha virt. eigenvalues --    1.07237   1.07612   1.07999   1.09964   1.10906
 Alpha virt. eigenvalues --    1.11613   1.12611   1.14084   1.14394   1.15425
 Alpha virt. eigenvalues --    1.16103   1.16633   1.17318   1.18345   1.18833
 Alpha virt. eigenvalues --    1.19400   1.20189   1.21599   1.22937   1.24000
 Alpha virt. eigenvalues --    1.26208   1.27850   1.28845   1.29125   1.30260
 Alpha virt. eigenvalues --    1.31227   1.31653   1.32948   1.33230   1.34890
 Alpha virt. eigenvalues --    1.35672   1.36597   1.37732   1.38249   1.38557
 Alpha virt. eigenvalues --    1.38820   1.40095   1.40417   1.41027   1.42510
 Alpha virt. eigenvalues --    1.43676   1.44245   1.45444   1.46451   1.47791
 Alpha virt. eigenvalues --    1.49720   1.49984   1.52153   1.53084   1.56519
 Alpha virt. eigenvalues --    1.57164   1.57775   1.59416   1.62005   1.62404
 Alpha virt. eigenvalues --    1.62780   1.63194   1.64337   1.64648   1.65829
 Alpha virt. eigenvalues --    1.66172   1.66767   1.67002   1.67794   1.68166
 Alpha virt. eigenvalues --    1.69063   1.69615   1.70141   1.70885   1.71950
 Alpha virt. eigenvalues --    1.72512   1.73585   1.74204   1.74856   1.75041
 Alpha virt. eigenvalues --    1.75934   1.76247   1.76706   1.77796   1.78547
 Alpha virt. eigenvalues --    1.80544   1.80757   1.81472   1.81905   1.82693
 Alpha virt. eigenvalues --    1.83918   1.84713   1.85808   1.86128   1.87078
 Alpha virt. eigenvalues --    1.87388   1.88114   1.89211   1.90014   1.90241
 Alpha virt. eigenvalues --    1.90778   1.91265   1.92003   1.93440   1.94367
 Alpha virt. eigenvalues --    1.94871   1.95899   1.96033   1.98099   1.98678
 Alpha virt. eigenvalues --    1.99252   2.00124   2.00382   2.01707   2.03090
 Alpha virt. eigenvalues --    2.03361   2.04730   2.05241   2.06037   2.06496
 Alpha virt. eigenvalues --    2.07348   2.07594   2.09026   2.09605   2.13283
 Alpha virt. eigenvalues --    2.13869   2.14752   2.15541   2.15793   2.18073
 Alpha virt. eigenvalues --    2.19042   2.20087   2.20849   2.22306   2.23326
 Alpha virt. eigenvalues --    2.24150   2.24739   2.25928   2.26440   2.27119
 Alpha virt. eigenvalues --    2.27309   2.27736   2.30021   2.30246   2.31562
 Alpha virt. eigenvalues --    2.32231   2.32945   2.33502   2.34404   2.37343
 Alpha virt. eigenvalues --    2.37629   2.39006   2.40812   2.41641   2.42910
 Alpha virt. eigenvalues --    2.43307   2.44381   2.45303   2.46814   2.47684
 Alpha virt. eigenvalues --    2.48500   2.49400   2.50657   2.51513   2.52822
 Alpha virt. eigenvalues --    2.53023   2.54244   2.54512   2.56332   2.57984
 Alpha virt. eigenvalues --    2.58028   2.59190   2.59975   2.60999   2.61341
 Alpha virt. eigenvalues --    2.64843   2.65534   2.65965   2.68847   2.69437
 Alpha virt. eigenvalues --    2.70536   2.74139   2.75880   2.78453   2.81449
 Alpha virt. eigenvalues --    2.82610   2.83759   2.84710   2.89443   2.90459
 Alpha virt. eigenvalues --    2.92040   2.94219   2.94831   2.98356   3.00832
 Alpha virt. eigenvalues --    3.05097   3.06578   3.34707   3.71960   3.73248
 Alpha virt. eigenvalues --    3.78445   3.82048   3.85480   3.87833   3.89123
 Alpha virt. eigenvalues --    3.92933   4.03218   4.03718   4.05354   4.06061
 Alpha virt. eigenvalues --    4.11585   4.12336   4.14034   4.17140   4.17844
 Alpha virt. eigenvalues --    4.20591   4.22479   4.26213   4.28027   4.30193
 Alpha virt. eigenvalues --    4.31161   4.32796   4.45366   4.46859   4.49522
 Alpha virt. eigenvalues --    4.56591   4.59818   4.60651   4.68315
          Condensed to atoms (all electrons):
 Mulliken charges:
               1
     1  N   -0.683375
     2  C   -0.070969
     3  C    0.626232
     4  O   -0.588666
     5  C   -0.365884
     6  C    0.148990
     7  C   -0.186072
     8  C   -0.211838
     9  C   -0.195970
    10  C   -0.163733
    11  C    0.358469
    12  O   -0.632315
    13  H    0.158304
    14  H    0.137885
    15  H    0.141615
    16  H    0.163262
    17  H    0.151617
    18  H    0.132917
    19  H    0.154753
    20  H    0.414702
    21  H    0.310128
    22  H    0.318552
    23  N   -0.647680
    24  C   -0.010136
    25  C    0.623285
    26  O   -0.532270
    27  C   -0.127209
    28  C   -0.472648
    29  C   -0.454283
    30  H    0.356140
    31  H    0.191970
    32  H    0.161760
    33  H    0.135177
    34  H    0.188882
    35  H    0.157645
    36  H    0.174867
    37  H    0.167515
    38  H    0.164999
    39  N   -0.641397
    40  C   -0.062466
    41  C    0.614955
    42  O   -0.453942
    43  C   -0.291058
    44  C   -0.298435
    45  C   -0.183577
    46  N   -0.567353
    47  C    0.715434
    48  N   -0.753901
    49  N   -0.724724
    50  O   -0.550658
    51  H    0.431495
    52  H    0.346562
    53  H    0.175533
    54  H    0.189358
    55  H    0.169286
    56  H    0.173497
    57  H    0.196075
    58  H    0.201942
    59  H    0.189747
    60  H    0.365346
    61  H    0.415906
    62  H    0.375752
    63  H    0.378353
    64  H    0.391648
 Sum of Mulliken charges =   1.00000
 Mulliken charges with hydrogens summed into heavy atoms:
               1
     1  N   -0.054694
     2  C    0.087336
     3  C    0.626232
     4  O   -0.588666
     5  C   -0.086383
     6  C    0.148990
     7  C   -0.022811
     8  C   -0.060220
     9  C   -0.063053
    10  C   -0.008979
    11  C    0.358469
    12  O   -0.217614
    23  N   -0.291540
    24  C    0.181834
    25  C    0.623285
    26  O   -0.532270
    27  C    0.034551
    28  C    0.009057
    29  C    0.053099
    39  N   -0.294835
    40  C    0.113067
    41  C    0.614955
    42  O   -0.453942
    43  C    0.067586
    44  C    0.071138
    45  C    0.208112
    46  N   -0.202007
    47  C    0.715434
    48  N    0.037758
    49  N    0.045277
    50  O   -0.119163
 Electronic spatial extent (au):  <R**2>=        3283272.8687
 Charge=              1.0000 electrons
 Dipole moment (field-independent basis, Debye):
    X=            165.4163    Y=           -143.6093    Z=            198.7179  Tot=            295.7616
 Quadrupole moment (field-independent basis, Debye-Ang):
   XX=           5535.2064   YY=           4132.0819   ZZ=           8089.8168
   XY=          -4963.6433   XZ=           6846.4160   YZ=          -5924.2159
 Traceless Quadrupole moment (field-independent basis, Debye-Ang):
   XX=           -383.8287   YY=          -1786.9531   ZZ=           2170.7818
   XY=          -4963.6433   XZ=           6846.4160   YZ=          -5924.2159
 Octapole moment (field-independent basis, Debye-Ang**2):
  XXX=         179785.2081  YYY=        -113262.2544  ZZZ=         323418.6314  XYY=         143510.2290
  XXY=        -166508.1454  XXZ=         228963.9717  XZZ=         278979.4675  YZZ=        -240388.2980
  YYZ=         169694.0776  XYZ=        -204876.2460
 Hexadecapole moment (field-independent basis, Debye-Ang**3):
 XXXX=        5643185.2101 YYYY=        2890727.7099 ZZZZ=       12649322.6461 XXXY=       -5416425.5506
 XXXZ=        7424530.2562 YYYX=       -3961159.2449 YYYZ=       -4617047.0022 ZZZX=       11170835.9431
 ZZZY=       -9572647.7205 XXYY=        4824573.9399 XXZZ=        9322555.3755 YYZZ=        6844716.3636
 XXYZ=       -6868410.3004 YYXZ=        5898391.7027 ZZXY=       -8323061.6301
 N-N= 3.471770274151D+03 E-N=-1.037844993976D+04  KE= 1.472774884554D+03
 Unable to Open any file for archive entry.
 1\1\GINC-AMR-028\SP\RB3LYP\6-31G(d)\C20H33N6O5(1+)\KENGMITH\31-May-202
 2\0\\# B3LYP/6-31G* empiricaldispersion=gd3 guess=read geom=check nosy
 mm integral(ultrafinegrid)\\Candidate Structure: Conf:102 Charge calc 
 in gas phase\\1,1\N,0,36.171866947,-29.5678143551,45.2627495847\C,0,34
 .9158393174,-29.9200012409,44.6056453832\C,0,34.7525352692,-29.2224336
 079,43.2571022231\O,0,35.5861701058,-29.4103759528,42.3547544246\C,0,3
 4.8420969778,-31.4568380616,44.3342880454\C,0,34.3565120859,-32.300561
 8378,45.494254195\C,0,34.9536607095,-32.2546056155,46.7616449596\C,0,3
 3.273130254,-33.1680712564,45.2915748187\C,0,34.4682469256,-33.0503877
 979,47.8004145898\C,0,32.786423492,-33.9675473696,46.3192605996\C,0,33
 .3837033268,-33.9093569084,47.5849384587\O,0,32.8634280206,-34.7113213
 35,48.5561256426\H,0,34.0945955441,-29.6442319751,45.2748327162\H,0,34
 .1793179367,-31.6449135043,43.4784057122\H,0,35.8464994415,-31.7726138
 443,44.0120031889\H,0,35.7947547818,-31.5867801634,46.9336752399\H,0,3
 2.8163002949,-33.2304429654,44.3071582313\H,0,34.9391530101,-33.007443
 8823,48.7810140227\H,0,31.9504229782,-34.6418227863,46.16448103\H,0,33
 .3641841988,-34.5954896305,49.3793224834\H,0,36.9444692646,-29.6821066
 105,44.6066345719\H,0,36.170220054,-28.5921169313,45.559141349\N,0,33.
 6484772905,-28.4651346384,43.025292871\C,0,33.385485228,-27.8945617661
 ,41.6989820886\C,0,33.3058560448,-29.0416624652,40.6706377737\O,0,33.8
 215976364,-28.935495737,39.564896863\C,0,32.1453591389,-26.9649042165,
 41.712847082\C,0,30.8396337699,-27.6811939386,42.0945521739\C,0,32.005
 4600817,-26.2483749554,40.3621806475\H,0,33.0435515706,-28.2257015409,
 43.7995009039\H,0,34.255742959,-27.3123531813,41.3833386818\H,0,32.360
 965035,-26.2074806368,42.4808551619\H,0,30.8991466154,-28.2129363113,4
 3.05305813\H,0,30.0297092379,-26.9513531557,42.1860440878\H,0,30.54934
 68605,-28.4042889061,41.3240545887\H,0,31.1754708022,-25.5362863153,40
 .400162825\H,0,31.803945651,-26.9594944394,39.5532923806\H,0,32.915022
 1001,-25.696478133,40.1030542426\N,0,32.6174955661,-30.1641201906,41.0
 888028323\C,0,33.062454787,-31.5000211885,40.6651350572\C,0,32.2986718
 275,-32.5500442789,41.4722913733\O,0,32.8329584433,-33.5577402614,41.8
 889705571\C,0,32.9398280632,-31.7855548909,39.1504937214\C,0,33.629960
 3737,-33.09681675,38.7235651123\C,0,35.079684472,-33.2377316176,39.228
 3104225\N,0,35.8560890577,-32.0100821032,39.0113580325\C,0,36.27887310
 52,-31.1723837571,39.9631696787\N,0,36.5691059772,-31.603546276,41.196
 6459227\N,0,36.4515287126,-29.8720185651,39.6616463899\O,0,30.99487440
 97,-32.3068665016,41.6991399169\H,0,30.7199420936,-31.4813719165,41.25
 49860615\H,0,32.4009691631,-30.1311490663,42.0810141287\H,0,34.1028608
 689,-31.6065026853,40.9755592446\H,0,33.3751496727,-30.9356864381,38.6
 226015437\H,0,31.8805723594,-31.8173804905,38.8688197937\H,0,33.610591
 4724,-33.1553216132,37.6287305121\H,0,33.0789917586,-33.970949985,39.0
 895321346\H,0,35.5858990477,-34.0709808586,38.7320096285\H,0,35.065809
 9499,-33.4555992623,40.2956704763\H,0,35.8598903133,-31.63870868,38.06
 93849366\H,0,36.4322792236,-30.94954578,41.9657532269\H,0,36.631313607
 ,-32.5937435152,41.4056693753\H,0,36.7431794171,-29.2779079383,40.4297
 993979\H,0,35.7060742097,-29.4421186305,39.1225918401\\Version=ES64L-G
 16RevC.01\HF=-1486.5650199\RMSD=4.671e-09\Dipole=1.0820543,1.9777254,-
 2.1655611\Quadrupole=-285.3671997,-1328.5558388,1613.9230385,-3690.347
 1456,5090.1424811,-4404.5092913\PG=C01 [X(C20H33N6O5)]\\@
 The archive entry for this job was punched.


    WHAT WE HAVE LEARNED
 IS LIKE A HANDFUL OF EARTH;
  WHAT WE HAVE YET TO LEARN
   IS LIKE THE WHOLE WORLD.

         -- AVVAYIAR
 Job cpu time:       0 days  0 hours  1 minutes 11.4 seconds.
 Elapsed time:       0 days  0 hours  0 minutes 18.4 seconds.
 File lengths (MBytes):  RWF=    264 Int=      0 D2E=      0 Chk=     40 Scr=     16
 Normal termination of Gaussian 16 at Tue May 31 11:31:57 2022.
