 Entering Gaussian System, Link 0=/opt/software/Gaussian/g16-AVX2-C.01/g16/g16
 Input=charge-conf-950.com
 Output=charge-conf-950.log
 Initial command:
 /opt/software/Gaussian/g16-AVX2-C.01/g16/l1.exe "/mnt/gs18/scratch/users/kengmith/Gau-106061.inp" -scrdir="/mnt/gs18/scratch/users/kengmith/"
 Entering Link 1 = /opt/software/Gaussian/g16-AVX2-C.01/g16/l1.exe PID=    106071.
  
 Copyright (c) 1988-2019, Gaussian, Inc.  All Rights Reserved.
  
 This is part of the Gaussian(R) 16 program.  It is based on
 the Gaussian(R) 09 system (copyright 2009, Gaussian, Inc.),
 the Gaussian(R) 03 system (copyright 2003, Gaussian, Inc.),
 the Gaussian(R) 98 system (copyright 1998, Gaussian, Inc.),
 the Gaussian(R) 94 system (copyright 1995, Gaussian, Inc.),
 the Gaussian 92(TM) system (copyright 1992, Gaussian, Inc.),
 the Gaussian 90(TM) system (copyright 1990, Gaussian, Inc.),
 the Gaussian 88(TM) system (copyright 1988, Gaussian, Inc.),
 the Gaussian 86(TM) system (copyright 1986, Carnegie Mellon
 University), and the Gaussian 82(TM) system (copyright 1983,
 Carnegie Mellon University). Gaussian is a federally registered
 trademark of Gaussian, Inc.
  
 This software contains proprietary and confidential information,
 including trade secrets, belonging to Gaussian, Inc.
  
 This software is provided under written license and may be
 used, copied, transmitted, or stored only in accord with that
 written license.
  
 The following legend is applicable only to US Government
 contracts under FAR:
  
                    RESTRICTED RIGHTS LEGEND
  
 Use, reproduction and disclosure by the US Government is
 subject to restrictions as set forth in subparagraphs (a)
 and (c) of the Commercial Computer Software - Restricted
 Rights clause in FAR 52.227-19.
  
 Gaussian, Inc.
 340 Quinnipiac St., Bldg. 40, Wallingford CT 06492
  
  
 ---------------------------------------------------------------
 Warning -- This program may not be used in any manner that
 competes with the business of Gaussian, Inc. or will provide
 assistance to any competitor of Gaussian, Inc.  The licensee
 of this program is prohibited from giving any competitor of
 Gaussian, Inc. access to this program.  By using this program,
 the user acknowledges that Gaussian, Inc. is engaged in the
 business of creating and licensing software in the field of
 computational chemistry and represents and warrants to the
 licensee that it is not a competitor of Gaussian, Inc. and that
 it will not use this program in any manner prohibited above.
 ---------------------------------------------------------------
  

 Cite this work as:
 Gaussian 16, Revision C.01,
 M. J. Frisch, G. W. Trucks, H. B. Schlegel, G. E. Scuseria, 
 M. A. Robb, J. R. Cheeseman, G. Scalmani, V. Barone, 
 G. A. Petersson, H. Nakatsuji, X. Li, M. Caricato, A. V. Marenich, 
 J. Bloino, B. G. Janesko, R. Gomperts, B. Mennucci, H. P. Hratchian, 
 J. V. Ortiz, A. F. Izmaylov, J. L. Sonnenberg, D. Williams-Young, 
 F. Ding, F. Lipparini, F. Egidi, J. Goings, B. Peng, A. Petrone, 
 T. Henderson, D. Ranasinghe, V. G. Zakrzewski, J. Gao, N. Rega, 
 G. Zheng, W. Liang, M. Hada, M. Ehara, K. Toyota, R. Fukuda, 
 J. Hasegawa, M. Ishida, T. Nakajima, Y. Honda, O. Kitao, H. Nakai, 
 T. Vreven, K. Throssell, J. A. Montgomery, Jr., J. E. Peralta, 
 F. Ogliaro, M. J. Bearpark, J. J. Heyd, E. N. Brothers, K. N. Kudin, 
 V. N. Staroverov, T. A. Keith, R. Kobayashi, J. Normand, 
 K. Raghavachari, A. P. Rendell, J. C. Burant, S. S. Iyengar, 
 J. Tomasi, M. Cossi, J. M. Millam, M. Klene, C. Adamo, R. Cammi, 
 J. W. Ochterski, R. L. Martin, K. Morokuma, O. Farkas, 
 J. B. Foresman, and D. J. Fox, Gaussian, Inc., Wallingford CT, 2019.
 
 ******************************************
 Gaussian 16:  ES64L-G16RevC.01  3-Jul-2019
                31-May-2022 
 ******************************************
 %mem=8gb
 %nproc=4
 Will use up to    4 processors via shared memory.
 %chk=conf-950.chk
 ----------------------------------------------------------------------
 # B3LYP/6-31G* empiricaldispersion=gd3 guess=read geom=check nosymm in
 tegral(ultrafinegrid)
 ----------------------------------------------------------------------
 1/29=2,38=1,172=1/1;
 2/12=2,15=1,40=1/2;
 3/5=1,6=6,7=1,11=2,14=-4,25=1,30=1,74=-5,75=-5,116=-2,124=31/1,2,3;
 4/5=1/1;
 5/5=2,38=6/2;
 6/7=2,8=2,9=2,10=2,28=1/1;
 99/5=1,9=1/99;
 ------------------------------------------------------
 Candidate Structure: Conf:950 Charge calc in gas phase
 ------------------------------------------------------
 Structure from the checkpoint file:  "conf-950.chk"
 Charge =  1 Multiplicity = 1
 Redundant internal coordinates found in file.  (old form).
 N,0,34.6451308236,-30.033408278,40.05270925
 C,0,33.2566910404,-30.5054416653,40.2393493976
 C,0,33.313920283,-31.5639741286,41.3560572969
 O,0,34.2642160018,-32.3398792855,41.4316480363
 C,0,32.3314716164,-29.3004239137,40.5151899457
 C,0,32.3940636301,-28.2650883515,39.4135933467
 C,0,33.1915178279,-27.1220786141,39.5410843411
 C,0,31.6912379922,-28.4523203365,38.2129217132
 C,0,33.2878340002,-26.1898161113,38.5075406156
 C,0,31.776218768,-27.533270633,37.1743888515
 C,0,32.5783969794,-26.3927933709,37.3184541046
 O,0,32.61949169,-25.5287656038,36.2678164689
 H,0,32.8903847141,-31.0258220152,39.3398038993
 H,0,31.2984537434,-29.6622854244,40.6079647327
 H,0,32.6172623742,-28.8519807303,41.4739316907
 H,0,33.7448381665,-26.9521061708,40.4618023927
 H,0,31.0594386396,-29.3299178668,38.0910182868
 H,0,33.9080036912,-25.3041712224,38.6282448069
 H,0,31.2275199721,-27.6723481919,36.2487571487
 H,0,33.1875535963,-24.7728209776,36.4843956365
 H,0,35.2585012537,-30.8340510069,39.9004319277
 H,0,34.6969526938,-29.4185367028,39.2424475739
 N,0,32.3117403474,-31.5899017356,42.2824007044
 C,0,32.3398855117,-32.5650306381,43.3709824424
 C,0,33.6636137833,-32.464229189,44.147066665
 O,0,34.1725721222,-33.4887734603,44.6366592387
 C,0,31.0902502739,-32.4174008135,44.2783550244
 C,0,31.0091987631,-31.051726598,44.9790315922
 C,0,31.0176300042,-33.5642992958,45.2956748854
 H,0,31.5086660354,-30.9859876995,42.1858674345
 H,0,32.3560705266,-33.5762482422,42.9509902922
 H,0,30.2281188259,-32.5119408869,43.6021465735
 H,0,30.0698517436,-30.9711716306,45.5344413426
 H,0,31.8314552516,-30.9254446128,45.6922961158
 H,0,31.0453106533,-30.2091733512,44.2777513893
 H,0,31.8577031781,-33.5267281377,45.9971738411
 H,0,31.0401674037,-34.5412294585,44.8017164319
 H,0,30.0903093972,-33.4953387737,45.8728081182
 N,0,34.1942503976,-31.2312992542,44.2944320663
 C,0,35.6447440504,-30.9963641375,44.3257268106
 C,0,36.0513328766,-30.3180635415,43.0043979092
 O,0,37.0979238802,-30.5680871444,42.4519837486
 C,0,36.0924907298,-30.1818853723,45.5510642445
 C,0,35.8155971421,-30.8441835302,46.9111034076
 C,0,36.6788698114,-32.0713005229,47.2456704456
 N,0,36.2937262726,-33.2338362289,46.4330291867
 C,0,37.1188329649,-34.1156308279,45.8730071857
 N,0,38.3720686509,-34.2891025727,46.3327836216
 N,0,36.6944439496,-34.8231903035,44.8152385572
 O,0,35.1134860633,-29.4713165362,42.5621778047
 H,0,35.1168506093,-29.4653634695,41.5259047837
 H,0,33.7043998666,-30.493285199,43.7981449444
 H,0,36.1405273319,-31.9648085645,44.3059605263
 H,0,35.581737168,-29.2119674313,45.5231214268
 H,0,37.1650784223,-29.9756494286,45.4445106184
 H,0,34.7536222465,-31.1138797086,46.9864127499
 H,0,35.9978193225,-30.1062205839,47.7004083131
 H,0,36.5704966143,-32.319620753,48.3081520623
 H,0,37.7346094412,-31.8422225069,47.0574321238
 H,0,35.3484340155,-33.2425644252,46.028487925
 H,0,39.0553006651,-34.8095186146,45.8024725576
 H,0,38.6533128309,-33.927961681,47.2314954271
 H,0,37.1492017309,-35.68335324,44.5463524916
 H,0,35.7798963263,-34.6055338272,44.4197271658
 Recover connectivity data from disk.
                           ----------------------------
                           !    Current Parameters    !
                           ! (Angstroms and Degrees)  !
 --------------------------                            --------------------------
 ! Name  Definition              Value                                          !
 --------------------------------------------------------------------------------
 ! R1    R(1,2)                  1.4783                                         !
 ! R2    R(1,21)                 1.02                                           !
 ! R3    R(1,22)                 1.0185                                         !
 ! R4    R(2,3)                  1.5397                                         !
 ! R5    R(2,5)                  1.5441                                         !
 ! R6    R(2,13)                 1.1019                                         !
 ! R7    R(3,4)                  1.2291                                         !
 ! R8    R(3,23)                 1.365                                          !
 ! R9    R(5,6)                  1.5131                                         !
 ! R10   R(5,14)                 1.0985                                         !
 ! R11   R(5,15)                 1.0963                                         !
 ! R12   R(6,7)                  1.3995                                         !
 ! R13   R(6,8)                  1.4038                                         !
 ! R14   R(7,9)                  1.3952                                         !
 ! R15   R(7,16)                 1.0876                                         !
 ! R16   R(8,10)                 1.3894                                         !
 ! R17   R(8,17)                 1.0882                                         !
 ! R18   R(9,11)                 1.3994                                         !
 ! R19   R(9,18)                 1.0879                                         !
 ! R20   R(10,11)                1.4018                                         !
 ! R21   R(10,19)                1.085                                          !
 ! R22   R(11,12)                1.3609                                         !
 ! R23   R(12,20)                0.9701                                         !
 ! R24   R(23,24)                1.4617                                         !
 ! R25   R(23,30)                1.0094                                         !
 ! R26   R(24,25)                1.5378                                         !
 ! R27   R(24,27)                1.5514                                         !
 ! R28   R(24,31)                1.0951                                         !
 ! R29   R(25,26)                1.2444                                         !
 ! R30   R(25,39)                1.3503                                         !
 ! R31   R(27,28)                1.5371                                         !
 ! R32   R(27,29)                1.5348                                         !
 ! R33   R(27,32)                1.0998                                         !
 ! R34   R(28,33)                1.0942                                         !
 ! R35   R(28,34)                1.0958                                         !
 ! R36   R(28,35)                1.0968                                         !
 ! R37   R(29,36)                1.0951                                         !
 ! R38   R(29,37)                1.0949                                         !
 ! R39   R(29,38)                1.0944                                         !
 ! R40   R(39,40)                1.4697                                         !
 ! R41   R(39,52)                1.0153                                         !
 ! R42   R(40,41)                1.5399                                         !
 ! R43   R(40,43)                1.538                                          !
 ! R44   R(40,53)                1.0882                                         !
 ! R45   R(41,42)                1.2096                                         !
 ! R46   R(41,50)                1.3387                                         !
 ! R47   R(43,44)                1.5379                                         !
 ! R48   R(43,54)                1.0965                                         !
 ! R49   R(43,55)                1.0974                                         !
 ! R50   R(44,45)                1.5372                                         !
 ! R51   R(44,56)                1.0983                                         !
 ! R52   R(44,57)                1.0958                                         !
 ! R53   R(45,46)                1.4698                                         !
 ! R54   R(45,58)                1.0965                                         !
 ! R55   R(45,59)                1.0966                                         !
 ! R56   R(46,47)                1.3312                                         !
 ! R57   R(46,60)                1.0283                                         !
 ! R58   R(47,48)                1.3461                                         !
 ! R59   R(47,49)                1.3415                                         !
 ! R60   R(48,61)                1.0094                                         !
 ! R61   R(48,62)                1.0086                                         !
 ! R62   R(49,63)                1.0094                                         !
 ! R63   R(49,64)                1.0199                                         !
 ! R64   R(50,51)                1.0363                                         !
 ! A1    A(2,1,21)             109.4503                                         !
 ! A2    A(2,1,22)             109.938                                          !
 ! A3    A(21,1,22)            108.936                                          !
 ! A4    A(1,2,3)              106.0318                                         !
 ! A5    A(1,2,5)              109.6419                                         !
 ! A6    A(1,2,13)             111.0973                                         !
 ! A7    A(3,2,5)              115.4181                                         !
 ! A8    A(3,2,13)             106.2461                                         !
 ! A9    A(5,2,13)             108.373                                          !
 ! A10   A(2,3,4)              120.4848                                         !
 ! A11   A(2,3,23)             118.5527                                         !
 ! A12   A(4,3,23)             120.9251                                         !
 ! A13   A(2,5,6)              112.2815                                         !
 ! A14   A(2,5,14)             108.7535                                         !
 ! A15   A(2,5,15)             108.617                                          !
 ! A16   A(6,5,14)             109.0141                                         !
 ! A17   A(6,5,15)             110.2434                                         !
 ! A18   A(14,5,15)            107.82                                           !
 ! A19   A(5,6,7)              121.0709                                         !
 ! A20   A(5,6,8)              120.7129                                         !
 ! A21   A(7,6,8)              118.1723                                         !
 ! A22   A(6,7,9)              121.1696                                         !
 ! A23   A(6,7,16)             119.6478                                         !
 ! A24   A(9,7,16)             119.1822                                         !
 ! A25   A(6,8,10)             121.3637                                         !
 ! A26   A(6,8,17)             119.6072                                         !
 ! A27   A(10,8,17)            119.0274                                         !
 ! A28   A(7,9,11)             119.8362                                         !
 ! A29   A(7,9,18)             120.0743                                         !
 ! A30   A(11,9,18)            120.0884                                         !
 ! A31   A(8,10,11)            119.7594                                         !
 ! A32   A(8,10,19)            121.464                                          !
 ! A33   A(11,10,19)           118.7751                                         !
 ! A34   A(9,11,10)            119.6987                                         !
 ! A35   A(9,11,12)            123.2694                                         !
 ! A36   A(10,11,12)           117.0319                                         !
 ! A37   A(11,12,20)           109.8811                                         !
 ! A38   A(3,23,24)            120.261                                          !
 ! A39   A(3,23,30)            120.5208                                         !
 ! A40   A(24,23,30)           119.0546                                         !
 ! A41   A(23,24,25)           110.4073                                         !
 ! A42   A(23,24,27)           110.8906                                         !
 ! A43   A(23,24,31)           109.31                                           !
 ! A44   A(25,24,27)           113.0773                                         !
 ! A45   A(25,24,31)           103.9672                                         !
 ! A46   A(27,24,31)           108.9109                                         !
 ! A47   A(24,25,26)           119.7805                                         !
 ! A48   A(24,25,39)           116.9491                                         !
 ! A49   A(26,25,39)           123.2366                                         !
 ! A50   A(24,27,28)           113.1818                                         !
 ! A51   A(24,27,29)           110.7744                                         !
 ! A52   A(24,27,32)           105.2868                                         !
 ! A53   A(28,27,29)           111.0565                                         !
 ! A54   A(28,27,32)           108.3808                                         !
 ! A55   A(29,27,32)           107.8321                                         !
 ! A56   A(27,28,33)           110.0023                                         !
 ! A57   A(27,28,34)           111.0718                                         !
 ! A58   A(27,28,35)           112.9126                                         !
 ! A59   A(33,28,34)           107.7753                                         !
 ! A60   A(33,28,35)           107.2325                                         !
 ! A61   A(34,28,35)           107.6344                                         !
 ! A62   A(27,29,36)           111.2641                                         !
 ! A63   A(27,29,37)           111.514                                          !
 ! A64   A(27,29,38)           110.0321                                         !
 ! A65   A(36,29,37)           107.6863                                         !
 ! A66   A(36,29,38)           108.0609                                         !
 ! A67   A(37,29,38)           108.1531                                         !
 ! A68   A(25,39,40)           122.4184                                         !
 ! A69   A(25,39,52)           114.8811                                         !
 ! A70   A(40,39,52)           111.7374                                         !
 ! A71   A(39,40,41)           108.2232                                         !
 ! A72   A(39,40,43)           112.8885                                         !
 ! A73   A(39,40,53)           107.8788                                         !
 ! A74   A(41,40,43)           111.9316                                         !
 ! A75   A(41,40,53)           104.841                                          !
 ! A76   A(43,40,53)           110.6803                                         !
 ! A77   A(40,41,42)           121.9576                                         !
 ! A78   A(40,41,50)           112.1533                                         !
 ! A79   A(42,41,50)           125.8778                                         !
 ! A80   A(40,43,44)           115.0947                                         !
 ! A81   A(40,43,54)           108.2115                                         !
 ! A82   A(40,43,55)           107.861                                          !
 ! A83   A(44,43,54)           108.639                                          !
 ! A84   A(44,43,55)           110.0462                                         !
 ! A85   A(54,43,55)           106.6513                                         !
 ! A86   A(43,44,45)           115.7951                                         !
 ! A87   A(43,44,56)           109.9072                                         !
 ! A88   A(43,44,57)           108.4841                                         !
 ! A89   A(45,44,56)           109.3947                                         !
 ! A90   A(45,44,57)           106.7047                                         !
 ! A91   A(56,44,57)           106.0679                                         !
 ! A92   A(44,45,46)           111.3408                                         !
 ! A93   A(44,45,58)           109.6442                                         !
 ! A94   A(44,45,59)           109.6666                                         !
 ! A95   A(46,45,58)           109.3131                                         !
 ! A96   A(46,45,59)           108.8207                                         !
 ! A97   A(58,45,59)           107.987                                          !
 ! A98   A(45,46,47)           126.4513                                         !
 ! A99   A(45,46,60)           117.7195                                         !
 ! A100  A(47,46,60)           113.4964                                         !
 ! A101  A(46,47,48)           121.2475                                         !
 ! A102  A(46,47,49)           119.014                                          !
 ! A103  A(48,47,49)           119.7268                                         !
 ! A104  A(47,48,61)           121.1418                                         !
 ! A105  A(47,48,62)           121.186                                          !
 ! A106  A(61,48,62)           117.6466                                         !
 ! A107  A(47,49,63)           121.128                                          !
 ! A108  A(47,49,64)           118.4824                                         !
 ! A109  A(63,49,64)           118.85                                           !
 ! A110  A(41,50,51)           109.3713                                         !
 ! D1    D(21,1,2,3)            52.9796                                         !
 ! D2    D(21,1,2,5)           178.2009                                         !
 ! D3    D(21,1,2,13)          -62.0357                                         !
 ! D4    D(22,1,2,3)           172.5964                                         !
 ! D5    D(22,1,2,5)           -62.1823                                         !
 ! D6    D(22,1,2,13)           57.5811                                         !
 ! D7    D(1,2,3,4)            -37.5212                                         !
 ! D8    D(1,2,3,23)           140.2769                                         !
 ! D9    D(5,2,3,4)           -159.1073                                         !
 ! D10   D(5,2,3,23)            18.6908                                         !
 ! D11   D(13,2,3,4)            80.7618                                         !
 ! D12   D(13,2,3,23)         -101.4401                                         !
 ! D13   D(1,2,5,6)             56.838                                          !
 ! D14   D(1,2,5,14)           177.5653                                         !
 ! D15   D(1,2,5,15)           -65.3438                                         !
 ! D16   D(3,2,5,6)            176.4597                                         !
 ! D17   D(3,2,5,14)           -62.813                                          !
 ! D18   D(3,2,5,15)            54.2779                                         !
 ! D19   D(13,2,5,6)           -64.5788                                         !
 ! D20   D(13,2,5,14)           56.1485                                         !
 ! D21   D(13,2,5,15)          173.2394                                         !
 ! D22   D(2,3,23,24)         -179.0116                                         !
 ! D23   D(2,3,23,30)            5.68                                           !
 ! D24   D(4,3,23,24)           -1.2236                                         !
 ! D25   D(4,3,23,30)         -176.532                                          !
 ! D26   D(2,5,6,7)            -98.4551                                         !
 ! D27   D(2,5,6,8)             79.0926                                         !
 ! D28   D(14,5,6,7)           140.9681                                         !
 ! D29   D(14,5,6,8)           -41.4842                                         !
 ! D30   D(15,5,6,7)            22.7985                                         !
 ! D31   D(15,5,6,8)          -159.6538                                         !
 ! D32   D(5,6,7,9)            177.6981                                         !
 ! D33   D(5,6,7,16)            -2.5153                                         !
 ! D34   D(8,6,7,9)              0.0898                                         !
 ! D35   D(8,6,7,16)           179.8763                                         !
 ! D36   D(5,6,8,10)          -177.7231                                         !
 ! D37   D(5,6,8,17)             2.7538                                         !
 ! D38   D(7,6,8,10)            -0.1058                                         !
 ! D39   D(7,6,8,17)          -179.6289                                         !
 ! D40   D(6,7,9,11)            -0.0135                                         !
 ! D41   D(6,7,9,18)           179.602                                          !
 ! D42   D(16,7,9,11)         -179.801                                          !
 ! D43   D(16,7,9,18)           -0.1856                                         !
 ! D44   D(6,8,10,11)            0.045                                          !
 ! D45   D(6,8,10,19)         -179.5057                                         !
 ! D46   D(17,8,10,11)         179.5708                                         !
 ! D47   D(17,8,10,19)           0.0201                                         !
 ! D48   D(7,9,11,10)           -0.0496                                         !
 ! D49   D(7,9,11,12)          179.8816                                         !
 ! D50   D(18,9,11,10)        -179.665                                          !
 ! D51   D(18,9,11,12)           0.2662                                         !
 ! D52   D(8,10,11,9)            0.0341                                         !
 ! D53   D(8,10,11,12)        -179.9014                                         !
 ! D54   D(19,10,11,9)         179.5968                                         !
 ! D55   D(19,10,11,12)         -0.3387                                         !
 ! D56   D(9,11,12,20)          -1.0481                                         !
 ! D57   D(10,11,12,20)        178.8849                                         !
 ! D58   D(3,23,24,25)          54.8138                                         !
 ! D59   D(3,23,24,27)        -179.0542                                         !
 ! D60   D(3,23,24,31)         -58.9671                                         !
 ! D61   D(30,23,24,25)       -129.8095                                         !
 ! D62   D(30,23,24,27)         -3.6775                                         !
 ! D63   D(30,23,24,31)        116.4096                                         !
 ! D64   D(23,24,25,26)       -146.3246                                         !
 ! D65   D(23,24,25,39)         35.7208                                         !
 ! D66   D(27,24,25,26)         88.7805                                         !
 ! D67   D(27,24,25,39)        -89.1741                                         !
 ! D68   D(31,24,25,26)        -29.1885                                         !
 ! D69   D(31,24,25,39)        152.8569                                         !
 ! D70   D(23,24,27,28)        -62.6462                                         !
 ! D71   D(23,24,27,29)        171.8701                                         !
 ! D72   D(23,24,27,32)         55.5604                                         !
 ! D73   D(25,24,27,28)         61.9863                                         !
 ! D74   D(25,24,27,29)        -63.4974                                         !
 ! D75   D(25,24,27,32)       -179.8071                                         !
 ! D76   D(31,24,27,28)        177.0292                                         !
 ! D77   D(31,24,27,29)         51.5455                                         !
 ! D78   D(31,24,27,32)        -64.7642                                         !
 ! D79   D(24,25,39,40)       -146.5444                                         !
 ! D80   D(24,25,39,52)         -5.4531                                         !
 ! D81   D(26,25,39,40)         35.5781                                         !
 ! D82   D(26,25,39,52)        176.6694                                         !
 ! D83   D(24,27,28,33)        175.1581                                         !
 ! D84   D(24,27,28,34)        -65.6052                                         !
 ! D85   D(24,27,28,35)         55.4136                                         !
 ! D86   D(29,27,28,33)        -59.5099                                         !
 ! D87   D(29,27,28,34)         59.7269                                         !
 ! D88   D(29,27,28,35)       -179.2543                                         !
 ! D89   D(32,27,28,33)         58.7655                                         !
 ! D90   D(32,27,28,34)        178.0023                                         !
 ! D91   D(32,27,28,35)        -60.9789                                         !
 ! D92   D(24,27,29,36)         64.972                                          !
 ! D93   D(24,27,29,37)        -55.281                                          !
 ! D94   D(24,27,29,38)       -175.2929                                         !
 ! D95   D(28,27,29,36)        -61.6974                                         !
 ! D96   D(28,27,29,37)        178.0496                                         !
 ! D97   D(28,27,29,38)         58.0377                                         !
 ! D98   D(32,27,29,36)        179.696                                          !
 ! D99   D(32,27,29,37)         59.443                                          !
 ! D100  D(32,27,29,38)        -60.5689                                         !
 ! D101  D(25,39,40,41)        107.7653                                         !
 ! D102  D(25,39,40,43)       -127.7751                                         !
 ! D103  D(25,39,40,53)         -5.1612                                         !
 ! D104  D(52,39,40,41)        -34.3987                                         !
 ! D105  D(52,39,40,43)         90.0608                                         !
 ! D106  D(52,39,40,53)       -147.3253                                         !
 ! D107  D(39,40,41,42)       -143.2426                                         !
 ! D108  D(39,40,41,50)         35.6064                                         !
 ! D109  D(43,40,41,42)         91.7289                                         !
 ! D110  D(43,40,41,50)        -89.422                                          !
 ! D111  D(53,40,41,42)        -28.3064                                         !
 ! D112  D(53,40,41,50)        150.5426                                         !
 ! D113  D(39,40,43,44)         61.9239                                         !
 ! D114  D(39,40,43,54)        -59.7852                                         !
 ! D115  D(39,40,43,55)       -174.8062                                         !
 ! D116  D(41,40,43,44)       -175.6702                                         !
 ! D117  D(41,40,43,54)         62.6208                                         !
 ! D118  D(41,40,43,55)        -52.4002                                         !
 ! D119  D(53,40,43,44)        -59.1109                                         !
 ! D120  D(53,40,43,54)        179.1801                                         !
 ! D121  D(53,40,43,55)         64.1591                                         !
 ! D122  D(40,41,50,51)       -147.4318                                         !
 ! D123  D(42,41,50,51)         31.363                                          !
 ! D124  D(40,43,44,45)         70.6315                                         !
 ! D125  D(40,43,44,56)        -53.9301                                         !
 ! D126  D(40,43,44,57)       -169.4888                                         !
 ! D127  D(54,43,44,45)       -167.891                                          !
 ! D128  D(54,43,44,56)         67.5474                                         !
 ! D129  D(54,43,44,57)        -48.0113                                         !
 ! D130  D(55,43,44,45)        -51.4688                                         !
 ! D131  D(55,43,44,56)       -176.0303                                         !
 ! D132  D(55,43,44,57)         68.4109                                         !
 ! D133  D(43,44,45,46)        -71.9739                                         !
 ! D134  D(43,44,45,58)        166.9295                                         !
 ! D135  D(43,44,45,59)         48.52                                           !
 ! D136  D(56,44,45,46)         52.8521                                         !
 ! D137  D(56,44,45,58)        -68.2446                                         !
 ! D138  D(56,44,45,59)        173.346                                          !
 ! D139  D(57,44,45,46)        167.1831                                         !
 ! D140  D(57,44,45,58)         46.0865                                         !
 ! D141  D(57,44,45,59)        -72.323                                          !
 ! D142  D(44,45,46,47)        139.4308                                         !
 ! D143  D(44,45,46,60)        -22.0181                                         !
 ! D144  D(58,45,46,47)        -99.2791                                         !
 ! D145  D(58,45,46,60)         99.272                                          !
 ! D146  D(59,45,46,47)         18.4403                                         !
 ! D147  D(59,45,46,60)       -143.0085                                         !
 ! D148  D(45,46,47,48)         21.6696                                         !
 ! D149  D(45,46,47,49)       -157.0796                                         !
 ! D150  D(60,46,47,48)       -176.215                                          !
 ! D151  D(60,46,47,49)          5.0358                                         !
 ! D152  D(46,47,48,61)       -167.3058                                         !
 ! D153  D(46,47,48,62)         14.5787                                         !
 ! D154  D(49,47,48,61)         11.4347                                         !
 ! D155  D(49,47,48,62)       -166.6809                                         !
 ! D156  D(46,47,49,63)       -160.3585                                         !
 ! D157  D(46,47,49,64)          5.3268                                         !
 ! D158  D(48,47,49,63)         20.8729                                         !
 ! D159  D(48,47,49,64)       -173.4418                                         !
 --------------------------------------------------------------------------------
 Symmetry turned off by external request.
 Stoichiometry    C20H33N6O5(1+)
 Framework group  C1[X(C20H33N6O5)]
 Deg. of freedom   186
 Full point group                 C1      NOp   1
                          Input orientation:                          
 ---------------------------------------------------------------------
 Center     Atomic      Atomic             Coordinates (Angstroms)
 Number     Number       Type             X           Y           Z
 ---------------------------------------------------------------------
      1          7           0       34.645131  -30.033408   40.052709
      2          6           0       33.256691  -30.505442   40.239349
      3          6           0       33.313920  -31.563974   41.356057
      4          8           0       34.264216  -32.339879   41.431648
      5          6           0       32.331472  -29.300424   40.515190
      6          6           0       32.394064  -28.265088   39.413593
      7          6           0       33.191518  -27.122079   39.541084
      8          6           0       31.691238  -28.452320   38.212922
      9          6           0       33.287834  -26.189816   38.507541
     10          6           0       31.776219  -27.533271   37.174389
     11          6           0       32.578397  -26.392793   37.318454
     12          8           0       32.619492  -25.528766   36.267816
     13          1           0       32.890385  -31.025822   39.339804
     14          1           0       31.298454  -29.662285   40.607965
     15          1           0       32.617262  -28.851981   41.473932
     16          1           0       33.744838  -26.952106   40.461802
     17          1           0       31.059439  -29.329918   38.091018
     18          1           0       33.908004  -25.304171   38.628245
     19          1           0       31.227520  -27.672348   36.248757
     20          1           0       33.187554  -24.772821   36.484396
     21          1           0       35.258501  -30.834051   39.900432
     22          1           0       34.696953  -29.418537   39.242448
     23          7           0       32.311740  -31.589902   42.282401
     24          6           0       32.339886  -32.565031   43.370982
     25          6           0       33.663614  -32.464229   44.147067
     26          8           0       34.172572  -33.488773   44.636659
     27          6           0       31.090250  -32.417401   44.278355
     28          6           0       31.009199  -31.051727   44.979032
     29          6           0       31.017630  -33.564299   45.295675
     30          1           0       31.508666  -30.985988   42.185867
     31          1           0       32.356071  -33.576248   42.950990
     32          1           0       30.228119  -32.511941   43.602147
     33          1           0       30.069852  -30.971172   45.534441
     34          1           0       31.831455  -30.925445   45.692296
     35          1           0       31.045311  -30.209173   44.277751
     36          1           0       31.857703  -33.526728   45.997174
     37          1           0       31.040167  -34.541229   44.801716
     38          1           0       30.090309  -33.495339   45.872808
     39          7           0       34.194250  -31.231299   44.294432
     40          6           0       35.644744  -30.996364   44.325727
     41          6           0       36.051333  -30.318064   43.004398
     42          8           0       37.097924  -30.568087   42.451984
     43          6           0       36.092491  -30.181885   45.551064
     44          6           0       35.815597  -30.844184   46.911103
     45          6           0       36.678870  -32.071301   47.245670
     46          7           0       36.293726  -33.233836   46.433029
     47          6           0       37.118833  -34.115631   45.873007
     48          7           0       38.372069  -34.289103   46.332784
     49          7           0       36.694444  -34.823190   44.815239
     50          8           0       35.113486  -29.471317   42.562178
     51          1           0       35.116851  -29.465363   41.525905
     52          1           0       33.704400  -30.493285   43.798145
     53          1           0       36.140527  -31.964809   44.305961
     54          1           0       35.581737  -29.211967   45.523121
     55          1           0       37.165078  -29.975649   45.444511
     56          1           0       34.753622  -31.113880   46.986413
     57          1           0       35.997819  -30.106221   47.700408
     58          1           0       36.570497  -32.319621   48.308152
     59          1           0       37.734609  -31.842223   47.057432
     60          1           0       35.348434  -33.242564   46.028488
     61          1           0       39.055301  -34.809519   45.802473
     62          1           0       38.653313  -33.927962   47.231495
     63          1           0       37.149202  -35.683353   44.546352
     64          1           0       35.779896  -34.605534   44.419727
 ---------------------------------------------------------------------
 Rotational constants (GHZ):           0.2669387           0.0685786           0.0619815
 Standard basis: 6-31G(d) (6D, 7F)
   531 basis functions,  1000 primitive gaussians,   531 cartesian basis functions
   117 alpha electrons      117 beta electrons
       nuclear repulsion energy      3350.2553037969 Hartrees.
 NAtoms=   64 NActive=   64 NUniq=   64 SFac= 1.00D+00 NAtFMM=   60 NAOKFM=T Big=T
 Integral buffers will be    131072 words long.
 Raffenetti 2 integral format.
 Two-electron integral symmetry is turned off.
 Nuclear repulsion after empirical dispersion term =     3350.1696379494 Hartrees.
 One-electron integrals computed using PRISM.
 NBasis=   531 RedAO= T EigKep=  4.33D-04  NBF=   531
 NBsUse=   531 1.00D-06 EigRej= -1.00D+00 NBFU=   531
 Initial guess from the checkpoint file:  "conf-950.chk"
 B after Tr=     0.000000    0.000000    0.000000
         Rot=    1.000000    0.000000    0.000000    0.000000 Ang=   0.00 deg.
 Requested convergence on RMS density matrix=1.00D-08 within 128 cycles.
 Requested convergence on MAX density matrix=1.00D-06.
 Requested convergence on             energy=1.00D-06.
 No special actions if energy rises.
 SCF Done:  E(RB3LYP) =  -1486.59695986     A.U. after    1 cycles
            NFock=  1  Conv=0.82D-08     -V/T= 2.0094

 **********************************************************************

            Population analysis using the SCF Density.

 **********************************************************************

 Alpha  occ. eigenvalues --  -19.25537 -19.24721 -19.24486 -19.22257 -19.21745
 Alpha  occ. eigenvalues --  -14.51498 -14.49975 -14.49870 -14.47291 -14.46949
 Alpha  occ. eigenvalues --  -14.43642 -10.47026 -10.40941 -10.40028 -10.39396
 Alpha  occ. eigenvalues --  -10.35545 -10.34092 -10.33836 -10.33176 -10.32319
 Alpha  occ. eigenvalues --  -10.30753 -10.30430 -10.29979 -10.29048 -10.27648
 Alpha  occ. eigenvalues --  -10.27166 -10.26941 -10.26790 -10.26758 -10.26405
 Alpha  occ. eigenvalues --  -10.25845  -1.17329  -1.15978  -1.15313  -1.14246
 Alpha  occ. eigenvalues --   -1.12899  -1.08918  -1.04864  -1.04650  -1.03656
 Alpha  occ. eigenvalues --   -1.02796  -1.00069  -0.92985  -0.91726  -0.90821
 Alpha  occ. eigenvalues --   -0.86756  -0.86316  -0.82526  -0.82285  -0.80362
 Alpha  occ. eigenvalues --   -0.79177  -0.78057  -0.77293  -0.74254  -0.73158
 Alpha  occ. eigenvalues --   -0.72006  -0.71011  -0.69755  -0.69682  -0.68994
 Alpha  occ. eigenvalues --   -0.68655  -0.66844  -0.66252  -0.64462  -0.64254
 Alpha  occ. eigenvalues --   -0.63723  -0.62088  -0.61769  -0.61000  -0.60415
 Alpha  occ. eigenvalues --   -0.59574  -0.58487  -0.58078  -0.56569  -0.56257
 Alpha  occ. eigenvalues --   -0.55771  -0.55551  -0.54897  -0.54407  -0.54272
 Alpha  occ. eigenvalues --   -0.53852  -0.52990  -0.52723  -0.51583  -0.51205
 Alpha  occ. eigenvalues --   -0.50886  -0.50051  -0.50003  -0.49669  -0.49314
 Alpha  occ. eigenvalues --   -0.48615  -0.48473  -0.48330  -0.47572  -0.47235
 Alpha  occ. eigenvalues --   -0.46705  -0.46199  -0.45858  -0.45023  -0.44295
 Alpha  occ. eigenvalues --   -0.44156  -0.43962  -0.43628  -0.43245  -0.42063
 Alpha  occ. eigenvalues --   -0.41092  -0.40391  -0.39840  -0.39321  -0.38893
 Alpha  occ. eigenvalues --   -0.38455  -0.37214  -0.36104  -0.35677  -0.34101
 Alpha  occ. eigenvalues --   -0.32767  -0.29215
 Alpha virt. eigenvalues --   -0.11223  -0.10968  -0.09048  -0.07900  -0.07092
 Alpha virt. eigenvalues --   -0.06722  -0.06570  -0.03498  -0.03221  -0.01811
 Alpha virt. eigenvalues --   -0.01293  -0.00075   0.00381   0.00476   0.00983
 Alpha virt. eigenvalues --    0.01385   0.01987   0.02415   0.02911   0.03328
 Alpha virt. eigenvalues --    0.04266   0.04448   0.04675   0.05033   0.05627
 Alpha virt. eigenvalues --    0.06082   0.06547   0.07020   0.07255   0.07467
 Alpha virt. eigenvalues --    0.07596   0.08379   0.08436   0.08546   0.09175
 Alpha virt. eigenvalues --    0.09233   0.09705   0.10048   0.10548   0.10648
 Alpha virt. eigenvalues --    0.11412   0.12282   0.12595   0.12834   0.13127
 Alpha virt. eigenvalues --    0.13367   0.14090   0.14575   0.15124   0.15438
 Alpha virt. eigenvalues --    0.16571   0.17219   0.17564   0.17883   0.18258
 Alpha virt. eigenvalues --    0.19105   0.21060   0.23374   0.24069   0.24595
 Alpha virt. eigenvalues --    0.25550   0.26189   0.26516   0.27019   0.27903
 Alpha virt. eigenvalues --    0.28842   0.29218   0.31777   0.33238   0.37527
 Alpha virt. eigenvalues --    0.39405   0.39669   0.39876   0.40242   0.40730
 Alpha virt. eigenvalues --    0.41014   0.42243   0.42345   0.42603   0.43639
 Alpha virt. eigenvalues --    0.44252   0.44407   0.44764   0.45265   0.45794
 Alpha virt. eigenvalues --    0.46262   0.46645   0.47170   0.48134   0.48669
 Alpha virt. eigenvalues --    0.49211   0.49689   0.50065   0.50889   0.50981
 Alpha virt. eigenvalues --    0.51649   0.51883   0.52430   0.53104   0.53581
 Alpha virt. eigenvalues --    0.54114   0.54279   0.54928   0.55412   0.55742
 Alpha virt. eigenvalues --    0.56230   0.57144   0.57200   0.57544   0.58019
 Alpha virt. eigenvalues --    0.58242   0.59178   0.59464   0.60581   0.61603
 Alpha virt. eigenvalues --    0.61750   0.62169   0.62826   0.63259   0.64310
 Alpha virt. eigenvalues --    0.65276   0.65801   0.66589   0.67338   0.67836
 Alpha virt. eigenvalues --    0.68624   0.68906   0.69945   0.70210   0.71568
 Alpha virt. eigenvalues --    0.72018   0.72391   0.73177   0.73514   0.74005
 Alpha virt. eigenvalues --    0.74292   0.74718   0.75031   0.75582   0.76062
 Alpha virt. eigenvalues --    0.76369   0.76581   0.77229   0.77528   0.78149
 Alpha virt. eigenvalues --    0.78532   0.78807   0.79872   0.80432   0.81304
 Alpha virt. eigenvalues --    0.81383   0.81602   0.81786   0.82380   0.82986
 Alpha virt. eigenvalues --    0.83394   0.83755   0.83880   0.84378   0.84757
 Alpha virt. eigenvalues --    0.85326   0.85768   0.86216   0.86399   0.86718
 Alpha virt. eigenvalues --    0.88284   0.88532   0.89001   0.89780   0.90292
 Alpha virt. eigenvalues --    0.90533   0.91817   0.92231   0.92775   0.93971
 Alpha virt. eigenvalues --    0.94711   0.95545   0.96424   0.96564   0.98535
 Alpha virt. eigenvalues --    0.99281   0.99906   1.00284   1.00936   1.00976
 Alpha virt. eigenvalues --    1.02212   1.03880   1.05032   1.05938   1.06683
 Alpha virt. eigenvalues --    1.06895   1.08320   1.09976   1.11195   1.11605
 Alpha virt. eigenvalues --    1.12822   1.13231   1.13965   1.14939   1.16550
 Alpha virt. eigenvalues --    1.17164   1.17590   1.17869   1.19054   1.19875
 Alpha virt. eigenvalues --    1.21820   1.22438   1.23015   1.23903   1.25428
 Alpha virt. eigenvalues --    1.26991   1.27843   1.29050   1.29934   1.31892
 Alpha virt. eigenvalues --    1.32269   1.34179   1.35066   1.36156   1.36356
 Alpha virt. eigenvalues --    1.36636   1.37309   1.37703   1.39023   1.39755
 Alpha virt. eigenvalues --    1.40608   1.41744   1.43624   1.43852   1.44523
 Alpha virt. eigenvalues --    1.45660   1.46687   1.47216   1.49251   1.51188
 Alpha virt. eigenvalues --    1.52385   1.53004   1.54379   1.55696   1.57105
 Alpha virt. eigenvalues --    1.57492   1.57738   1.59624   1.60804   1.62223
 Alpha virt. eigenvalues --    1.63499   1.65151   1.65479   1.65921   1.66546
 Alpha virt. eigenvalues --    1.67288   1.68705   1.68997   1.69816   1.71122
 Alpha virt. eigenvalues --    1.71173   1.71862   1.72698   1.73103   1.73556
 Alpha virt. eigenvalues --    1.73914   1.75063   1.75240   1.75687   1.77429
 Alpha virt. eigenvalues --    1.77727   1.78163   1.79278   1.80212   1.80544
 Alpha virt. eigenvalues --    1.81699   1.82020   1.82658   1.83616   1.83781
 Alpha virt. eigenvalues --    1.84940   1.86006   1.86776   1.86945   1.87648
 Alpha virt. eigenvalues --    1.88709   1.88837   1.89993   1.90430   1.90914
 Alpha virt. eigenvalues --    1.91434   1.92190   1.92413   1.94076   1.94807
 Alpha virt. eigenvalues --    1.95964   1.96392   1.97340   1.98382   1.98999
 Alpha virt. eigenvalues --    1.99122   2.00877   2.02100   2.02739   2.03420
 Alpha virt. eigenvalues --    2.04189   2.05776   2.06190   2.06851   2.07220
 Alpha virt. eigenvalues --    2.07561   2.09104   2.10502   2.11806   2.12482
 Alpha virt. eigenvalues --    2.13632   2.15427   2.16534   2.17367   2.18173
 Alpha virt. eigenvalues --    2.19345   2.19572   2.21407   2.22165   2.22789
 Alpha virt. eigenvalues --    2.23796   2.24117   2.26072   2.26648   2.27038
 Alpha virt. eigenvalues --    2.28195   2.28992   2.31395   2.31799   2.32904
 Alpha virt. eigenvalues --    2.33158   2.33504   2.34473   2.36389   2.36933
 Alpha virt. eigenvalues --    2.38031   2.39741   2.41564   2.42358   2.43093
 Alpha virt. eigenvalues --    2.44009   2.45127   2.46089   2.47241   2.48460
 Alpha virt. eigenvalues --    2.50084   2.50880   2.51923   2.52549   2.54006
 Alpha virt. eigenvalues --    2.54437   2.54611   2.56087   2.57911   2.58937
 Alpha virt. eigenvalues --    2.59188   2.59610   2.60973   2.61402   2.61828
 Alpha virt. eigenvalues --    2.66625   2.67639   2.69202   2.70067   2.71373
 Alpha virt. eigenvalues --    2.72797   2.76510   2.78179   2.79519   2.81875
 Alpha virt. eigenvalues --    2.83042   2.86138   2.88889   2.90541   2.91984
 Alpha virt. eigenvalues --    2.93747   2.94916   2.97388   3.02012   3.04626
 Alpha virt. eigenvalues --    3.06789   3.09621   3.34165   3.66724   3.75115
 Alpha virt. eigenvalues --    3.78550   3.87196   3.88160   3.89553   3.93608
 Alpha virt. eigenvalues --    3.98341   4.03489   4.04136   4.04629   4.04999
 Alpha virt. eigenvalues --    4.11793   4.14490   4.15641   4.17971   4.18003
 Alpha virt. eigenvalues --    4.20652   4.23122   4.26218   4.26705   4.29645
 Alpha virt. eigenvalues --    4.35318   4.37891   4.40759   4.41427   4.52080
 Alpha virt. eigenvalues --    4.58894   4.61092   4.65340   4.68094
          Condensed to atoms (all electrons):
 Mulliken charges:
               1
     1  N   -0.786858
     2  C   -0.061552
     3  C    0.638687
     4  O   -0.530683
     5  C   -0.384000
     6  C    0.140804
     7  C   -0.196799
     8  C   -0.186866
     9  C   -0.191065
    10  C   -0.154785
    11  C    0.356031
    12  O   -0.628951
    13  H    0.181264
    14  H    0.149481
    15  H    0.165122
    16  H    0.140532
    17  H    0.132057
    18  H    0.137182
    19  H    0.159822
    20  H    0.416317
    21  H    0.361402
    22  H    0.350603
    23  N   -0.663680
    24  C    0.005824
    25  C    0.635178
    26  O   -0.590356
    27  C   -0.130283
    28  C   -0.467967
    29  C   -0.447823
    30  H    0.351674
    31  H    0.194290
    32  H    0.156183
    33  H    0.177764
    34  H    0.156673
    35  H    0.139999
    36  H    0.153692
    37  H    0.162110
    38  H    0.166743
    39  N   -0.574296
    40  C   -0.070830
    41  C    0.609434
    42  O   -0.459887
    43  C   -0.271928
    44  C   -0.308723
    45  C   -0.149927
    46  N   -0.612322
    47  C    0.793128
    48  N   -0.760919
    49  N   -0.775602
    50  O   -0.641707
    51  H    0.465530
    52  H    0.366375
    53  H    0.172815
    54  H    0.172516
    55  H    0.171025
    56  H    0.169294
    57  H    0.180306
    58  H    0.187399
    59  H    0.170783
    60  H    0.402216
    61  H    0.381122
    62  H    0.384016
    63  H    0.369103
    64  H    0.423315
 Sum of Mulliken charges =   1.00000
 Mulliken charges with hydrogens summed into heavy atoms:
               1
     1  N   -0.074853
     2  C    0.119712
     3  C    0.638687
     4  O   -0.530683
     5  C   -0.069397
     6  C    0.140804
     7  C   -0.056267
     8  C   -0.054809
     9  C   -0.053883
    10  C    0.005037
    11  C    0.356031
    12  O   -0.212634
    23  N   -0.312007
    24  C    0.200114
    25  C    0.635178
    26  O   -0.590356
    27  C    0.025900
    28  C    0.006469
    29  C    0.034722
    39  N   -0.207920
    40  C    0.101985
    41  C    0.609434
    42  O   -0.459887
    43  C    0.071612
    44  C    0.040878
    45  C    0.208255
    46  N   -0.210107
    47  C    0.793128
    48  N    0.004219
    49  N    0.016816
    50  O   -0.176177
 Electronic spatial extent (au):  <R**2>=        3300169.5764
 Charge=              1.0000 electrons
 Dipole moment (field-independent basis, Debye):
    X=            169.0105    Y=           -154.2746    Z=            213.8748  Tot=            313.2214
 Quadrupole moment (field-independent basis, Debye-Ang):
   XX=           5812.6729   YY=           4825.1545   ZZ=           9392.4953
   XY=          -5452.8403   XZ=           7556.9894   YZ=          -6901.3586
 Traceless Quadrupole moment (field-independent basis, Debye-Ang):
   XX=           -864.1013   YY=          -1851.6197   ZZ=           2715.7211
   XY=          -5452.8403   XZ=           7556.9894   YZ=          -6901.3586
 Octapole moment (field-independent basis, Debye-Ang**2):
  XXX=         195678.7811  YYY=        -147182.5278  ZZZ=         407451.4517  XYY=         171610.7588
  XXY=        -188742.7005  XXZ=         261402.3656  XZZ=         333481.0854  YZZ=        -304591.8310
  YYZ=         217049.2943  XYZ=        -244937.9483
 Hexadecapole moment (field-independent basis, Debye-Ang**3):
 XXXX=        6444182.1673 YYYY=        4372073.2705 ZZZZ=       17468223.1197 XXXY=       -6408640.3459
 XXXZ=        8866102.6186 YYYX=       -5277933.7148 YYYZ=       -6663688.3222 ZZZX=       14546692.9425
 ZZZY=      -13282685.0207 XXYY=        5982903.8577 XXZZ=       11602755.9674 YYZZ=        9629721.6470
 XXYZ=       -8525393.0345 YYXZ=        7750543.0497 ZZXY=      -10861913.7706
 N-N= 3.350169637949D+03 E-N=-1.013845892058D+04  KE= 1.472681017715D+03
 Unable to Open any file for archive entry.
 1\1\GINC-AMR-090\SP\RB3LYP\6-31G(d)\C20H33N6O5(1+)\KENGMITH\31-May-202
 2\0\\# B3LYP/6-31G* empiricaldispersion=gd3 guess=read geom=check nosy
 mm integral(ultrafinegrid)\\Candidate Structure: Conf:950 Charge calc 
 in gas phase\\1,1\N,0,34.6451308236,-30.033408278,40.05270925\C,0,33.2
 566910404,-30.5054416653,40.2393493976\C,0,33.313920283,-31.5639741286
 ,41.3560572969\O,0,34.2642160018,-32.3398792855,41.4316480363\C,0,32.3
 314716164,-29.3004239137,40.5151899457\C,0,32.3940636301,-28.265088351
 5,39.4135933467\C,0,33.1915178279,-27.1220786141,39.5410843411\C,0,31.
 6912379922,-28.4523203365,38.2129217132\C,0,33.2878340002,-26.18981611
 13,38.5075406156\C,0,31.776218768,-27.533270633,37.1743888515\C,0,32.5
 783969794,-26.3927933709,37.3184541046\O,0,32.61949169,-25.5287656038,
 36.2678164689\H,0,32.8903847141,-31.0258220152,39.3398038993\H,0,31.29
 84537434,-29.6622854244,40.6079647327\H,0,32.6172623742,-28.8519807303
 ,41.4739316907\H,0,33.7448381665,-26.9521061708,40.4618023927\H,0,31.0
 594386396,-29.3299178668,38.0910182868\H,0,33.9080036912,-25.304171222
 4,38.6282448069\H,0,31.2275199721,-27.6723481919,36.2487571487\H,0,33.
 1875535963,-24.7728209776,36.4843956365\H,0,35.2585012537,-30.83405100
 69,39.9004319277\H,0,34.6969526938,-29.4185367028,39.2424475739\N,0,32
 .3117403474,-31.5899017356,42.2824007044\C,0,32.3398855117,-32.5650306
 381,43.3709824424\C,0,33.6636137833,-32.464229189,44.147066665\O,0,34.
 1725721222,-33.4887734603,44.6366592387\C,0,31.0902502739,-32.41740081
 35,44.2783550244\C,0,31.0091987631,-31.051726598,44.9790315922\C,0,31.
 0176300042,-33.5642992958,45.2956748854\H,0,31.5086660354,-30.98598769
 95,42.1858674345\H,0,32.3560705266,-33.5762482422,42.9509902922\H,0,30
 .2281188259,-32.5119408869,43.6021465735\H,0,30.0698517436,-30.9711716
 306,45.5344413426\H,0,31.8314552516,-30.9254446128,45.6922961158\H,0,3
 1.0453106533,-30.2091733512,44.2777513893\H,0,31.8577031781,-33.526728
 1377,45.9971738411\H,0,31.0401674037,-34.5412294585,44.8017164319\H,0,
 30.0903093972,-33.4953387737,45.8728081182\N,0,34.1942503976,-31.23129
 92542,44.2944320663\C,0,35.6447440504,-30.9963641375,44.3257268106\C,0
 ,36.0513328766,-30.3180635415,43.0043979092\O,0,37.0979238802,-30.5680
 871444,42.4519837486\C,0,36.0924907298,-30.1818853723,45.5510642445\C,
 0,35.8155971421,-30.8441835302,46.9111034076\C,0,36.6788698114,-32.071
 3005229,47.2456704456\N,0,36.2937262726,-33.2338362289,46.4330291867\C
 ,0,37.1188329649,-34.1156308279,45.8730071857\N,0,38.3720686509,-34.28
 91025727,46.3327836216\N,0,36.6944439496,-34.8231903035,44.8152385572\
 O,0,35.1134860633,-29.4713165362,42.5621778047\H,0,35.1168506093,-29.4
 653634695,41.5259047837\H,0,33.7043998666,-30.493285199,43.7981449444\
 H,0,36.1405273319,-31.9648085645,44.3059605263\H,0,35.581737168,-29.21
 19674313,45.5231214268\H,0,37.1650784223,-29.9756494286,45.4445106184\
 H,0,34.7536222465,-31.1138797086,46.9864127499\H,0,35.9978193225,-30.1
 062205839,47.7004083131\H,0,36.5704966143,-32.319620753,48.3081520623\
 H,0,37.7346094412,-31.8422225069,47.0574321238\H,0,35.3484340155,-33.2
 425644252,46.028487925\H,0,39.0553006651,-34.8095186146,45.8024725576\
 H,0,38.6533128309,-33.927961681,47.2314954271\H,0,37.1492017309,-35.68
 335324,44.5463524916\H,0,35.7798963263,-34.6055338272,44.4197271658\\V
 ersion=ES64L-G16RevC.01\HF=-1486.5969599\RMSD=8.216e-09\Dipole=2.04655
 51,-2.5055845,3.5547284\Quadrupole=-642.438151,-1376.633899,2019.07205
 01,-4054.0531387,5618.4364375,-5130.9909881\PG=C01 [X(C20H33N6O5)]\\@
 The archive entry for this job was punched.


 LIFE IS A CONTINUAL STRUGGLE AGAINST THE TENDENCY TO PRODUCE ENTROPY.
 Job cpu time:       0 days  0 hours  1 minutes  4.4 seconds.
 Elapsed time:       0 days  0 hours  0 minutes 16.5 seconds.
 File lengths (MBytes):  RWF=    264 Int=      0 D2E=      0 Chk=     40 Scr=     16
 Normal termination of Gaussian 16 at Tue May 31 11:31:54 2022.
