 Entering Gaussian System, Link 0=/opt/software/Gaussian/g16-AVX2-C.01/g16/g16
 Input=charge-conf-746.com
 Output=charge-conf-746.log
 Initial command:
 /opt/software/Gaussian/g16-AVX2-C.01/g16/l1.exe "/mnt/gs18/scratch/users/kengmith/Gau-26495.inp" -scrdir="/mnt/gs18/scratch/users/kengmith/"
 Entering Link 1 = /opt/software/Gaussian/g16-AVX2-C.01/g16/l1.exe PID=     26505.
  
 Copyright (c) 1988-2019, Gaussian, Inc.  All Rights Reserved.
  
 This is part of the Gaussian(R) 16 program.  It is based on
 the Gaussian(R) 09 system (copyright 2009, Gaussian, Inc.),
 the Gaussian(R) 03 system (copyright 2003, Gaussian, Inc.),
 the Gaussian(R) 98 system (copyright 1998, Gaussian, Inc.),
 the Gaussian(R) 94 system (copyright 1995, Gaussian, Inc.),
 the Gaussian 92(TM) system (copyright 1992, Gaussian, Inc.),
 the Gaussian 90(TM) system (copyright 1990, Gaussian, Inc.),
 the Gaussian 88(TM) system (copyright 1988, Gaussian, Inc.),
 the Gaussian 86(TM) system (copyright 1986, Carnegie Mellon
 University), and the Gaussian 82(TM) system (copyright 1983,
 Carnegie Mellon University). Gaussian is a federally registered
 trademark of Gaussian, Inc.
  
 This software contains proprietary and confidential information,
 including trade secrets, belonging to Gaussian, Inc.
  
 This software is provided under written license and may be
 used, copied, transmitted, or stored only in accord with that
 written license.
  
 The following legend is applicable only to US Government
 contracts under FAR:
  
                    RESTRICTED RIGHTS LEGEND
  
 Use, reproduction and disclosure by the US Government is
 subject to restrictions as set forth in subparagraphs (a)
 and (c) of the Commercial Computer Software - Restricted
 Rights clause in FAR 52.227-19.
  
 Gaussian, Inc.
 340 Quinnipiac St., Bldg. 40, Wallingford CT 06492
  
  
 ---------------------------------------------------------------
 Warning -- This program may not be used in any manner that
 competes with the business of Gaussian, Inc. or will provide
 assistance to any competitor of Gaussian, Inc.  The licensee
 of this program is prohibited from giving any competitor of
 Gaussian, Inc. access to this program.  By using this program,
 the user acknowledges that Gaussian, Inc. is engaged in the
 business of creating and licensing software in the field of
 computational chemistry and represents and warrants to the
 licensee that it is not a competitor of Gaussian, Inc. and that
 it will not use this program in any manner prohibited above.
 ---------------------------------------------------------------
  

 Cite this work as:
 Gaussian 16, Revision C.01,
 M. J. Frisch, G. W. Trucks, H. B. Schlegel, G. E. Scuseria, 
 M. A. Robb, J. R. Cheeseman, G. Scalmani, V. Barone, 
 G. A. Petersson, H. Nakatsuji, X. Li, M. Caricato, A. V. Marenich, 
 J. Bloino, B. G. Janesko, R. Gomperts, B. Mennucci, H. P. Hratchian, 
 J. V. Ortiz, A. F. Izmaylov, J. L. Sonnenberg, D. Williams-Young, 
 F. Ding, F. Lipparini, F. Egidi, J. Goings, B. Peng, A. Petrone, 
 T. Henderson, D. Ranasinghe, V. G. Zakrzewski, J. Gao, N. Rega, 
 G. Zheng, W. Liang, M. Hada, M. Ehara, K. Toyota, R. Fukuda, 
 J. Hasegawa, M. Ishida, T. Nakajima, Y. Honda, O. Kitao, H. Nakai, 
 T. Vreven, K. Throssell, J. A. Montgomery, Jr., J. E. Peralta, 
 F. Ogliaro, M. J. Bearpark, J. J. Heyd, E. N. Brothers, K. N. Kudin, 
 V. N. Staroverov, T. A. Keith, R. Kobayashi, J. Normand, 
 K. Raghavachari, A. P. Rendell, J. C. Burant, S. S. Iyengar, 
 J. Tomasi, M. Cossi, J. M. Millam, M. Klene, C. Adamo, R. Cammi, 
 J. W. Ochterski, R. L. Martin, K. Morokuma, O. Farkas, 
 J. B. Foresman, and D. J. Fox, Gaussian, Inc., Wallingford CT, 2019.
 
 ******************************************
 Gaussian 16:  ES64L-G16RevC.01  3-Jul-2019
                31-May-2022 
 ******************************************
 %mem=8gb
 %nproc=4
 Will use up to    4 processors via shared memory.
 %chk=conf-746.chk
 ----------------------------------------------------------------------
 # B3LYP/6-31G* empiricaldispersion=gd3 guess=read geom=check nosymm in
 tegral(ultrafinegrid)
 ----------------------------------------------------------------------
 1/29=2,38=1,172=1/1;
 2/12=2,15=1,40=1/2;
 3/5=1,6=6,7=1,11=2,14=-4,25=1,30=1,74=-5,75=-5,116=-2,124=31/1,2,3;
 4/5=1/1;
 5/5=2,38=6/2;
 6/7=2,8=2,9=2,10=2,28=1/1;
 99/5=1,9=1/99;
 ------------------------------------------------------
 Candidate Structure: Conf:746 Charge calc in gas phase
 ------------------------------------------------------
 Structure from the checkpoint file:  "conf-746.chk"
 Charge =  1 Multiplicity = 1
 Redundant internal coordinates found in file.  (old form).
 N,0,31.739617871,-29.354662143,41.9365013754
 C,0,33.0279423501,-29.2204024931,42.6183203154
 C,0,34.0665050502,-30.1019984776,41.9282986444
 O,0,35.0815508525,-30.5024279509,42.5253114929
 C,0,33.5245545927,-27.7510813034,42.5805100811
 C,0,32.5978712727,-26.8120663087,43.3177182303
 C,0,31.6725700418,-26.0147821095,42.6270595232
 C,0,32.6054232577,-26.7478145639,44.7167383572
 C,0,30.784462386,-25.1819881187,43.3020384991
 C,0,31.7250009942,-25.9186536067,45.4079067633
 C,0,30.8075064142,-25.1309274884,44.7001230047
 O,0,29.9179665543,-24.2971162716,45.3077724149
 H,0,33.0093821002,-29.546434612,43.6685001499
 H,0,34.5298105924,-27.7303878764,43.0168128038
 H,0,33.6173883825,-27.4469606168,41.5309831543
 H,0,31.6536236872,-26.0379964113,41.5396374573
 H,0,33.3150984331,-27.3516202198,45.2786745708
 H,0,30.0740000762,-24.5605368112,42.7669582676
 H,0,31.7517273907,-25.8772641992,46.4949707948
 H,0,30.0368436197,-24.3348551275,46.2696278939
 H,0,31.2784791913,-30.2080278104,42.2486870535
 H,0,31.1349552854,-28.5739699216,42.1860001385
 N,0,33.7906199375,-30.3977252536,40.6420903575
 C,0,34.6297558185,-31.2700648697,39.8315052034
 C,0,35.0196458141,-32.4958926146,40.6758492028
 O,0,36.1968470349,-32.8643670478,40.7143397209
 C,0,33.9601211954,-31.6004655576,38.4738869985
 C,0,32.6077361435,-32.3191904303,38.6030009604
 C,0,34.9268531588,-32.3995135048,37.58885294
 H,0,32.8903469956,-30.0461447284,40.3167800024
 H,0,35.5866948028,-30.7761576169,39.6325086371
 H,0,33.7850051122,-30.6253024783,37.9977784752
 H,0,31.89921667,-31.7836499164,39.2463385352
 H,0,32.1426240181,-32.4100526489,37.616669624
 H,0,32.7333397388,-33.3325113247,39.0008463068
 H,0,35.1411300416,-33.3828966548,38.0234249877
 H,0,35.8803796859,-31.8770488118,37.4578419276
 H,0,34.4881194949,-32.559718068,36.5992473483
 N,0,34.0087838101,-33.0900611593,41.3721839143
 C,0,34.1650135908,-33.5612136568,42.7457505872
 C,0,32.9282934228,-33.0431481182,43.5130655368
 O,0,32.0570319365,-32.3882625571,42.9875064748
 C,0,34.3706901862,-35.0865478847,42.8863287282
 C,0,35.7304250874,-35.6279046668,42.4080936412
 C,0,36.9532117888,-35.2047540603,43.2454183529
 N,0,37.2829171775,-33.7953018309,42.9953486472
 C,0,37.6812819892,-32.8915550488,43.8833069083
 N,0,38.2658155815,-33.2849493028,45.039057955
 N,0,37.4637617609,-31.5916874224,43.6466407501
 O,0,32.8760147862,-33.3105385264,44.8273309125
 H,0,33.640311115,-33.8357697396,45.1162994856
 H,0,33.1041589862,-32.637650496,41.2593657883
 H,0,35.004170987,-33.0264526077,43.2009371333
 H,0,33.5719840653,-35.5838123076,42.3252440188
 H,0,34.2350030315,-35.3814129818,43.9371278068
 H,0,35.8962594346,-35.350326163,41.3615884534
 H,0,35.6844743153,-36.7221994921,42.4382824171
 H,0,37.8093320755,-35.8362532065,42.9793963352
 H,0,36.7579816742,-35.3427333208,44.3163342375
 H,0,36.9804663121,-33.4359314614,42.073515507
 H,0,38.4993212056,-32.6051262622,45.7488439893
 H,0,38.7776768056,-34.1558001089,45.065967453
 H,0,37.9337336678,-30.8827994469,44.1910672989
 H,0,36.734074378,-31.2710957828,42.9995318333
 Recover connectivity data from disk.
                           ----------------------------
                           !    Current Parameters    !
                           ! (Angstroms and Degrees)  !
 --------------------------                            --------------------------
 ! Name  Definition              Value                                          !
 --------------------------------------------------------------------------------
 ! R1    R(1,2)                  1.4638                                         !
 ! R2    R(1,21)                 1.019                                          !
 ! R3    R(1,22)                 1.0185                                         !
 ! R4    R(2,3)                  1.5271                                         !
 ! R5    R(2,5)                  1.5514                                         !
 ! R6    R(2,13)                 1.0998                                         !
 ! R7    R(3,4)                  1.2438                                         !
 ! R8    R(3,23)                 1.3483                                         !
 ! R9    R(5,6)                  1.5113                                         !
 ! R10   R(5,14)                 1.0961                                         !
 ! R11   R(5,15)                 1.0966                                         !
 ! R12   R(6,7)                  1.4032                                         !
 ! R13   R(6,8)                  1.4005                                         !
 ! R14   R(7,9)                  1.3921                                         !
 ! R15   R(7,16)                 1.0878                                         !
 ! R16   R(8,10)                 1.393                                          !
 ! R17   R(8,17)                 1.0881                                         !
 ! R18   R(9,11)                 1.3992                                         !
 ! R19   R(9,18)                 1.085                                          !
 ! R20   R(10,11)                1.4012                                         !
 ! R21   R(10,19)                1.0882                                         !
 ! R22   R(11,12)                1.3623                                         !
 ! R23   R(12,20)                0.9699                                         !
 ! R24   R(23,24)                1.4568                                         !
 ! R25   R(23,30)                1.0198                                         !
 ! R26   R(24,25)                1.5387                                         !
 ! R27   R(24,27)                1.5494                                         !
 ! R28   R(24,31)                1.0951                                         !
 ! R29   R(25,26)                1.2341                                         !
 ! R30   R(25,39)                1.3637                                         !
 ! R31   R(27,28)                1.5369                                         !
 ! R32   R(27,29)                1.535                                          !
 ! R33   R(27,32)                1.0992                                         !
 ! R34   R(28,33)                1.0967                                         !
 ! R35   R(28,34)                1.0943                                         !
 ! R36   R(28,35)                1.0958                                         !
 ! R37   R(29,36)                1.0963                                         !
 ! R38   R(29,37)                1.0951                                         !
 ! R39   R(29,38)                1.0943                                         !
 ! R40   R(39,40)                1.4605                                         !
 ! R41   R(39,52)                1.0177                                         !
 ! R42   R(40,41)                1.5449                                         !
 ! R43   R(40,43)                1.5455                                         !
 ! R44   R(40,53)                1.0942                                         !
 ! R45   R(41,42)                1.21                                           !
 ! R46   R(41,50)                1.3422                                         !
 ! R47   R(43,44)                1.5397                                         !
 ! R48   R(43,54)                1.0955                                         !
 ! R49   R(43,55)                1.0998                                         !
 ! R50   R(44,45)                1.5412                                         !
 ! R51   R(44,56)                1.0953                                         !
 ! R52   R(44,57)                1.0957                                         !
 ! R53   R(45,46)                1.4689                                         !
 ! R54   R(45,58)                1.0966                                         !
 ! R55   R(45,59)                1.0973                                         !
 ! R56   R(46,47)                1.3281                                         !
 ! R57   R(46,60)                1.0346                                         !
 ! R58   R(47,48)                1.3536                                         !
 ! R59   R(47,49)                1.339                                          !
 ! R60   R(48,61)                1.0102                                         !
 ! R61   R(48,62)                1.0105                                         !
 ! R62   R(49,63)                1.0098                                         !
 ! R63   R(49,64)                1.0266                                         !
 ! R64   R(50,51)                0.9713                                         !
 ! A1    A(2,1,21)             109.4149                                         !
 ! A2    A(2,1,22)             109.7615                                         !
 ! A3    A(21,1,22)            107.35                                           !
 ! A4    A(1,2,3)              109.5819                                         !
 ! A5    A(1,2,5)              110.9309                                         !
 ! A6    A(1,2,13)             113.7495                                         !
 ! A7    A(3,2,5)              108.5446                                         !
 ! A8    A(3,2,13)             105.7721                                         !
 ! A9    A(5,2,13)             108.0252                                         !
 ! A10   A(2,3,4)              121.5998                                         !
 ! A11   A(2,3,23)             114.7409                                         !
 ! A12   A(4,3,23)             123.6593                                         !
 ! A13   A(2,5,6)              112.3514                                         !
 ! A14   A(2,5,14)             107.5634                                         !
 ! A15   A(2,5,15)             108.244                                          !
 ! A16   A(6,5,14)             110.8838                                         !
 ! A17   A(6,5,15)             110.2701                                         !
 ! A18   A(14,5,15)            107.343                                          !
 ! A19   A(5,6,7)              121.1512                                         !
 ! A20   A(5,6,8)              120.8293                                         !
 ! A21   A(7,6,8)              117.9811                                         !
 ! A22   A(6,7,9)              121.4643                                         !
 ! A23   A(6,7,16)             119.432                                          !
 ! A24   A(9,7,16)             119.1005                                         !
 ! A25   A(6,8,10)             121.3023                                         !
 ! A26   A(6,8,17)             119.5998                                         !
 ! A27   A(10,8,17)            119.097                                          !
 ! A28   A(7,9,11)             119.723                                          !
 ! A29   A(7,9,18)             121.4174                                         !
 ! A30   A(11,9,18)            118.8579                                         !
 ! A31   A(8,10,11)            119.8593                                         !
 ! A32   A(8,10,19)            120.1849                                         !
 ! A33   A(11,10,19)           119.955                                          !
 ! A34   A(9,11,10)            119.6699                                         !
 ! A35   A(9,11,12)            117.2119                                         !
 ! A36   A(10,11,12)           123.118                                          !
 ! A37   A(11,12,20)           109.7859                                         !
 ! A38   A(3,23,24)            122.9755                                         !
 ! A39   A(3,23,30)            114.1632                                         !
 ! A40   A(24,23,30)           122.512                                          !
 ! A41   A(23,24,25)           108.5229                                         !
 ! A42   A(23,24,27)           111.4871                                         !
 ! A43   A(23,24,31)           109.535                                          !
 ! A44   A(25,24,27)           114.8624                                         !
 ! A45   A(25,24,31)           103.7449                                         !
 ! A46   A(27,24,31)           108.3372                                         !
 ! A47   A(24,25,26)           119.7806                                         !
 ! A48   A(24,25,39)           116.0701                                         !
 ! A49   A(26,25,39)           124.1283                                         !
 ! A50   A(24,27,28)           113.9788                                         !
 ! A51   A(24,27,29)           110.1211                                         !
 ! A52   A(24,27,32)           105.0221                                         !
 ! A53   A(28,27,29)           111.0491                                         !
 ! A54   A(28,27,32)           108.1233                                         !
 ! A55   A(29,27,32)           108.2037                                         !
 ! A56   A(27,28,33)           112.9175                                         !
 ! A57   A(27,28,34)           109.701                                          !
 ! A58   A(27,28,35)           111.2269                                         !
 ! A59   A(33,28,34)           107.1399                                         !
 ! A60   A(33,28,35)           108.2181                                         !
 ! A61   A(34,28,35)           107.4079                                         !
 ! A62   A(27,29,36)           111.1913                                         !
 ! A63   A(27,29,37)           111.6524                                         !
 ! A64   A(27,29,38)           110.1885                                         !
 ! A65   A(36,29,37)           107.7693                                         !
 ! A66   A(36,29,38)           107.7899                                         !
 ! A67   A(37,29,38)           108.104                                          !
 ! A68   A(25,39,40)           122.7842                                         !
 ! A69   A(25,39,52)           114.1165                                         !
 ! A70   A(40,39,52)           110.0441                                         !
 ! A71   A(39,40,41)           105.861                                          !
 ! A72   A(39,40,43)           114.7181                                         !
 ! A73   A(39,40,53)           108.3972                                         !
 ! A74   A(41,40,43)           113.0986                                         !
 ! A75   A(41,40,53)           104.0885                                         !
 ! A76   A(43,40,53)           110.0247                                         !
 ! A77   A(40,41,42)           122.8316                                         !
 ! A78   A(40,41,50)           116.7897                                         !
 ! A79   A(42,41,50)           120.3357                                         !
 ! A80   A(40,43,44)           115.8664                                         !
 ! A81   A(40,43,54)           107.7211                                         !
 ! A82   A(40,43,55)           109.5781                                         !
 ! A83   A(44,43,54)           108.9776                                         !
 ! A84   A(44,43,55)           108.147                                          !
 ! A85   A(54,43,55)           106.1241                                         !
 ! A86   A(43,44,45)           115.8092                                         !
 ! A87   A(43,44,56)           109.9601                                         !
 ! A88   A(43,44,57)           107.792                                          !
 ! A89   A(45,44,56)           109.2308                                         !
 ! A90   A(45,44,57)           107.0085                                         !
 ! A91   A(56,44,57)           106.6053                                         !
 ! A92   A(44,45,46)           110.4276                                         !
 ! A93   A(44,45,58)           109.2385                                         !
 ! A94   A(44,45,59)           110.7657                                         !
 ! A95   A(46,45,58)           109.6349                                         !
 ! A96   A(46,45,59)           109.0709                                         !
 ! A97   A(58,45,59)           107.6532                                         !
 ! A98   A(45,46,47)           127.3306                                         !
 ! A99   A(45,46,60)           114.7936                                         !
 ! A100  A(47,46,60)           116.5533                                         !
 ! A101  A(46,47,48)           120.1738                                         !
 ! A102  A(46,47,49)           119.5825                                         !
 ! A103  A(48,47,49)           120.2117                                         !
 ! A104  A(47,48,61)           120.2762                                         !
 ! A105  A(47,48,62)           119.4688                                         !
 ! A106  A(61,48,62)           116.37                                           !
 ! A107  A(47,49,63)           120.7011                                         !
 ! A108  A(47,49,64)           122.0062                                         !
 ! A109  A(63,49,64)           116.8327                                         !
 ! A110  A(41,50,51)           111.6153                                         !
 ! D1    D(21,1,2,3)            80.3684                                         !
 ! D2    D(21,1,2,5)          -159.7986                                         !
 ! D3    D(21,1,2,13)          -37.7769                                         !
 ! D4    D(22,1,2,3)          -162.0769                                         !
 ! D5    D(22,1,2,5)           -42.2439                                         !
 ! D6    D(22,1,2,13)           79.7777                                         !
 ! D7    D(1,2,3,4)           -156.6376                                         !
 ! D8    D(1,2,3,23)            23.4827                                         !
 ! D9    D(5,2,3,4)             82.0791                                         !
 ! D10   D(5,2,3,23)           -97.8007                                         !
 ! D11   D(13,2,3,4)           -33.6362                                         !
 ! D12   D(13,2,3,23)          146.484                                          !
 ! D13   D(1,2,5,6)             63.0632                                         !
 ! D14   D(1,2,5,14)          -174.6322                                         !
 ! D15   D(1,2,5,15)           -58.9391                                         !
 ! D16   D(3,2,5,6)           -176.4865                                         !
 ! D17   D(3,2,5,14)           -54.1818                                         !
 ! D18   D(3,2,5,15)            61.5112                                         !
 ! D19   D(13,2,5,6)           -62.2404                                         !
 ! D20   D(13,2,5,14)           60.0643                                         !
 ! D21   D(13,2,5,15)          175.7573                                         !
 ! D22   D(2,3,23,24)         -177.3675                                         !
 ! D23   D(2,3,23,30)           -4.0051                                         !
 ! D24   D(4,3,23,24)            2.7555                                         !
 ! D25   D(4,3,23,30)          176.118                                          !
 ! D26   D(2,5,6,7)           -100.3587                                         !
 ! D27   D(2,5,6,8)             77.3398                                         !
 ! D28   D(14,5,6,7)           139.2372                                         !
 ! D29   D(14,5,6,8)           -43.0643                                         !
 ! D30   D(15,5,6,7)            20.485                                          !
 ! D31   D(15,5,6,8)          -161.8165                                         !
 ! D32   D(5,6,7,9)            177.7485                                         !
 ! D33   D(5,6,7,16)            -2.9101                                         !
 ! D34   D(8,6,7,9)             -0.0137                                         !
 ! D35   D(8,6,7,16)           179.3277                                         !
 ! D36   D(5,6,8,10)          -177.844                                          !
 ! D37   D(5,6,8,17)             2.5024                                         !
 ! D38   D(7,6,8,10)            -0.0742                                         !
 ! D39   D(7,6,8,17)          -179.7279                                         !
 ! D40   D(6,7,9,11)             0.0416                                         !
 ! D41   D(6,7,9,18)           179.5621                                         !
 ! D42   D(16,7,9,11)         -179.3019                                         !
 ! D43   D(16,7,9,18)            0.2186                                         !
 ! D44   D(6,8,10,11)            0.1333                                         !
 ! D45   D(6,8,10,19)         -179.5355                                         !
 ! D46   D(17,8,10,11)         179.7887                                         !
 ! D47   D(17,8,10,19)           0.1199                                         !
 ! D48   D(7,9,11,10)            0.0173                                         !
 ! D49   D(7,9,11,12)          179.888                                          !
 ! D50   D(18,9,11,10)        -179.5155                                         !
 ! D51   D(18,9,11,12)           0.3552                                         !
 ! D52   D(8,10,11,9)           -0.1033                                         !
 ! D53   D(8,10,11,12)        -179.966                                          !
 ! D54   D(19,10,11,9)         179.5663                                         !
 ! D55   D(19,10,11,12)         -0.2964                                         !
 ! D56   D(9,11,12,20)        -179.0645                                         !
 ! D57   D(10,11,12,20)          0.8014                                         !
 ! D58   D(3,23,24,25)          43.8653                                         !
 ! D59   D(3,23,24,27)         171.3405                                         !
 ! D60   D(3,23,24,31)         -68.7635                                         !
 ! D61   D(30,23,24,25)       -128.9505                                         !
 ! D62   D(30,23,24,27)         -1.4753                                         !
 ! D63   D(30,23,24,31)        118.4207                                         !
 ! D64   D(23,24,25,26)       -132.2282                                         !
 ! D65   D(23,24,25,39)         46.1729                                         !
 ! D66   D(27,24,25,26)        102.2498                                         !
 ! D67   D(27,24,25,39)        -79.3492                                         !
 ! D68   D(31,24,25,26)        -15.8048                                         !
 ! D69   D(31,24,25,39)        162.5962                                         !
 ! D70   D(23,24,27,28)        -60.2071                                         !
 ! D71   D(23,24,27,29)        174.2299                                         !
 ! D72   D(23,24,27,32)         57.9477                                         !
 ! D73   D(25,24,27,28)         63.7588                                         !
 ! D74   D(25,24,27,29)        -61.8043                                         !
 ! D75   D(25,24,27,32)       -178.0865                                         !
 ! D76   D(31,24,27,28)        179.1922                                         !
 ! D77   D(31,24,27,29)         53.6292                                         !
 ! D78   D(31,24,27,32)        -62.653                                          !
 ! D79   D(24,25,39,40)       -138.1148                                         !
 ! D80   D(24,25,39,52)         -0.8081                                         !
 ! D81   D(26,25,39,40)         40.2087                                         !
 ! D82   D(26,25,39,52)        177.5154                                         !
 ! D83   D(24,27,28,33)         53.7883                                         !
 ! D84   D(24,27,28,34)        173.2103                                         !
 ! D85   D(24,27,28,35)        -68.1053                                         !
 ! D86   D(29,27,28,33)        178.8594                                         !
 ! D87   D(29,27,28,34)        -61.7186                                         !
 ! D88   D(29,27,28,35)         56.9657                                         !
 ! D89   D(32,27,28,33)        -62.5749                                         !
 ! D90   D(32,27,28,34)         56.8471                                         !
 ! D91   D(32,27,28,35)        175.5314                                         !
 ! D92   D(24,27,29,36)         65.3684                                         !
 ! D93   D(24,27,29,37)        -55.0346                                         !
 ! D94   D(24,27,29,38)       -175.1796                                         !
 ! D95   D(28,27,29,36)        -61.8427                                         !
 ! D96   D(28,27,29,37)        177.7543                                         !
 ! D97   D(28,27,29,38)         57.6092                                         !
 ! D98   D(32,27,29,36)        179.64                                           !
 ! D99   D(32,27,29,37)         59.237                                          !
 ! D100  D(32,27,29,38)        -60.908                                          !
 ! D101  D(25,39,40,41)        133.1329                                         !
 ! D102  D(25,39,40,43)       -101.4327                                         !
 ! D103  D(25,39,40,53)         21.96                                           !
 ! D104  D(52,39,40,41)         -5.6592                                         !
 ! D105  D(52,39,40,43)        119.7751                                         !
 ! D106  D(52,39,40,53)       -116.8321                                         !
 ! D107  D(39,40,41,42)          0.1998                                         !
 ! D108  D(39,40,41,50)       -177.4201                                         !
 ! D109  D(43,40,41,42)       -126.2254                                         !
 ! D110  D(43,40,41,50)         56.1547                                         !
 ! D111  D(53,40,41,42)        114.3779                                         !
 ! D112  D(53,40,41,50)        -63.242                                          !
 ! D113  D(39,40,43,44)         70.9597                                         !
 ! D114  D(39,40,43,54)        -51.3396                                         !
 ! D115  D(39,40,43,55)       -166.3695                                         !
 ! D116  D(41,40,43,44)       -167.4777                                         !
 ! D117  D(41,40,43,54)         70.223                                          !
 ! D118  D(41,40,43,55)        -44.8069                                         !
 ! D119  D(53,40,43,44)        -51.5583                                         !
 ! D120  D(53,40,43,54)       -173.8575                                         !
 ! D121  D(53,40,43,55)         71.1126                                         !
 ! D122  D(40,41,50,51)         -1.7842                                         !
 ! D123  D(42,41,50,51)       -179.467                                          !
 ! D124  D(40,43,44,45)         67.8124                                         !
 ! D125  D(40,43,44,56)        -56.5824                                         !
 ! D126  D(40,43,44,57)       -172.4226                                         !
 ! D127  D(54,43,44,45)       -170.5563                                         !
 ! D128  D(54,43,44,56)         65.0489                                         !
 ! D129  D(54,43,44,57)        -50.7912                                         !
 ! D130  D(55,43,44,45)        -55.61                                           !
 ! D131  D(55,43,44,56)        179.9952                                         !
 ! D132  D(55,43,44,57)         64.155                                          !
 ! D133  D(43,44,45,46)        -73.5979                                         !
 ! D134  D(43,44,45,58)        165.7541                                         !
 ! D135  D(43,44,45,59)         47.3402                                         !
 ! D136  D(56,44,45,46)         51.1735                                         !
 ! D137  D(56,44,45,58)        -69.4745                                         !
 ! D138  D(56,44,45,59)        172.1116                                         !
 ! D139  D(57,44,45,46)        166.2114                                         !
 ! D140  D(57,44,45,58)         45.5634                                         !
 ! D141  D(57,44,45,59)        -72.8505                                         !
 ! D142  D(44,45,46,47)        140.6697                                         !
 ! D143  D(44,45,46,60)        -25.6342                                         !
 ! D144  D(58,45,46,47)        -98.9194                                         !
 ! D145  D(58,45,46,60)         94.7767                                         !
 ! D146  D(59,45,46,47)         18.727                                          !
 ! D147  D(59,45,46,60)       -147.5769                                         !
 ! D148  D(45,46,47,48)         23.1438                                         !
 ! D149  D(45,46,47,49)       -154.8024                                         !
 ! D150  D(60,46,47,48)       -170.7601                                         !
 ! D151  D(60,46,47,49)         11.2937                                         !
 ! D152  D(46,47,48,61)       -174.8855                                         !
 ! D153  D(46,47,48,62)         28.0974                                         !
 ! D154  D(49,47,48,61)          3.0476                                         !
 ! D155  D(49,47,48,62)       -153.9695                                         !
 ! D156  D(46,47,49,63)       -166.0333                                         !
 ! D157  D(46,47,49,64)         21.9967                                         !
 ! D158  D(48,47,49,63)         16.0214                                         !
 ! D159  D(48,47,49,64)       -155.9486                                         !
 --------------------------------------------------------------------------------
 Symmetry turned off by external request.
 Stoichiometry    C20H33N6O5(1+)
 Framework group  C1[X(C20H33N6O5)]
 Deg. of freedom   186
 Full point group                 C1      NOp   1
                          Input orientation:                          
 ---------------------------------------------------------------------
 Center     Atomic      Atomic             Coordinates (Angstroms)
 Number     Number       Type             X           Y           Z
 ---------------------------------------------------------------------
      1          7           0       31.739618  -29.354662   41.936501
      2          6           0       33.027942  -29.220402   42.618320
      3          6           0       34.066505  -30.101998   41.928299
      4          8           0       35.081551  -30.502428   42.525311
      5          6           0       33.524555  -27.751081   42.580510
      6          6           0       32.597871  -26.812066   43.317718
      7          6           0       31.672570  -26.014782   42.627060
      8          6           0       32.605423  -26.747815   44.716738
      9          6           0       30.784462  -25.181988   43.302038
     10          6           0       31.725001  -25.918654   45.407907
     11          6           0       30.807506  -25.130927   44.700123
     12          8           0       29.917967  -24.297116   45.307772
     13          1           0       33.009382  -29.546435   43.668500
     14          1           0       34.529811  -27.730388   43.016813
     15          1           0       33.617388  -27.446961   41.530983
     16          1           0       31.653624  -26.037996   41.539637
     17          1           0       33.315098  -27.351620   45.278675
     18          1           0       30.074000  -24.560537   42.766958
     19          1           0       31.751727  -25.877264   46.494971
     20          1           0       30.036844  -24.334855   46.269628
     21          1           0       31.278479  -30.208028   42.248687
     22          1           0       31.134955  -28.573970   42.186000
     23          7           0       33.790620  -30.397725   40.642090
     24          6           0       34.629756  -31.270065   39.831505
     25          6           0       35.019646  -32.495893   40.675849
     26          8           0       36.196847  -32.864367   40.714340
     27          6           0       33.960121  -31.600466   38.473887
     28          6           0       32.607736  -32.319190   38.603001
     29          6           0       34.926853  -32.399514   37.588853
     30          1           0       32.890347  -30.046145   40.316780
     31          1           0       35.586695  -30.776158   39.632509
     32          1           0       33.785005  -30.625302   37.997778
     33          1           0       31.899217  -31.783650   39.246339
     34          1           0       32.142624  -32.410053   37.616670
     35          1           0       32.733340  -33.332511   39.000846
     36          1           0       35.141130  -33.382897   38.023425
     37          1           0       35.880380  -31.877049   37.457842
     38          1           0       34.488119  -32.559718   36.599247
     39          7           0       34.008784  -33.090061   41.372184
     40          6           0       34.165014  -33.561214   42.745751
     41          6           0       32.928293  -33.043148   43.513066
     42          8           0       32.057032  -32.388263   42.987506
     43          6           0       34.370690  -35.086548   42.886329
     44          6           0       35.730425  -35.627905   42.408094
     45          6           0       36.953212  -35.204754   43.245418
     46          7           0       37.282917  -33.795302   42.995349
     47          6           0       37.681282  -32.891555   43.883307
     48          7           0       38.265816  -33.284949   45.039058
     49          7           0       37.463762  -31.591687   43.646641
     50          8           0       32.876015  -33.310539   44.827331
     51          1           0       33.640311  -33.835770   45.116299
     52          1           0       33.104159  -32.637650   41.259366
     53          1           0       35.004171  -33.026453   43.200937
     54          1           0       33.571984  -35.583812   42.325244
     55          1           0       34.235003  -35.381413   43.937128
     56          1           0       35.896259  -35.350326   41.361588
     57          1           0       35.684474  -36.722199   42.438282
     58          1           0       37.809332  -35.836253   42.979396
     59          1           0       36.757982  -35.342733   44.316334
     60          1           0       36.980466  -33.435931   42.073516
     61          1           0       38.499321  -32.605126   45.748844
     62          1           0       38.777677  -34.155800   45.065967
     63          1           0       37.933734  -30.882799   44.191067
     64          1           0       36.734074  -31.271096   42.999532
 ---------------------------------------------------------------------
 Rotational constants (GHZ):           0.2114785           0.0755938           0.0665845
 Standard basis: 6-31G(d) (6D, 7F)
   531 basis functions,  1000 primitive gaussians,   531 cartesian basis functions
   117 alpha electrons      117 beta electrons
       nuclear repulsion energy      3356.2013415719 Hartrees.
 NAtoms=   64 NActive=   64 NUniq=   64 SFac= 1.00D+00 NAtFMM=   60 NAOKFM=T Big=T
 Integral buffers will be    131072 words long.
 Raffenetti 2 integral format.
 Two-electron integral symmetry is turned off.
 Nuclear repulsion after empirical dispersion term =     3356.1166776833 Hartrees.
 One-electron integrals computed using PRISM.
 NBasis=   531 RedAO= T EigKep=  4.34D-04  NBF=   531
 NBsUse=   531 1.00D-06 EigRej= -1.00D+00 NBFU=   531
 Initial guess from the checkpoint file:  "conf-746.chk"
 B after Tr=     0.000000    0.000000    0.000000
         Rot=    1.000000    0.000000    0.000000    0.000000 Ang=   0.00 deg.
 Requested convergence on RMS density matrix=1.00D-08 within 128 cycles.
 Requested convergence on MAX density matrix=1.00D-06.
 Requested convergence on             energy=1.00D-06.
 No special actions if energy rises.
 SCF Done:  E(RB3LYP) =  -1486.58381253     A.U. after    1 cycles
            NFock=  1  Conv=0.81D-08     -V/T= 2.0094

 **********************************************************************

            Population analysis using the SCF Density.

 **********************************************************************

 Alpha  occ. eigenvalues --  -19.31975 -19.26228 -19.24563 -19.24263 -19.22808
 Alpha  occ. eigenvalues --  -14.51902 -14.50157 -14.49706 -14.47049 -14.46134
 Alpha  occ. eigenvalues --  -14.40762 -10.47269 -10.44545 -10.41032 -10.38882
 Alpha  occ. eigenvalues --  -10.36683 -10.36075 -10.33680 -10.32134 -10.31763
 Alpha  occ. eigenvalues --  -10.31395 -10.31326 -10.29816 -10.27617 -10.26920
 Alpha  occ. eigenvalues --  -10.26409 -10.26352 -10.26305 -10.26111 -10.25978
 Alpha  occ. eigenvalues --  -10.25242  -1.22740  -1.16376  -1.15569  -1.14515
 Alpha  occ. eigenvalues --   -1.13844  -1.12409  -1.05072  -1.04971  -1.03854
 Alpha  occ. eigenvalues --   -1.03001  -0.97996  -0.92672  -0.92252  -0.90367
 Alpha  occ. eigenvalues --   -0.87572  -0.85216  -0.82440  -0.81735  -0.81139
 Alpha  occ. eigenvalues --   -0.78930  -0.77667  -0.77490  -0.74619  -0.74049
 Alpha  occ. eigenvalues --   -0.72814  -0.71965  -0.70481  -0.69372  -0.69236
 Alpha  occ. eigenvalues --   -0.69192  -0.66729  -0.66100  -0.65357  -0.65145
 Alpha  occ. eigenvalues --   -0.64170  -0.62476  -0.61696  -0.61210  -0.60314
 Alpha  occ. eigenvalues --   -0.59359  -0.58708  -0.58375  -0.57409  -0.57119
 Alpha  occ. eigenvalues --   -0.56033  -0.55950  -0.55315  -0.54660  -0.54247
 Alpha  occ. eigenvalues --   -0.53952  -0.53521  -0.52962  -0.52525  -0.51474
 Alpha  occ. eigenvalues --   -0.51071  -0.50646  -0.50293  -0.50062  -0.49331
 Alpha  occ. eigenvalues --   -0.49078  -0.48358  -0.47882  -0.47463  -0.47276
 Alpha  occ. eigenvalues --   -0.47093  -0.46881  -0.46486  -0.45281  -0.44008
 Alpha  occ. eigenvalues --   -0.43751  -0.43556  -0.43488  -0.42951  -0.42704
 Alpha  occ. eigenvalues --   -0.42483  -0.40522  -0.40378  -0.39639  -0.39309
 Alpha  occ. eigenvalues --   -0.38532  -0.37637  -0.36689  -0.36124  -0.33712
 Alpha  occ. eigenvalues --   -0.32177  -0.28606
 Alpha virt. eigenvalues --   -0.12079  -0.11562  -0.11164  -0.08610  -0.07460
 Alpha virt. eigenvalues --   -0.07307  -0.06812  -0.05591  -0.03813  -0.01506
 Alpha virt. eigenvalues --   -0.01105  -0.00846   0.00768   0.00830   0.01101
 Alpha virt. eigenvalues --    0.01372   0.01732   0.02540   0.03564   0.03747
 Alpha virt. eigenvalues --    0.03951   0.04596   0.04950   0.05483   0.05681
 Alpha virt. eigenvalues --    0.05897   0.06279   0.06710   0.07310   0.07435
 Alpha virt. eigenvalues --    0.07716   0.08546   0.08889   0.09087   0.09191
 Alpha virt. eigenvalues --    0.09609   0.10029   0.10169   0.10634   0.10968
 Alpha virt. eigenvalues --    0.11274   0.11348   0.12451   0.12718   0.12990
 Alpha virt. eigenvalues --    0.13249   0.13845   0.13933   0.14901   0.15914
 Alpha virt. eigenvalues --    0.16543   0.17171   0.17355   0.17719   0.18573
 Alpha virt. eigenvalues --    0.19455   0.20560   0.22792   0.24226   0.24849
 Alpha virt. eigenvalues --    0.25283   0.26131   0.26873   0.27279   0.27628
 Alpha virt. eigenvalues --    0.28869   0.29895   0.32432   0.33763   0.36469
 Alpha virt. eigenvalues --    0.37913   0.38810   0.40065   0.40697   0.41060
 Alpha virt. eigenvalues --    0.41578   0.42107   0.42441   0.43304   0.43403
 Alpha virt. eigenvalues --    0.44009   0.44490   0.45050   0.45697   0.45749
 Alpha virt. eigenvalues --    0.46445   0.46673   0.47030   0.47436   0.47883
 Alpha virt. eigenvalues --    0.48271   0.49788   0.50354   0.51348   0.51581
 Alpha virt. eigenvalues --    0.51823   0.52346   0.52747   0.53073   0.53271
 Alpha virt. eigenvalues --    0.54144   0.54235   0.54580   0.55051   0.55422
 Alpha virt. eigenvalues --    0.55660   0.56692   0.57233   0.57558   0.58359
 Alpha virt. eigenvalues --    0.58653   0.59361   0.59571   0.60683   0.61062
 Alpha virt. eigenvalues --    0.61524   0.62203   0.62682   0.63455   0.63814
 Alpha virt. eigenvalues --    0.64374   0.65878   0.67205   0.67506   0.68193
 Alpha virt. eigenvalues --    0.68718   0.69085   0.69405   0.69771   0.70960
 Alpha virt. eigenvalues --    0.71500   0.71759   0.72431   0.72870   0.73903
 Alpha virt. eigenvalues --    0.74692   0.75127   0.75611   0.75966   0.76166
 Alpha virt. eigenvalues --    0.76483   0.76612   0.77019   0.77852   0.78078
 Alpha virt. eigenvalues --    0.79057   0.79855   0.80248   0.80314   0.80895
 Alpha virt. eigenvalues --    0.81417   0.81601   0.82154   0.82489   0.83263
 Alpha virt. eigenvalues --    0.83592   0.83706   0.84198   0.84747   0.84994
 Alpha virt. eigenvalues --    0.85611   0.86314   0.86432   0.86763   0.87679
 Alpha virt. eigenvalues --    0.88155   0.88835   0.89414   0.90389   0.90425
 Alpha virt. eigenvalues --    0.91161   0.91542   0.91902   0.92648   0.93278
 Alpha virt. eigenvalues --    0.93847   0.93985   0.95408   0.96744   0.97765
 Alpha virt. eigenvalues --    0.98204   0.98644   0.99487   1.01295   1.02047
 Alpha virt. eigenvalues --    1.03010   1.04657   1.04789   1.05402   1.07029
 Alpha virt. eigenvalues --    1.07463   1.08187   1.09476   1.10259   1.12060
 Alpha virt. eigenvalues --    1.12931   1.13508   1.14734   1.16358   1.16999
 Alpha virt. eigenvalues --    1.17361   1.17785   1.18037   1.18848   1.21193
 Alpha virt. eigenvalues --    1.21726   1.21973   1.23680   1.25208   1.25731
 Alpha virt. eigenvalues --    1.27531   1.27958   1.29690   1.30503   1.31139
 Alpha virt. eigenvalues --    1.32211   1.32961   1.33992   1.34937   1.36852
 Alpha virt. eigenvalues --    1.37694   1.38220   1.38954   1.39604   1.40001
 Alpha virt. eigenvalues --    1.40477   1.42031   1.42269   1.43424   1.44045
 Alpha virt. eigenvalues --    1.44303   1.46133   1.46587   1.48478   1.51100
 Alpha virt. eigenvalues --    1.52268   1.53294   1.54896   1.55350   1.55907
 Alpha virt. eigenvalues --    1.56682   1.58818   1.59316   1.59840   1.60636
 Alpha virt. eigenvalues --    1.62064   1.63149   1.64494   1.64964   1.66529
 Alpha virt. eigenvalues --    1.66930   1.67615   1.67880   1.68650   1.69192
 Alpha virt. eigenvalues --    1.69814   1.70850   1.71541   1.72110   1.72565
 Alpha virt. eigenvalues --    1.73449   1.74152   1.74797   1.75659   1.76287
 Alpha virt. eigenvalues --    1.77083   1.77662   1.78449   1.79209   1.80524
 Alpha virt. eigenvalues --    1.80885   1.81939   1.82886   1.83827   1.83998
 Alpha virt. eigenvalues --    1.84714   1.84898   1.86289   1.87416   1.87877
 Alpha virt. eigenvalues --    1.88326   1.89091   1.89609   1.90236   1.90473
 Alpha virt. eigenvalues --    1.90975   1.91878   1.93566   1.94125   1.94494
 Alpha virt. eigenvalues --    1.95784   1.96556   1.97559   1.98316   1.98526
 Alpha virt. eigenvalues --    1.99572   1.99939   2.01024   2.02321   2.03001
 Alpha virt. eigenvalues --    2.03166   2.04219   2.05756   2.06621   2.07424
 Alpha virt. eigenvalues --    2.07603   2.08316   2.10461   2.11029   2.14179
 Alpha virt. eigenvalues --    2.15311   2.16160   2.16831   2.17888   2.19337
 Alpha virt. eigenvalues --    2.19751   2.20389   2.21611   2.21928   2.24129
 Alpha virt. eigenvalues --    2.24233   2.25892   2.26405   2.27183   2.28040
 Alpha virt. eigenvalues --    2.29059   2.29843   2.30966   2.31725   2.32072
 Alpha virt. eigenvalues --    2.33395   2.33632   2.34918   2.36108   2.36595
 Alpha virt. eigenvalues --    2.39703   2.41051   2.41503   2.42667   2.43384
 Alpha virt. eigenvalues --    2.43542   2.44027   2.46253   2.46694   2.47675
 Alpha virt. eigenvalues --    2.49590   2.50934   2.51446   2.52832   2.53664
 Alpha virt. eigenvalues --    2.54514   2.54789   2.56310   2.56729   2.57672
 Alpha virt. eigenvalues --    2.58507   2.59081   2.59818   2.60144   2.61347
 Alpha virt. eigenvalues --    2.63561   2.65497   2.67634   2.69585   2.71466
 Alpha virt. eigenvalues --    2.72108   2.72751   2.76287   2.81796   2.82834
 Alpha virt. eigenvalues --    2.83023   2.87702   2.89038   2.90290   2.91677
 Alpha virt. eigenvalues --    2.94310   2.97070   2.97802   2.98420   3.05133
 Alpha virt. eigenvalues --    3.05853   3.10716   3.34612   3.66861   3.77471
 Alpha virt. eigenvalues --    3.78467   3.80946   3.87649   3.89708   3.95619
 Alpha virt. eigenvalues --    3.96347   4.03862   4.04393   4.05605   4.05973
 Alpha virt. eigenvalues --    4.09619   4.12290   4.14613   4.16640   4.19553
 Alpha virt. eigenvalues --    4.20805   4.26733   4.26985   4.28249   4.28965
 Alpha virt. eigenvalues --    4.35048   4.38925   4.41248   4.44022   4.54424
 Alpha virt. eigenvalues --    4.55501   4.59862   4.65364   4.69033
          Condensed to atoms (all electrons):
 Mulliken charges:
               1
     1  N   -0.782424
     2  C   -0.040324
     3  C    0.628508
     4  O   -0.602814
     5  C   -0.367523
     6  C    0.155968
     7  C   -0.203658
     8  C   -0.184000
     9  C   -0.155041
    10  C   -0.188690
    11  C    0.354536
    12  O   -0.630961
    13  H    0.152424
    14  H    0.162830
    15  H    0.158534
    16  H    0.138625
    17  H    0.123750
    18  H    0.157177
    19  H    0.131138
    20  H    0.414333
    21  H    0.341780
    22  H    0.332636
    23  N   -0.624354
    24  C   -0.002323
    25  C    0.607695
    26  O   -0.560052
    27  C   -0.121691
    28  C   -0.480654
    29  C   -0.452799
    30  H    0.377323
    31  H    0.188034
    32  H    0.160333
    33  H    0.154360
    34  H    0.178027
    35  H    0.158483
    36  H    0.156742
    37  H    0.162346
    38  H    0.169321
    39  N   -0.590028
    40  C   -0.086933
    41  C    0.629644
    42  O   -0.457704
    43  C   -0.272654
    44  C   -0.308878
    45  C   -0.152871
    46  N   -0.619719
    47  C    0.756303
    48  N   -0.754675
    49  N   -0.780513
    50  O   -0.543280
    51  H    0.422877
    52  H    0.375762
    53  H    0.176404
    54  H    0.190350
    55  H    0.131342
    56  H    0.195872
    57  H    0.180738
    58  H    0.190738
    59  H    0.162245
    60  H    0.434396
    61  H    0.373502
    62  H    0.380968
    63  H    0.364249
    64  H    0.434266
 Sum of Mulliken charges =   1.00000
 Mulliken charges with hydrogens summed into heavy atoms:
               1
     1  N   -0.108009
     2  C    0.112100
     3  C    0.628508
     4  O   -0.602814
     5  C   -0.046160
     6  C    0.155968
     7  C   -0.065033
     8  C   -0.060250
     9  C    0.002136
    10  C   -0.057552
    11  C    0.354536
    12  O   -0.216628
    23  N   -0.247031
    24  C    0.185711
    25  C    0.607695
    26  O   -0.560052
    27  C    0.038642
    28  C    0.010217
    29  C    0.035609
    39  N   -0.214266
    40  C    0.089471
    41  C    0.629644
    42  O   -0.457704
    43  C    0.049038
    44  C    0.067732
    45  C    0.200113
    46  N   -0.185322
    47  C    0.756303
    48  N   -0.000206
    49  N    0.018003
    50  O   -0.120402
 Electronic spatial extent (au):  <R**2>=        3283653.7274
 Charge=              1.0000 electrons
 Dipole moment (field-independent basis, Debye):
    X=            172.8037    Y=           -156.3413    Z=            209.6521  Tot=            313.4609
 Quadrupole moment (field-independent basis, Debye-Ang):
   XX=           6062.9904   YY=           4947.9491   ZZ=           9011.2438
   XY=          -5642.2094   XZ=           7559.1688   YZ=          -6818.5969
 Traceless Quadrupole moment (field-independent basis, Debye-Ang):
   XX=           -611.0707   YY=          -1726.1120   ZZ=           2337.1827
   XY=          -5642.2094   XZ=           7559.1688   YZ=          -6818.5969
 Octapole moment (field-independent basis, Debye-Ang**2):
  XXX=         208154.8779  YYY=        -152766.7198  ZZZ=         381691.8390  XYY=         179423.0862
  XXY=        -198862.2256  XXZ=         266076.3685  XZZ=         325897.1543  YZZ=        -293042.7905
  YYZ=         215915.4000  XYZ=        -246663.9256
 Hexadecapole moment (field-independent basis, Debye-Ang**3):
 XXXX=        7000631.8030 YYYY=        4596766.8942 ZZZZ=       15929945.4850 XXXY=       -6866395.5900
 XXXZ=        9175289.2115 YYYX=       -5574066.0136 YYYZ=       -6679251.3102 ZZZX=       13859333.5960
 ZZZY=      -12419794.9194 XXYY=        6355617.9266 XXZZ=       11511859.2182 YYZZ=        9284629.8578
 XXYZ=       -8722856.4295 YYXZ=        7849402.4979 ZZXY=      -10634659.2059
 N-N= 3.356116677683D+03 E-N=-1.014965249514D+04  KE= 1.472705683584D+03
 Unable to Open any file for archive entry.
 1\1\GINC-AMR-085\SP\RB3LYP\6-31G(d)\C20H33N6O5(1+)\KENGMITH\31-May-202
 2\0\\# B3LYP/6-31G* empiricaldispersion=gd3 guess=read geom=check nosy
 mm integral(ultrafinegrid)\\Candidate Structure: Conf:746 Charge calc 
 in gas phase\\1,1\N,0,31.739617871,-29.354662143,41.9365013754\C,0,33.
 0279423501,-29.2204024931,42.6183203154\C,0,34.0665050502,-30.10199847
 76,41.9282986444\O,0,35.0815508525,-30.5024279509,42.5253114929\C,0,33
 .5245545927,-27.7510813034,42.5805100811\C,0,32.5978712727,-26.8120663
 087,43.3177182303\C,0,31.6725700418,-26.0147821095,42.6270595232\C,0,3
 2.6054232577,-26.7478145639,44.7167383572\C,0,30.784462386,-25.1819881
 187,43.3020384991\C,0,31.7250009942,-25.9186536067,45.4079067633\C,0,3
 0.8075064142,-25.1309274884,44.7001230047\O,0,29.9179665543,-24.297116
 2716,45.3077724149\H,0,33.0093821002,-29.546434612,43.6685001499\H,0,3
 4.5298105924,-27.7303878764,43.0168128038\H,0,33.6173883825,-27.446960
 6168,41.5309831543\H,0,31.6536236872,-26.0379964113,41.5396374573\H,0,
 33.3150984331,-27.3516202198,45.2786745708\H,0,30.0740000762,-24.56053
 68112,42.7669582676\H,0,31.7517273907,-25.8772641992,46.4949707948\H,0
 ,30.0368436197,-24.3348551275,46.2696278939\H,0,31.2784791913,-30.2080
 278104,42.2486870535\H,0,31.1349552854,-28.5739699216,42.1860001385\N,
 0,33.7906199375,-30.3977252536,40.6420903575\C,0,34.6297558185,-31.270
 0648697,39.8315052034\C,0,35.0196458141,-32.4958926146,40.6758492028\O
 ,0,36.1968470349,-32.8643670478,40.7143397209\C,0,33.9601211954,-31.60
 04655576,38.4738869985\C,0,32.6077361435,-32.3191904303,38.6030009604\
 C,0,34.9268531588,-32.3995135048,37.58885294\H,0,32.8903469956,-30.046
 1447284,40.3167800024\H,0,35.5866948028,-30.7761576169,39.6325086371\H
 ,0,33.7850051122,-30.6253024783,37.9977784752\H,0,31.89921667,-31.7836
 499164,39.2463385352\H,0,32.1426240181,-32.4100526489,37.616669624\H,0
 ,32.7333397388,-33.3325113247,39.0008463068\H,0,35.1411300416,-33.3828
 966548,38.0234249877\H,0,35.8803796859,-31.8770488118,37.4578419276\H,
 0,34.4881194949,-32.559718068,36.5992473483\N,0,34.0087838101,-33.0900
 611593,41.3721839143\C,0,34.1650135908,-33.5612136568,42.7457505872\C,
 0,32.9282934228,-33.0431481182,43.5130655368\O,0,32.0570319365,-32.388
 2625571,42.9875064748\C,0,34.3706901862,-35.0865478847,42.8863287282\C
 ,0,35.7304250874,-35.6279046668,42.4080936412\C,0,36.9532117888,-35.20
 47540603,43.2454183529\N,0,37.2829171775,-33.7953018309,42.9953486472\
 C,0,37.6812819892,-32.8915550488,43.8833069083\N,0,38.2658155815,-33.2
 849493028,45.039057955\N,0,37.4637617609,-31.5916874224,43.6466407501\
 O,0,32.8760147862,-33.3105385264,44.8273309125\H,0,33.640311115,-33.83
 57697396,45.1162994856\H,0,33.1041589862,-32.637650496,41.2593657883\H
 ,0,35.004170987,-33.0264526077,43.2009371333\H,0,33.5719840653,-35.583
 8123076,42.3252440188\H,0,34.2350030315,-35.3814129818,43.9371278068\H
 ,0,35.8962594346,-35.350326163,41.3615884534\H,0,35.6844743153,-36.722
 1994921,42.4382824171\H,0,37.8093320755,-35.8362532065,42.9793963352\H
 ,0,36.7579816742,-35.3427333208,44.3163342375\H,0,36.9804663121,-33.43
 59314614,42.073515507\H,0,38.4993212056,-32.6051262622,45.7488439893\H
 ,0,38.7776768056,-34.1558001089,45.065967453\H,0,37.9337336678,-30.882
 7994469,44.1910672989\H,0,36.734074378,-31.2710957828,42.9995318333\\V
 ersion=ES64L-G16RevC.01\HF=-1486.5838125\RMSD=8.062e-09\Dipole=3.74210
 82,-3.1907743,2.242084\Quadrupole=-454.3161073,-1283.3219455,1737.6380
 528,-4194.8444029,5620.0567085,-5069.4596977\PG=C01 [X(C20H33N6O5)]\\@
 The archive entry for this job was punched.


 LIFE IS A CONTINUAL STRUGGLE AGAINST THE TENDENCY TO PRODUCE ENTROPY.
 Job cpu time:       0 days  0 hours  1 minutes  4.8 seconds.
 Elapsed time:       0 days  0 hours  0 minutes 16.7 seconds.
 File lengths (MBytes):  RWF=    264 Int=      0 D2E=      0 Chk=     40 Scr=     16
 Normal termination of Gaussian 16 at Tue May 31 11:31:54 2022.
