 Entering Gaussian System, Link 0=/opt/software/Gaussian/g16-AVX2-C.01/g16/g16
 Input=charge-conf-496.com
 Output=charge-conf-496.log
 Initial command:
 /opt/software/Gaussian/g16-AVX2-C.01/g16/l1.exe "/mnt/gs18/scratch/users/kengmith/Gau-52716.inp" -scrdir="/mnt/gs18/scratch/users/kengmith/"
 Entering Link 1 = /opt/software/Gaussian/g16-AVX2-C.01/g16/l1.exe PID=     52726.
  
 Copyright (c) 1988-2019, Gaussian, Inc.  All Rights Reserved.
  
 This is part of the Gaussian(R) 16 program.  It is based on
 the Gaussian(R) 09 system (copyright 2009, Gaussian, Inc.),
 the Gaussian(R) 03 system (copyright 2003, Gaussian, Inc.),
 the Gaussian(R) 98 system (copyright 1998, Gaussian, Inc.),
 the Gaussian(R) 94 system (copyright 1995, Gaussian, Inc.),
 the Gaussian 92(TM) system (copyright 1992, Gaussian, Inc.),
 the Gaussian 90(TM) system (copyright 1990, Gaussian, Inc.),
 the Gaussian 88(TM) system (copyright 1988, Gaussian, Inc.),
 the Gaussian 86(TM) system (copyright 1986, Carnegie Mellon
 University), and the Gaussian 82(TM) system (copyright 1983,
 Carnegie Mellon University). Gaussian is a federally registered
 trademark of Gaussian, Inc.
  
 This software contains proprietary and confidential information,
 including trade secrets, belonging to Gaussian, Inc.
  
 This software is provided under written license and may be
 used, copied, transmitted, or stored only in accord with that
 written license.
  
 The following legend is applicable only to US Government
 contracts under FAR:
  
                    RESTRICTED RIGHTS LEGEND
  
 Use, reproduction and disclosure by the US Government is
 subject to restrictions as set forth in subparagraphs (a)
 and (c) of the Commercial Computer Software - Restricted
 Rights clause in FAR 52.227-19.
  
 Gaussian, Inc.
 340 Quinnipiac St., Bldg. 40, Wallingford CT 06492
  
  
 ---------------------------------------------------------------
 Warning -- This program may not be used in any manner that
 competes with the business of Gaussian, Inc. or will provide
 assistance to any competitor of Gaussian, Inc.  The licensee
 of this program is prohibited from giving any competitor of
 Gaussian, Inc. access to this program.  By using this program,
 the user acknowledges that Gaussian, Inc. is engaged in the
 business of creating and licensing software in the field of
 computational chemistry and represents and warrants to the
 licensee that it is not a competitor of Gaussian, Inc. and that
 it will not use this program in any manner prohibited above.
 ---------------------------------------------------------------
  

 Cite this work as:
 Gaussian 16, Revision C.01,
 M. J. Frisch, G. W. Trucks, H. B. Schlegel, G. E. Scuseria, 
 M. A. Robb, J. R. Cheeseman, G. Scalmani, V. Barone, 
 G. A. Petersson, H. Nakatsuji, X. Li, M. Caricato, A. V. Marenich, 
 J. Bloino, B. G. Janesko, R. Gomperts, B. Mennucci, H. P. Hratchian, 
 J. V. Ortiz, A. F. Izmaylov, J. L. Sonnenberg, D. Williams-Young, 
 F. Ding, F. Lipparini, F. Egidi, J. Goings, B. Peng, A. Petrone, 
 T. Henderson, D. Ranasinghe, V. G. Zakrzewski, J. Gao, N. Rega, 
 G. Zheng, W. Liang, M. Hada, M. Ehara, K. Toyota, R. Fukuda, 
 J. Hasegawa, M. Ishida, T. Nakajima, Y. Honda, O. Kitao, H. Nakai, 
 T. Vreven, K. Throssell, J. A. Montgomery, Jr., J. E. Peralta, 
 F. Ogliaro, M. J. Bearpark, J. J. Heyd, E. N. Brothers, K. N. Kudin, 
 V. N. Staroverov, T. A. Keith, R. Kobayashi, J. Normand, 
 K. Raghavachari, A. P. Rendell, J. C. Burant, S. S. Iyengar, 
 J. Tomasi, M. Cossi, J. M. Millam, M. Klene, C. Adamo, R. Cammi, 
 J. W. Ochterski, R. L. Martin, K. Morokuma, O. Farkas, 
 J. B. Foresman, and D. J. Fox, Gaussian, Inc., Wallingford CT, 2019.
 
 ******************************************
 Gaussian 16:  ES64L-G16RevC.01  3-Jul-2019
                31-May-2022 
 ******************************************
 %mem=8gb
 %nproc=4
 Will use up to    4 processors via shared memory.
 %chk=conf-496.chk
 ----------------------------------------------------------------------
 # B3LYP/6-31G* empiricaldispersion=gd3 guess=read geom=check nosymm in
 tegral(ultrafinegrid)
 ----------------------------------------------------------------------
 1/29=2,38=1,172=1/1;
 2/12=2,15=1,40=1/2;
 3/5=1,6=6,7=1,11=2,14=-4,25=1,30=1,74=-5,75=-5,116=-2,124=31/1,2,3;
 4/5=1/1;
 5/5=2,38=6/2;
 6/7=2,8=2,9=2,10=2,28=1/1;
 99/5=1,9=1/99;
 ------------------------------------------------------
 Candidate Structure: Conf:496 Charge calc in gas phase
 ------------------------------------------------------
 Structure from the checkpoint file:  "conf-496.chk"
 Charge =  1 Multiplicity = 1
 Redundant internal coordinates found in file.  (old form).
 N,0,32.7873062085,-33.2768033314,45.145994792
 C,0,33.8428472176,-33.336057974,44.1318197064
 C,0,33.4386629457,-32.5384873026,42.8901491541
 O,0,34.0560040525,-32.7144008244,41.8151538273
 C,0,35.1608258621,-32.7149519765,44.6770458764
 C,0,35.7147099959,-33.4899114752,45.8492611387
 C,0,35.5261542549,-33.0494062477,47.1679734177
 C,0,36.3962493994,-34.6973667765,45.6486734311
 C,0,35.9953698104,-33.7845196313,48.2532971246
 C,0,36.8736721791,-35.4434424009,46.7229932789
 C,0,36.6726701585,-34.9890263281,48.0335592061
 O,0,37.1112813408,-35.6654434054,49.1307416167
 H,0,34.0671346753,-34.3527049182,43.7816198738
 H,0,35.8845906373,-32.6799676179,43.8561583825
 H,0,34.9514950916,-31.6784999796,44.9705997493
 H,0,35.0163912106,-32.1053146379,47.3499713695
 H,0,36.5650021207,-35.0583146436,44.6364019478
 H,0,35.856583271,-33.4400978818,49.2727805143
 H,0,37.4081884757,-36.374532897,46.546391362
 H,0,37.579646773,-36.4692842656,48.8560496407
 H,0,32.1074152141,-34.0208639566,45.0026691479
 H,0,33.1878970946,-33.4210997983,46.071544217
 N,0,32.4676256377,-31.6380805494,43.1063702034
 C,0,31.8485669804,-30.6224943923,42.2379526889
 C,0,32.8528599693,-29.6830281393,41.5467803421
 O,0,32.6865409597,-28.4486766425,41.6412952633
 C,0,30.765277509,-31.1903033795,41.2716219171
 C,0,31.2817591623,-32.1920969439,40.2310969595
 C,0,30.0037603928,-30.0396358648,40.5956912186
 H,0,32.115683715,-31.7160234948,44.0656353801
 H,0,31.3272903215,-29.9558162986,42.9288149794
 H,0,30.0667208862,-31.7213197919,41.9326189746
 H,0,31.8382425036,-33.0157703163,40.6834128872
 H,0,30.434633929,-32.6156896427,39.6817184944
 H,0,31.9346778907,-31.7048559733,39.4974369687
 H,0,30.6478003395,-29.4954233845,39.8934407543
 H,0,29.619341283,-29.316700414,41.3232682795
 H,0,29.1565383768,-30.4336258171,40.0260632421
 N,0,33.8310119107,-30.2506323567,40.8261448014
 C,0,34.9999137396,-29.5511630922,40.3122831906
 C,0,36.3495702494,-30.0673926993,40.8742006236
 O,0,37.3301947957,-29.3837722389,40.6996685314
 C,0,35.0593660628,-29.5723652309,38.7683654574
 C,0,33.8811749367,-28.8969771926,38.0483292365
 C,0,33.8568411425,-27.3616931274,38.1090398014
 N,0,33.5117590909,-26.8874195108,39.4566360625
 C,0,34.0991410039,-25.9003054057,40.1291929685
 N,0,34.7808128205,-24.9276488668,39.4988292703
 N,0,34.0188539691,-25.8942046201,41.4695255678
 O,0,36.4165718157,-31.2410709545,41.5135199194
 H,0,35.5761914971,-31.7485575758,41.5759041533
 H,0,33.8462263658,-31.2765480246,40.8415781231
 H,0,34.9462310002,-28.5244881814,40.6702556769
 H,0,35.1086551563,-30.6197713305,38.4451853935
 H,0,36.0049843502,-29.1066395226,38.4707573115
 H,0,32.9263772022,-29.2937017721,38.4203670709
 H,0,33.9250990258,-29.1683327151,36.9875812389
 H,0,33.1262543313,-26.9722652015,37.3907210864
 H,0,34.843278409,-26.9684724369,37.8376176922
 H,0,32.9626499795,-27.5181510208,40.0506785329
 H,0,35.4151287234,-24.325638846,40.0035829255
 H,0,34.7268043806,-24.8150935711,38.4978433308
 H,0,34.1499819048,-25.0413239632,41.9939594512
 H,0,33.5779177706,-26.6910714967,41.9270000438
 Recover connectivity data from disk.
                           ----------------------------
                           !    Current Parameters    !
                           ! (Angstroms and Degrees)  !
 --------------------------                            --------------------------
 ! Name  Definition              Value                                          !
 --------------------------------------------------------------------------------
 ! R1    R(1,2)                  1.465                                          !
 ! R2    R(1,21)                 1.018                                          !
 ! R3    R(1,22)                 1.0188                                         !
 ! R4    R(2,3)                  1.5301                                         !
 ! R5    R(2,5)                  1.5557                                         !
 ! R6    R(2,13)                 1.0984                                         !
 ! R7    R(3,4)                  1.2521                                         !
 ! R8    R(3,23)                 1.3418                                         !
 ! R9    R(5,6)                  1.5104                                         !
 ! R10   R(5,14)                 1.095                                          !
 ! R11   R(5,15)                 1.0974                                         !
 ! R12   R(6,7)                  1.4031                                         !
 ! R13   R(6,8)                  1.401                                          !
 ! R14   R(7,9)                  1.3923                                         !
 ! R15   R(7,16)                 1.0883                                         !
 ! R16   R(8,10)                 1.3924                                         !
 ! R17   R(8,17)                 1.0879                                         !
 ! R18   R(9,11)                 1.3992                                         !
 ! R19   R(9,18)                 1.085                                          !
 ! R20   R(10,11)                1.4016                                         !
 ! R21   R(10,19)                1.088                                          !
 ! R22   R(11,12)                1.3615                                         !
 ! R23   R(12,20)                0.97                                           !
 ! R24   R(23,24)                1.4727                                         !
 ! R25   R(23,30)                1.0248                                         !
 ! R26   R(24,25)                1.5391                                         !
 ! R27   R(24,27)                1.5588                                         !
 ! R28   R(24,31)                1.0925                                         !
 ! R29   R(25,26)                1.2491                                         !
 ! R30   R(25,39)                1.341                                          !
 ! R31   R(27,28)                1.534                                          !
 ! R32   R(27,29)                1.5365                                         !
 ! R33   R(27,32)                1.0986                                         !
 ! R34   R(28,33)                1.0921                                         !
 ! R35   R(28,34)                1.0949                                         !
 ! R36   R(28,35)                1.0963                                         !
 ! R37   R(29,36)                1.0973                                         !
 ! R38   R(29,37)                1.0953                                         !
 ! R39   R(29,38)                1.0943                                         !
 ! R40   R(39,40)                1.4559                                         !
 ! R41   R(39,52)                1.0261                                         !
 ! R42   R(40,41)                1.5504                                         !
 ! R43   R(40,43)                1.5452                                         !
 ! R44   R(40,53)                1.0886                                         !
 ! R45   R(41,42)                1.2081                                         !
 ! R46   R(41,50)                1.3382                                         !
 ! R47   R(43,44)                1.5371                                         !
 ! R48   R(43,54)                1.0972                                         !
 ! R49   R(43,55)                1.0953                                         !
 ! R50   R(44,45)                1.5367                                         !
 ! R51   R(44,56)                1.0988                                         !
 ! R52   R(44,57)                1.0958                                         !
 ! R53   R(45,46)                1.4697                                         !
 ! R54   R(45,58)                1.0961                                         !
 ! R55   R(45,59)                1.0961                                         !
 ! R56   R(46,47)                1.3311                                         !
 ! R57   R(46,60)                1.0258                                         !
 ! R58   R(47,48)                1.3447                                         !
 ! R59   R(47,49)                1.3427                                         !
 ! R60   R(48,61)                1.0097                                         !
 ! R61   R(48,62)                1.0087                                         !
 ! R62   R(49,63)                1.0098                                         !
 ! R63   R(49,64)                1.0192                                         !
 ! R64   R(50,51)                0.9837                                         !
 ! A1    A(2,1,21)             110.7419                                         !
 ! A2    A(2,1,22)             109.8695                                         !
 ! A3    A(21,1,22)            106.6771                                         !
 ! A4    A(1,2,3)              110.5096                                         !
 ! A5    A(1,2,5)              110.588                                          !
 ! A6    A(1,2,13)             113.9079                                         !
 ! A7    A(3,2,5)              107.4631                                         !
 ! A8    A(3,2,13)             106.1208                                         !
 ! A9    A(5,2,13)             107.9555                                         !
 ! A10   A(2,3,4)              119.5544                                         !
 ! A11   A(2,3,23)             114.2164                                         !
 ! A12   A(4,3,23)             126.1184                                         !
 ! A13   A(2,5,6)              112.1991                                         !
 ! A14   A(2,5,14)             108.0599                                         !
 ! A15   A(2,5,15)             108.013                                          !
 ! A16   A(6,5,14)             110.8441                                         !
 ! A17   A(6,5,15)             110.2997                                         !
 ! A18   A(14,5,15)            107.2453                                         !
 ! A19   A(5,6,7)              121.2687                                         !
 ! A20   A(5,6,8)              120.6291                                         !
 ! A21   A(7,6,8)              118.0695                                         !
 ! A22   A(6,7,9)              121.4396                                         !
 ! A23   A(6,7,16)             119.5053                                         !
 ! A24   A(9,7,16)             119.048                                          !
 ! A25   A(6,8,10)             121.2083                                         !
 ! A26   A(6,8,17)             119.6474                                         !
 ! A27   A(10,8,17)            119.1424                                         !
 ! A28   A(7,9,11)             119.6843                                         !
 ! A29   A(7,9,18)             121.4488                                         !
 ! A30   A(11,9,18)            118.8642                                         !
 ! A31   A(8,10,11)            119.905                                          !
 ! A32   A(8,10,19)            120.1156                                         !
 ! A33   A(11,10,19)           119.978                                          !
 ! A34   A(9,11,10)            119.693                                          !
 ! A35   A(9,11,12)            117.1973                                         !
 ! A36   A(10,11,12)           123.1096                                         !
 ! A37   A(11,12,20)           109.8182                                         !
 ! A38   A(3,23,24)            132.218                                          !
 ! A39   A(3,23,30)            110.3863                                         !
 ! A40   A(24,23,30)           117.3923                                         !
 ! A41   A(23,24,25)           114.2961                                         !
 ! A42   A(23,24,27)           113.9851                                         !
 ! A43   A(23,24,31)           104.3892                                         !
 ! A44   A(25,24,27)           113.4174                                         !
 ! A45   A(25,24,31)           102.8761                                         !
 ! A46   A(27,24,31)           106.4231                                         !
 ! A47   A(24,25,26)           118.8373                                         !
 ! A48   A(24,25,39)           117.3172                                         !
 ! A49   A(26,25,39)           123.784                                          !
 ! A50   A(24,27,28)           115.114                                          !
 ! A51   A(24,27,29)           110.1429                                         !
 ! A52   A(24,27,32)           104.1808                                         !
 ! A53   A(28,27,29)           110.9498                                         !
 ! A54   A(28,27,32)           107.852                                          !
 ! A55   A(29,27,32)           108.1513                                         !
 ! A56   A(27,28,33)           112.5306                                         !
 ! A57   A(27,28,34)           109.421                                          !
 ! A58   A(27,28,35)           111.3586                                         !
 ! A59   A(33,28,34)           108.0748                                         !
 ! A60   A(33,28,35)           107.992                                          !
 ! A61   A(34,28,35)           107.2733                                         !
 ! A62   A(27,29,36)           111.2264                                         !
 ! A63   A(27,29,37)           112.0862                                         !
 ! A64   A(27,29,38)           110.0647                                         !
 ! A65   A(36,29,37)           107.6831                                         !
 ! A66   A(36,29,38)           107.4475                                         !
 ! A67   A(37,29,38)           108.1604                                         !
 ! A68   A(25,39,40)           124.8863                                         !
 ! A69   A(25,39,52)           115.2082                                         !
 ! A70   A(40,39,52)           118.277                                          !
 ! A71   A(39,40,41)           114.269                                          !
 ! A72   A(39,40,43)           112.1452                                         !
 ! A73   A(39,40,53)           107.3044                                         !
 ! A74   A(41,40,43)           108.9089                                         !
 ! A75   A(41,40,53)           103.7546                                         !
 ! A76   A(43,40,53)           110.0839                                         !
 ! A77   A(40,41,42)           117.7647                                         !
 ! A78   A(40,41,50)           120.5816                                         !
 ! A79   A(42,41,50)           121.6477                                         !
 ! A80   A(40,43,44)           115.6277                                         !
 ! A81   A(40,43,54)           108.0062                                         !
 ! A82   A(40,43,55)           107.3899                                         !
 ! A83   A(44,43,54)           108.4145                                         !
 ! A84   A(44,43,55)           110.343                                          !
 ! A85   A(54,43,55)           106.6833                                         !
 ! A86   A(43,44,45)           115.6338                                         !
 ! A87   A(43,44,56)           110.4129                                         !
 ! A88   A(43,44,57)           108.2957                                         !
 ! A89   A(45,44,56)           109.4861                                         !
 ! A90   A(45,44,57)           106.636                                          !
 ! A91   A(56,44,57)           105.8531                                         !
 ! A92   A(44,45,46)           111.2446                                         !
 ! A93   A(44,45,58)           109.8545                                         !
 ! A94   A(44,45,59)           109.5359                                         !
 ! A95   A(46,45,58)           109.2535                                         !
 ! A96   A(46,45,59)           108.8203                                         !
 ! A97   A(58,45,59)           108.067                                          !
 ! A98   A(45,46,47)           126.798                                          !
 ! A99   A(45,46,60)           117.2751                                         !
 ! A100  A(47,46,60)           113.5534                                         !
 ! A101  A(46,47,48)           121.5521                                         !
 ! A102  A(46,47,49)           118.7736                                         !
 ! A103  A(48,47,49)           119.6681                                         !
 ! A104  A(47,48,61)           121.0237                                         !
 ! A105  A(47,48,62)           121.2489                                         !
 ! A106  A(61,48,62)           117.591                                          !
 ! A107  A(47,49,63)           120.964                                          !
 ! A108  A(47,49,64)           118.0589                                         !
 ! A109  A(63,49,64)           118.9114                                         !
 ! A110  A(41,50,51)           116.1037                                         !
 ! D1    D(21,1,2,3)            87.7901                                         !
 ! D2    D(21,1,2,5)          -153.343                                          !
 ! D3    D(21,1,2,13)          -31.5576                                         !
 ! D4    D(22,1,2,3)          -154.6191                                         !
 ! D5    D(22,1,2,5)           -35.7523                                         !
 ! D6    D(22,1,2,13)           86.0332                                         !
 ! D7    D(1,2,3,4)           -163.8214                                         !
 ! D8    D(1,2,3,23)            19.773                                          !
 ! D9    D(5,2,3,4)             75.4305                                         !
 ! D10   D(5,2,3,23)          -100.9751                                         !
 ! D11   D(13,2,3,4)           -39.8675                                         !
 ! D12   D(13,2,3,23)          143.7268                                         !
 ! D13   D(1,2,5,6)             63.6174                                         !
 ! D14   D(1,2,5,14)          -173.8833                                         !
 ! D15   D(1,2,5,15)           -58.1662                                         !
 ! D16   D(3,2,5,6)           -175.684                                          !
 ! D17   D(3,2,5,14)           -53.1846                                         !
 ! D18   D(3,2,5,15)            62.5324                                         !
 ! D19   D(13,2,5,6)           -61.6092                                         !
 ! D20   D(13,2,5,14)           60.8902                                         !
 ! D21   D(13,2,5,15)          176.6073                                         !
 ! D22   D(2,3,23,24)          175.5665                                         !
 ! D23   D(2,3,23,30)           -5.1401                                         !
 ! D24   D(4,3,23,24)           -0.5625                                         !
 ! D25   D(4,3,23,30)          178.7309                                         !
 ! D26   D(2,5,6,7)           -100.5419                                         !
 ! D27   D(2,5,6,8)             77.3383                                         !
 ! D28   D(14,5,6,7)           138.5509                                         !
 ! D29   D(14,5,6,8)           -43.5689                                         !
 ! D30   D(15,5,6,7)            19.926                                          !
 ! D31   D(15,5,6,8)          -162.1938                                         !
 ! D32   D(5,6,7,9)            177.7672                                         !
 ! D33   D(5,6,7,16)            -3.2164                                         !
 ! D34   D(8,6,7,9)             -0.1656                                         !
 ! D35   D(8,6,7,16)           178.8507                                         !
 ! D36   D(5,6,8,10)          -177.8842                                         !
 ! D37   D(5,6,8,17)             2.6291                                         !
 ! D38   D(7,6,8,10)             0.0625                                         !
 ! D39   D(7,6,8,17)          -179.4242                                         !
 ! D40   D(6,7,9,11)             0.1005                                         !
 ! D41   D(6,7,9,18)           179.5061                                         !
 ! D42   D(16,7,9,11)         -178.9203                                         !
 ! D43   D(16,7,9,18)            0.4854                                         !
 ! D44   D(6,8,10,11)            0.1041                                         !
 ! D45   D(6,8,10,19)         -179.4721                                         !
 ! D46   D(17,8,10,11)         179.5934                                         !
 ! D47   D(17,8,10,19)           0.0171                                         !
 ! D48   D(7,9,11,10)            0.0701                                         !
 ! D49   D(7,9,11,12)          179.9036                                         !
 ! D50   D(18,9,11,10)        -179.351                                          !
 ! D51   D(18,9,11,12)           0.4825                                         !
 ! D52   D(8,10,11,9)           -0.1709                                         !
 ! D53   D(8,10,11,12)        -179.9941                                         !
 ! D54   D(19,10,11,9)         179.4059                                         !
 ! D55   D(19,10,11,12)         -0.4173                                         !
 ! D56   D(9,11,12,20)        -178.7757                                         !
 ! D57   D(10,11,12,20)          1.0516                                         !
 ! D58   D(3,23,24,25)         -52.4424                                         !
 ! D59   D(3,23,24,27)          80.2535                                         !
 ! D60   D(3,23,24,31)        -164.0492                                         !
 ! D61   D(30,23,24,25)        128.3035                                         !
 ! D62   D(30,23,24,27)        -99.0005                                         !
 ! D63   D(30,23,24,31)         16.6968                                         !
 ! D64   D(23,24,25,26)       -128.2582                                         !
 ! D65   D(23,24,25,39)         54.4825                                         !
 ! D66   D(27,24,25,26)         98.777                                          !
 ! D67   D(27,24,25,39)        -78.4823                                         !
 ! D68   D(31,24,25,26)        -15.7458                                         !
 ! D69   D(31,24,25,39)        166.9949                                         !
 ! D70   D(23,24,27,28)        -63.8628                                         !
 ! D71   D(23,24,27,29)        169.8002                                         !
 ! D72   D(23,24,27,32)         54.0189                                         !
 ! D73   D(25,24,27,28)         69.2513                                         !
 ! D74   D(25,24,27,29)        -57.0858                                         !
 ! D75   D(25,24,27,32)       -172.867                                          !
 ! D76   D(31,24,27,28)       -178.3635                                         !
 ! D77   D(31,24,27,29)         55.2995                                         !
 ! D78   D(31,24,27,32)        -60.4818                                         !
 ! D79   D(24,25,39,40)       -168.1032                                         !
 ! D80   D(24,25,39,52)         -2.9676                                         !
 ! D81   D(26,25,39,40)         14.7855                                         !
 ! D82   D(26,25,39,52)        179.9212                                         !
 ! D83   D(24,27,28,33)         53.39                                           !
 ! D84   D(24,27,28,34)        173.5502                                         !
 ! D85   D(24,27,28,35)        -68.0294                                         !
 ! D86   D(29,27,28,33)        179.3127                                         !
 ! D87   D(29,27,28,34)        -60.527                                          !
 ! D88   D(29,27,28,35)         57.8934                                         !
 ! D89   D(32,27,28,33)        -62.4087                                         !
 ! D90   D(32,27,28,34)         57.7516                                         !
 ! D91   D(32,27,28,35)        176.172                                          !
 ! D92   D(24,27,29,36)         68.7989                                         !
 ! D93   D(24,27,29,37)        -51.8163                                         !
 ! D94   D(24,27,29,38)       -172.2343                                         !
 ! D95   D(28,27,29,36)        -59.8467                                         !
 ! D96   D(28,27,29,37)        179.5381                                         !
 ! D97   D(28,27,29,38)         59.1201                                         !
 ! D98   D(32,27,29,36)       -177.9438                                         !
 ! D99   D(32,27,29,37)         61.441                                          !
 ! D100  D(32,27,29,38)        -58.977                                          !
 ! D101  D(25,39,40,41)        117.5655                                         !
 ! D102  D(25,39,40,43)       -117.8736                                         !
 ! D103  D(25,39,40,53)          3.1315                                         !
 ! D104  D(52,39,40,41)        -47.1536                                         !
 ! D105  D(52,39,40,43)         77.4073                                         !
 ! D106  D(52,39,40,53)       -161.5876                                         !
 ! D107  D(39,40,41,42)       -166.1182                                         !
 ! D108  D(39,40,41,50)         14.7638                                         !
 ! D109  D(43,40,41,42)         67.6162                                         !
 ! D110  D(43,40,41,50)       -111.5018                                         !
 ! D111  D(53,40,41,42)        -49.613                                          !
 ! D112  D(53,40,41,50)        131.269                                          !
 ! D113  D(39,40,43,44)         61.2244                                         !
 ! D114  D(39,40,43,54)        -60.3984                                         !
 ! D115  D(39,40,43,55)       -175.1145                                         !
 ! D116  D(41,40,43,44)       -171.296                                          !
 ! D117  D(41,40,43,54)         67.0812                                         !
 ! D118  D(41,40,43,55)        -47.6349                                         !
 ! D119  D(53,40,43,44)        -58.1643                                         !
 ! D120  D(53,40,43,54)       -179.7872                                         !
 ! D121  D(53,40,43,55)         65.4967                                         !
 ! D122  D(40,41,50,51)          1.6429                                         !
 ! D123  D(42,41,50,51)       -177.4403                                         !
 ! D124  D(40,43,44,45)         72.7606                                         !
 ! D125  D(40,43,44,56)        -52.2243                                         !
 ! D126  D(40,43,44,57)       -167.6945                                         !
 ! D127  D(54,43,44,45)       -165.8356                                         !
 ! D128  D(54,43,44,56)         69.1794                                         !
 ! D129  D(54,43,44,57)        -46.2908                                         !
 ! D130  D(55,43,44,45)        -49.339                                          !
 ! D131  D(55,43,44,56)       -174.324                                          !
 ! D132  D(55,43,44,57)         70.2058                                         !
 ! D133  D(43,44,45,46)        -71.6524                                         !
 ! D134  D(43,44,45,58)        167.2476                                         !
 ! D135  D(43,44,45,59)         48.693                                          !
 ! D136  D(56,44,45,46)         53.8091                                         !
 ! D137  D(56,44,45,58)        -67.291                                          !
 ! D138  D(56,44,45,59)        174.1545                                         !
 ! D139  D(57,44,45,46)        167.8981                                         !
 ! D140  D(57,44,45,58)         46.798                                          !
 ! D141  D(57,44,45,59)        -71.7565                                         !
 ! D142  D(44,45,46,47)        135.9981                                         !
 ! D143  D(44,45,46,60)        -25.2898                                         !
 ! D144  D(58,45,46,47)       -102.5504                                         !
 ! D145  D(58,45,46,60)         96.1617                                         !
 ! D146  D(59,45,46,47)         15.2311                                         !
 ! D147  D(59,45,46,60)       -146.0568                                         !
 ! D148  D(45,46,47,48)         22.8363                                         !
 ! D149  D(45,46,47,49)       -156.2508                                         !
 ! D150  D(60,46,47,48)       -175.2867                                         !
 ! D151  D(60,46,47,49)          5.6261                                         !
 ! D152  D(46,47,48,61)       -164.0798                                         !
 ! D153  D(46,47,48,62)         11.5731                                         !
 ! D154  D(49,47,48,61)         14.9994                                         !
 ! D155  D(49,47,48,62)       -169.3478                                         !
 ! D156  D(46,47,49,63)       -158.3196                                         !
 ! D157  D(46,47,49,64)          5.1596                                         !
 ! D158  D(48,47,49,63)         22.5756                                         !
 ! D159  D(48,47,49,64)       -173.9451                                         !
 --------------------------------------------------------------------------------
 Symmetry turned off by external request.
 Stoichiometry    C20H33N6O5(1+)
 Framework group  C1[X(C20H33N6O5)]
 Deg. of freedom   186
 Full point group                 C1      NOp   1
                          Input orientation:                          
 ---------------------------------------------------------------------
 Center     Atomic      Atomic             Coordinates (Angstroms)
 Number     Number       Type             X           Y           Z
 ---------------------------------------------------------------------
      1          7           0       32.787306  -33.276803   45.145995
      2          6           0       33.842847  -33.336058   44.131820
      3          6           0       33.438663  -32.538487   42.890149
      4          8           0       34.056004  -32.714401   41.815154
      5          6           0       35.160826  -32.714952   44.677046
      6          6           0       35.714710  -33.489911   45.849261
      7          6           0       35.526154  -33.049406   47.167973
      8          6           0       36.396249  -34.697367   45.648673
      9          6           0       35.995370  -33.784520   48.253297
     10          6           0       36.873672  -35.443442   46.722993
     11          6           0       36.672670  -34.989026   48.033559
     12          8           0       37.111281  -35.665443   49.130742
     13          1           0       34.067135  -34.352705   43.781620
     14          1           0       35.884591  -32.679968   43.856158
     15          1           0       34.951495  -31.678500   44.970600
     16          1           0       35.016391  -32.105315   47.349971
     17          1           0       36.565002  -35.058315   44.636402
     18          1           0       35.856583  -33.440098   49.272781
     19          1           0       37.408188  -36.374533   46.546391
     20          1           0       37.579647  -36.469284   48.856050
     21          1           0       32.107415  -34.020864   45.002669
     22          1           0       33.187897  -33.421100   46.071544
     23          7           0       32.467626  -31.638081   43.106370
     24          6           0       31.848567  -30.622494   42.237953
     25          6           0       32.852860  -29.683028   41.546780
     26          8           0       32.686541  -28.448677   41.641295
     27          6           0       30.765278  -31.190303   41.271622
     28          6           0       31.281759  -32.192097   40.231097
     29          6           0       30.003760  -30.039636   40.595691
     30          1           0       32.115684  -31.716023   44.065635
     31          1           0       31.327290  -29.955816   42.928815
     32          1           0       30.066721  -31.721320   41.932619
     33          1           0       31.838243  -33.015770   40.683413
     34          1           0       30.434634  -32.615690   39.681718
     35          1           0       31.934678  -31.704856   39.497437
     36          1           0       30.647800  -29.495423   39.893441
     37          1           0       29.619341  -29.316700   41.323268
     38          1           0       29.156538  -30.433626   40.026063
     39          7           0       33.831012  -30.250632   40.826145
     40          6           0       34.999914  -29.551163   40.312283
     41          6           0       36.349570  -30.067393   40.874201
     42          8           0       37.330195  -29.383772   40.699669
     43          6           0       35.059366  -29.572365   38.768365
     44          6           0       33.881175  -28.896977   38.048329
     45          6           0       33.856841  -27.361693   38.109040
     46          7           0       33.511759  -26.887420   39.456636
     47          6           0       34.099141  -25.900305   40.129193
     48          7           0       34.780813  -24.927649   39.498829
     49          7           0       34.018854  -25.894205   41.469526
     50          8           0       36.416572  -31.241071   41.513520
     51          1           0       35.576191  -31.748558   41.575904
     52          1           0       33.846226  -31.276548   40.841578
     53          1           0       34.946231  -28.524488   40.670256
     54          1           0       35.108655  -30.619771   38.445185
     55          1           0       36.004984  -29.106640   38.470757
     56          1           0       32.926377  -29.293702   38.420367
     57          1           0       33.925099  -29.168333   36.987581
     58          1           0       33.126254  -26.972265   37.390721
     59          1           0       34.843278  -26.968472   37.837618
     60          1           0       32.962650  -27.518151   40.050679
     61          1           0       35.415129  -24.325639   40.003583
     62          1           0       34.726804  -24.815094   38.497843
     63          1           0       34.149982  -25.041324   41.993959
     64          1           0       33.577918  -26.691071   41.927000
 ---------------------------------------------------------------------
 Rotational constants (GHZ):           0.2456253           0.0637624           0.0583987
 Standard basis: 6-31G(d) (6D, 7F)
   531 basis functions,  1000 primitive gaussians,   531 cartesian basis functions
   117 alpha electrons      117 beta electrons
       nuclear repulsion energy      3282.6436752604 Hartrees.
 NAtoms=   64 NActive=   64 NUniq=   64 SFac= 1.00D+00 NAtFMM=   60 NAOKFM=T Big=T
 Integral buffers will be    131072 words long.
 Raffenetti 2 integral format.
 Two-electron integral symmetry is turned off.
 Nuclear repulsion after empirical dispersion term =     3282.5615742129 Hartrees.
 One-electron integrals computed using PRISM.
 NBasis=   531 RedAO= T EigKep=  4.34D-04  NBF=   531
 NBsUse=   531 1.00D-06 EigRej= -1.00D+00 NBFU=   531
 Initial guess from the checkpoint file:  "conf-496.chk"
 B after Tr=     0.000000    0.000000    0.000000
         Rot=    1.000000    0.000000    0.000000    0.000000 Ang=   0.00 deg.
 Requested convergence on RMS density matrix=1.00D-08 within 128 cycles.
 Requested convergence on MAX density matrix=1.00D-06.
 Requested convergence on             energy=1.00D-06.
 No special actions if energy rises.
 SCF Done:  E(RB3LYP) =  -1486.58472224     A.U. after    2 cycles
            NFock=  2  Conv=0.70D-08     -V/T= 2.0094

 **********************************************************************

            Population analysis using the SCF Density.

 **********************************************************************

 Alpha  occ. eigenvalues --  -19.27424 -19.25079 -19.24347 -19.23792 -19.21724
 Alpha  occ. eigenvalues --  -14.52087 -14.50730 -14.50723 -14.47850 -14.47600
 Alpha  occ. eigenvalues --  -14.42269 -10.47735 -10.41827 -10.40860 -10.40187
 Alpha  occ. eigenvalues --  -10.36118 -10.35158 -10.34935 -10.32332 -10.31901
 Alpha  occ. eigenvalues --  -10.31337 -10.30489 -10.30296 -10.28128 -10.27474
 Alpha  occ. eigenvalues --  -10.26893 -10.26628 -10.26406 -10.26398 -10.26027
 Alpha  occ. eigenvalues --  -10.25429  -1.18377  -1.16641  -1.15984  -1.14879
 Alpha  occ. eigenvalues --   -1.12510  -1.10097  -1.05597  -1.05110  -1.04369
 Alpha  occ. eigenvalues --   -1.04270  -0.99097  -0.92490  -0.92327  -0.91078
 Alpha  occ. eigenvalues --   -0.87266  -0.85760  -0.83224  -0.81877  -0.80820
 Alpha  occ. eigenvalues --   -0.79495  -0.78152  -0.77889  -0.74186  -0.73663
 Alpha  occ. eigenvalues --   -0.72433  -0.71577  -0.70311  -0.69917  -0.69348
 Alpha  occ. eigenvalues --   -0.68664  -0.68355  -0.65841  -0.65159  -0.64921
 Alpha  occ. eigenvalues --   -0.64770  -0.63447  -0.61381  -0.61362  -0.60424
 Alpha  occ. eigenvalues --   -0.60006  -0.59209  -0.57809  -0.57198  -0.56734
 Alpha  occ. eigenvalues --   -0.56159  -0.55731  -0.55165  -0.54645  -0.54142
 Alpha  occ. eigenvalues --   -0.53431  -0.52943  -0.52676  -0.52017  -0.51965
 Alpha  occ. eigenvalues --   -0.50956  -0.50517  -0.50467  -0.50215  -0.49256
 Alpha  occ. eigenvalues --   -0.48840  -0.48413  -0.47871  -0.47574  -0.46986
 Alpha  occ. eigenvalues --   -0.46742  -0.46363  -0.45890  -0.45127  -0.44743
 Alpha  occ. eigenvalues --   -0.44098  -0.43834  -0.43468  -0.42772  -0.42702
 Alpha  occ. eigenvalues --   -0.40648  -0.40355  -0.40083  -0.39971  -0.39687
 Alpha  occ. eigenvalues --   -0.39214  -0.37779  -0.36434  -0.35006  -0.34840
 Alpha  occ. eigenvalues --   -0.32335  -0.28771
 Alpha virt. eigenvalues --   -0.11975  -0.11484  -0.09859  -0.07979  -0.07565
 Alpha virt. eigenvalues --   -0.07189  -0.05788  -0.04211  -0.03723  -0.02157
 Alpha virt. eigenvalues --   -0.01839  -0.00556  -0.00110   0.00800   0.00967
 Alpha virt. eigenvalues --    0.01425   0.01900   0.02526   0.02617   0.03113
 Alpha virt. eigenvalues --    0.04133   0.04207   0.04695   0.05548   0.05863
 Alpha virt. eigenvalues --    0.06032   0.06463   0.07000   0.07452   0.07684
 Alpha virt. eigenvalues --    0.08064   0.08115   0.08641   0.08760   0.08891
 Alpha virt. eigenvalues --    0.09347   0.09680   0.10450   0.10588   0.11118
 Alpha virt. eigenvalues --    0.11344   0.12207   0.12275   0.12823   0.12956
 Alpha virt. eigenvalues --    0.13277   0.13660   0.14861   0.15265   0.16356
 Alpha virt. eigenvalues --    0.16933   0.17169   0.17402   0.18009   0.18882
 Alpha virt. eigenvalues --    0.19566   0.19881   0.23515   0.24285   0.24434
 Alpha virt. eigenvalues --    0.25443   0.26065   0.26762   0.27513   0.27825
 Alpha virt. eigenvalues --    0.28779   0.31179   0.31899   0.35351   0.36786
 Alpha virt. eigenvalues --    0.37831   0.38407   0.39652   0.40079   0.40390
 Alpha virt. eigenvalues --    0.41267   0.41630   0.41964   0.42774   0.43570
 Alpha virt. eigenvalues --    0.44102   0.44734   0.44949   0.45697   0.45903
 Alpha virt. eigenvalues --    0.46247   0.46663   0.46996   0.47554   0.47859
 Alpha virt. eigenvalues --    0.48572   0.49167   0.49877   0.50101   0.50910
 Alpha virt. eigenvalues --    0.51415   0.51782   0.52365   0.52893   0.53125
 Alpha virt. eigenvalues --    0.53491   0.53922   0.54265   0.54718   0.54878
 Alpha virt. eigenvalues --    0.55503   0.56123   0.56657   0.57038   0.57382
 Alpha virt. eigenvalues --    0.58410   0.58523   0.59203   0.60203   0.61366
 Alpha virt. eigenvalues --    0.61656   0.62327   0.62768   0.63126   0.63716
 Alpha virt. eigenvalues --    0.64523   0.64658   0.67350   0.67530   0.68027
 Alpha virt. eigenvalues --    0.69016   0.69264   0.69662   0.70368   0.71122
 Alpha virt. eigenvalues --    0.71850   0.71961   0.72343   0.72945   0.73108
 Alpha virt. eigenvalues --    0.73916   0.74249   0.74470   0.75119   0.75351
 Alpha virt. eigenvalues --    0.76029   0.76350   0.76453   0.76974   0.78387
 Alpha virt. eigenvalues --    0.79142   0.79420   0.79787   0.80094   0.80598
 Alpha virt. eigenvalues --    0.81293   0.81631   0.82246   0.82629   0.82874
 Alpha virt. eigenvalues --    0.83075   0.83816   0.83965   0.84187   0.84363
 Alpha virt. eigenvalues --    0.84934   0.85543   0.85755   0.86596   0.87058
 Alpha virt. eigenvalues --    0.87665   0.88145   0.89521   0.90117   0.90367
 Alpha virt. eigenvalues --    0.91323   0.92574   0.93078   0.93614   0.94720
 Alpha virt. eigenvalues --    0.95489   0.95689   0.97398   0.98096   0.98640
 Alpha virt. eigenvalues --    0.99665   0.99824   1.00576   1.01507   1.01574
 Alpha virt. eigenvalues --    1.02686   1.03590   1.04746   1.05634   1.06814
 Alpha virt. eigenvalues --    1.08499   1.09025   1.09338   1.10522   1.11700
 Alpha virt. eigenvalues --    1.12180   1.12735   1.13913   1.15081   1.16177
 Alpha virt. eigenvalues --    1.16427   1.17657   1.18198   1.18931   1.19506
 Alpha virt. eigenvalues --    1.19776   1.22088   1.23866   1.24619   1.26884
 Alpha virt. eigenvalues --    1.27041   1.28998   1.29241   1.30136   1.30447
 Alpha virt. eigenvalues --    1.31357   1.33057   1.34235   1.34671   1.36084
 Alpha virt. eigenvalues --    1.37501   1.37874   1.38362   1.39052   1.39838
 Alpha virt. eigenvalues --    1.40239   1.41810   1.43027   1.44163   1.44892
 Alpha virt. eigenvalues --    1.46689   1.47072   1.47941   1.48339   1.50105
 Alpha virt. eigenvalues --    1.51589   1.52568   1.53716   1.55879   1.56629
 Alpha virt. eigenvalues --    1.57333   1.58067   1.59750   1.60033   1.62376
 Alpha virt. eigenvalues --    1.62779   1.63400   1.64585   1.66021   1.66457
 Alpha virt. eigenvalues --    1.67001   1.67578   1.68485   1.68995   1.69146
 Alpha virt. eigenvalues --    1.70182   1.70660   1.70946   1.71129   1.71883
 Alpha virt. eigenvalues --    1.72659   1.74146   1.74439   1.75521   1.76368
 Alpha virt. eigenvalues --    1.76943   1.78341   1.79697   1.80249   1.80440
 Alpha virt. eigenvalues --    1.80878   1.81920   1.82685   1.83364   1.83894
 Alpha virt. eigenvalues --    1.84752   1.85509   1.85842   1.86509   1.86891
 Alpha virt. eigenvalues --    1.87515   1.88941   1.89200   1.89879   1.89996
 Alpha virt. eigenvalues --    1.90498   1.90579   1.91132   1.91757   1.92889
 Alpha virt. eigenvalues --    1.94279   1.95441   1.96027   1.97355   1.98705
 Alpha virt. eigenvalues --    1.98925   1.99882   2.00532   2.01054   2.01897
 Alpha virt. eigenvalues --    2.02765   2.03787   2.05210   2.05759   2.06149
 Alpha virt. eigenvalues --    2.07374   2.07568   2.08848   2.09937   2.10857
 Alpha virt. eigenvalues --    2.14248   2.14928   2.16045   2.16875   2.18509
 Alpha virt. eigenvalues --    2.19399   2.19865   2.20877   2.22342   2.23009
 Alpha virt. eigenvalues --    2.23520   2.24130   2.24660   2.26248   2.26413
 Alpha virt. eigenvalues --    2.27113   2.29492   2.30230   2.31606   2.32424
 Alpha virt. eigenvalues --    2.33514   2.34021   2.34522   2.35468   2.36850
 Alpha virt. eigenvalues --    2.37679   2.40307   2.40497   2.41558   2.42288
 Alpha virt. eigenvalues --    2.42972   2.43881   2.45594   2.46569   2.47004
 Alpha virt. eigenvalues --    2.47789   2.50875   2.51824   2.52562   2.53679
 Alpha virt. eigenvalues --    2.53831   2.54512   2.55765   2.57012   2.57545
 Alpha virt. eigenvalues --    2.58917   2.59279   2.59520   2.60831   2.63213
 Alpha virt. eigenvalues --    2.63979   2.64722   2.66078   2.68644   2.71492
 Alpha virt. eigenvalues --    2.72652   2.72902   2.75692   2.82217   2.82536
 Alpha virt. eigenvalues --    2.83062   2.87284   2.89038   2.90421   2.90837
 Alpha virt. eigenvalues --    2.93281   2.94388   2.96446   3.01863   3.05023
 Alpha virt. eigenvalues --    3.07630   3.09711   3.34480   3.66212   3.74426
 Alpha virt. eigenvalues --    3.78053   3.84634   3.87520   3.89159   3.90619
 Alpha virt. eigenvalues --    3.98946   4.03457   4.04392   4.05457   4.05988
 Alpha virt. eigenvalues --    4.10865   4.12781   4.15095   4.16883   4.18269
 Alpha virt. eigenvalues --    4.20198   4.20967   4.22467   4.26447   4.29707
 Alpha virt. eigenvalues --    4.31959   4.38204   4.41919   4.43247   4.46887
 Alpha virt. eigenvalues --    4.54383   4.59439   4.63009   4.68512
          Condensed to atoms (all electrons):
 Mulliken charges:
               1
     1  N   -0.771043
     2  C   -0.036326
     3  C    0.617279
     4  O   -0.599827
     5  C   -0.385301
     6  C    0.157348
     7  C   -0.206649
     8  C   -0.185636
     9  C   -0.155443
    10  C   -0.188874
    11  C    0.355657
    12  O   -0.630559
    13  H    0.171990
    14  H    0.186321
    15  H    0.152473
    16  H    0.133545
    17  H    0.138990
    18  H    0.156382
    19  H    0.137260
    20  H    0.416007
    21  H    0.326439
    22  H    0.339053
    23  N   -0.603667
    24  C   -0.052983
    25  C    0.610156
    26  O   -0.589156
    27  C   -0.081896
    28  C   -0.470441
    29  C   -0.457648
    30  H    0.382212
    31  H    0.186911
    32  H    0.155515
    33  H    0.177169
    34  H    0.168918
    35  H    0.140710
    36  H    0.138832
    37  H    0.161537
    38  H    0.172759
    39  N   -0.606175
    40  C   -0.094430
    41  C    0.596972
    42  O   -0.444008
    43  C   -0.270625
    44  C   -0.316774
    45  C   -0.151091
    46  N   -0.609541
    47  C    0.790956
    48  N   -0.757887
    49  N   -0.776356
    50  O   -0.592354
    51  H    0.455562
    52  H    0.394842
    53  H    0.175259
    54  H    0.170391
    55  H    0.187566
    56  H    0.169230
    57  H    0.185009
    58  H    0.191068
    59  H    0.173297
    60  H    0.402540
    61  H    0.383877
    62  H    0.385606
    63  H    0.371278
    64  H    0.417771
 Sum of Mulliken charges =   1.00000
 Mulliken charges with hydrogens summed into heavy atoms:
               1
     1  N   -0.105551
     2  C    0.135664
     3  C    0.617279
     4  O   -0.599827
     5  C   -0.046507
     6  C    0.157348
     7  C   -0.073104
     8  C   -0.046646
     9  C    0.000939
    10  C   -0.051614
    11  C    0.355657
    12  O   -0.214552
    23  N   -0.221454
    24  C    0.133928
    25  C    0.610156
    26  O   -0.589156
    27  C    0.073619
    28  C    0.016356
    29  C    0.015480
    39  N   -0.211333
    40  C    0.080829
    41  C    0.596972
    42  O   -0.444008
    43  C    0.087332
    44  C    0.037465
    45  C    0.213275
    46  N   -0.207001
    47  C    0.790956
    48  N    0.011597
    49  N    0.012694
    50  O   -0.136792
 Electronic spatial extent (au):  <R**2>=        3304113.8388
 Charge=              1.0000 electrons
 Dipole moment (field-independent basis, Debye):
    X=            159.5008    Y=           -137.6975    Z=            197.7295  Tot=            288.9603
 Quadrupole moment (field-independent basis, Debye-Ang):
   XX=           5114.7818   YY=           3866.1149   ZZ=           8005.2021
   XY=          -4565.2198   XZ=           6567.5943   YZ=          -5716.3408
 Traceless Quadrupole moment (field-independent basis, Debye-Ang):
   XX=           -547.2511   YY=          -1795.9180   ZZ=           2343.1691
   XY=          -4565.2198   XZ=           6567.5943   YZ=          -5716.3408
 Octapole moment (field-independent basis, Debye-Ang**2):
  XXX=         157135.2837  YYY=        -105242.0284  ZZZ=         317759.1007  XYY=         128008.9444
  XXY=        -145807.3027  XXZ=         210464.0929  XZZ=         265848.9703  YZZ=        -233160.5566
  YYZ=         161920.5724  XYZ=        -189696.8884
 Hexadecapole moment (field-independent basis, Debye-Ang**3):
 XXXX=        4547358.3986 YYYY=        2726523.5876 ZZZZ=       12297625.4408 XXXY=       -4445155.5093
 XXXZ=        6452453.5440 YYYX=       -3479942.1485 YYYZ=       -4449651.0242 ZZZX=       10544295.3939
 ZZZY=       -9314544.4380 XXYY=        4067552.6791 XXZZ=        8501967.3047 YYZZ=        6650586.4810
 XXYZ=       -6059976.4400 YYXZ=        5370663.6825 ZZXY=       -7741375.0156
 N-N= 3.282561574213D+03 E-N=-1.000259890559D+04  KE= 1.472686707526D+03
 Unable to Open any file for archive entry.
 1\1\GINC-AMR-083\SP\RB3LYP\6-31G(d)\C20H33N6O5(1+)\KENGMITH\31-May-202
 2\0\\# B3LYP/6-31G* empiricaldispersion=gd3 guess=read geom=check nosy
 mm integral(ultrafinegrid)\\Candidate Structure: Conf:496 Charge calc 
 in gas phase\\1,1\N,0,32.7873062085,-33.2768033314,45.145994792\C,0,33
 .8428472176,-33.336057974,44.1318197064\C,0,33.4386629457,-32.53848730
 26,42.8901491541\O,0,34.0560040525,-32.7144008244,41.8151538273\C,0,35
 .1608258621,-32.7149519765,44.6770458764\C,0,35.7147099959,-33.4899114
 752,45.8492611387\C,0,35.5261542549,-33.0494062477,47.1679734177\C,0,3
 6.3962493994,-34.6973667765,45.6486734311\C,0,35.9953698104,-33.784519
 6313,48.2532971246\C,0,36.8736721791,-35.4434424009,46.7229932789\C,0,
 36.6726701585,-34.9890263281,48.0335592061\O,0,37.1112813408,-35.66544
 34054,49.1307416167\H,0,34.0671346753,-34.3527049182,43.7816198738\H,0
 ,35.8845906373,-32.6799676179,43.8561583825\H,0,34.9514950916,-31.6784
 999796,44.9705997493\H,0,35.0163912106,-32.1053146379,47.3499713695\H,
 0,36.5650021207,-35.0583146436,44.6364019478\H,0,35.856583271,-33.4400
 978818,49.2727805143\H,0,37.4081884757,-36.374532897,46.546391362\H,0,
 37.579646773,-36.4692842656,48.8560496407\H,0,32.1074152141,-34.020863
 9566,45.0026691479\H,0,33.1878970946,-33.4210997983,46.071544217\N,0,3
 2.4676256377,-31.6380805494,43.1063702034\C,0,31.8485669804,-30.622494
 3923,42.2379526889\C,0,32.8528599693,-29.6830281393,41.5467803421\O,0,
 32.6865409597,-28.4486766425,41.6412952633\C,0,30.765277509,-31.190303
 3795,41.2716219171\C,0,31.2817591623,-32.1920969439,40.2310969595\C,0,
 30.0037603928,-30.0396358648,40.5956912186\H,0,32.115683715,-31.716023
 4948,44.0656353801\H,0,31.3272903215,-29.9558162986,42.9288149794\H,0,
 30.0667208862,-31.7213197919,41.9326189746\H,0,31.8382425036,-33.01577
 03163,40.6834128872\H,0,30.434633929,-32.6156896427,39.6817184944\H,0,
 31.9346778907,-31.7048559733,39.4974369687\H,0,30.6478003395,-29.49542
 33845,39.8934407543\H,0,29.619341283,-29.316700414,41.3232682795\H,0,2
 9.1565383768,-30.4336258171,40.0260632421\N,0,33.8310119107,-30.250632
 3567,40.8261448014\C,0,34.9999137396,-29.5511630922,40.3122831906\C,0,
 36.3495702494,-30.0673926993,40.8742006236\O,0,37.3301947957,-29.38377
 22389,40.6996685314\C,0,35.0593660628,-29.5723652309,38.7683654574\C,0
 ,33.8811749367,-28.8969771926,38.0483292365\C,0,33.8568411425,-27.3616
 931274,38.1090398014\N,0,33.5117590909,-26.8874195108,39.4566360625\C,
 0,34.0991410039,-25.9003054057,40.1291929685\N,0,34.7808128205,-24.927
 6488668,39.4988292703\N,0,34.0188539691,-25.8942046201,41.4695255678\O
 ,0,36.4165718157,-31.2410709545,41.5135199194\H,0,35.5761914971,-31.74
 85575758,41.5759041533\H,0,33.8462263658,-31.2765480246,40.8415781231\
 H,0,34.9462310002,-28.5244881814,40.6702556769\H,0,35.1086551563,-30.6
 197713305,38.4451853935\H,0,36.0049843502,-29.1066395226,38.4707573115
 \H,0,32.9263772022,-29.2937017721,38.4203670709\H,0,33.9250990258,-29.
 1683327151,36.9875812389\H,0,33.1262543313,-26.9722652015,37.390721086
 4\H,0,34.843278409,-26.9684724369,37.8376176922\H,0,32.9626499795,-27.
 5181510208,40.0506785329\H,0,35.4151287234,-24.325638846,40.0035829255
 \H,0,34.7268043806,-24.8150935711,38.4978433308\H,0,34.1499819048,-25.
 0413239632,41.9939594512\H,0,33.5779177706,-26.6910714967,41.927000043
 8\\Version=ES64L-G16RevC.01\HF=-1486.5847222\RMSD=7.041e-09\Dipole=-1.
 9743186,4.1748979,-2.4716509\Quadrupole=-406.8677777,-1335.2210266,174
 2.0888043,-3394.129036,4882.8454263,-4249.9592706\PG=C01 [X(C20H33N6O5
 )]\\@
 The archive entry for this job was punched.


 YOU KNOW YOU'VE SPOKEN TOO LONG WHEN THE AUDIENCE STOPS LOOKING AT
 THEIR WATCHES AND STARTS SHAKING THEM.
 Job cpu time:       0 days  0 hours  1 minutes 41.3 seconds.
 Elapsed time:       0 days  0 hours  0 minutes 25.8 seconds.
 File lengths (MBytes):  RWF=    264 Int=      0 D2E=      0 Chk=     40 Scr=     16
 Normal termination of Gaussian 16 at Tue May 31 11:32:03 2022.
