 Entering Gaussian System, Link 0=/opt/software/Gaussian/g16-AVX2-C.01/g16/g16
 Input=charge-conf-883.com
 Output=charge-conf-883.log
 Initial command:
 /opt/software/Gaussian/g16-AVX2-C.01/g16/l1.exe "/mnt/gs18/scratch/users/kengmith/Gau-5721.inp" -scrdir="/mnt/gs18/scratch/users/kengmith/"
 Entering Link 1 = /opt/software/Gaussian/g16-AVX2-C.01/g16/l1.exe PID=      5731.
  
 Copyright (c) 1988-2019, Gaussian, Inc.  All Rights Reserved.
  
 This is part of the Gaussian(R) 16 program.  It is based on
 the Gaussian(R) 09 system (copyright 2009, Gaussian, Inc.),
 the Gaussian(R) 03 system (copyright 2003, Gaussian, Inc.),
 the Gaussian(R) 98 system (copyright 1998, Gaussian, Inc.),
 the Gaussian(R) 94 system (copyright 1995, Gaussian, Inc.),
 the Gaussian 92(TM) system (copyright 1992, Gaussian, Inc.),
 the Gaussian 90(TM) system (copyright 1990, Gaussian, Inc.),
 the Gaussian 88(TM) system (copyright 1988, Gaussian, Inc.),
 the Gaussian 86(TM) system (copyright 1986, Carnegie Mellon
 University), and the Gaussian 82(TM) system (copyright 1983,
 Carnegie Mellon University). Gaussian is a federally registered
 trademark of Gaussian, Inc.
  
 This software contains proprietary and confidential information,
 including trade secrets, belonging to Gaussian, Inc.
  
 This software is provided under written license and may be
 used, copied, transmitted, or stored only in accord with that
 written license.
  
 The following legend is applicable only to US Government
 contracts under FAR:
  
                    RESTRICTED RIGHTS LEGEND
  
 Use, reproduction and disclosure by the US Government is
 subject to restrictions as set forth in subparagraphs (a)
 and (c) of the Commercial Computer Software - Restricted
 Rights clause in FAR 52.227-19.
  
 Gaussian, Inc.
 340 Quinnipiac St., Bldg. 40, Wallingford CT 06492
  
  
 ---------------------------------------------------------------
 Warning -- This program may not be used in any manner that
 competes with the business of Gaussian, Inc. or will provide
 assistance to any competitor of Gaussian, Inc.  The licensee
 of this program is prohibited from giving any competitor of
 Gaussian, Inc. access to this program.  By using this program,
 the user acknowledges that Gaussian, Inc. is engaged in the
 business of creating and licensing software in the field of
 computational chemistry and represents and warrants to the
 licensee that it is not a competitor of Gaussian, Inc. and that
 it will not use this program in any manner prohibited above.
 ---------------------------------------------------------------
  

 Cite this work as:
 Gaussian 16, Revision C.01,
 M. J. Frisch, G. W. Trucks, H. B. Schlegel, G. E. Scuseria, 
 M. A. Robb, J. R. Cheeseman, G. Scalmani, V. Barone, 
 G. A. Petersson, H. Nakatsuji, X. Li, M. Caricato, A. V. Marenich, 
 J. Bloino, B. G. Janesko, R. Gomperts, B. Mennucci, H. P. Hratchian, 
 J. V. Ortiz, A. F. Izmaylov, J. L. Sonnenberg, D. Williams-Young, 
 F. Ding, F. Lipparini, F. Egidi, J. Goings, B. Peng, A. Petrone, 
 T. Henderson, D. Ranasinghe, V. G. Zakrzewski, J. Gao, N. Rega, 
 G. Zheng, W. Liang, M. Hada, M. Ehara, K. Toyota, R. Fukuda, 
 J. Hasegawa, M. Ishida, T. Nakajima, Y. Honda, O. Kitao, H. Nakai, 
 T. Vreven, K. Throssell, J. A. Montgomery, Jr., J. E. Peralta, 
 F. Ogliaro, M. J. Bearpark, J. J. Heyd, E. N. Brothers, K. N. Kudin, 
 V. N. Staroverov, T. A. Keith, R. Kobayashi, J. Normand, 
 K. Raghavachari, A. P. Rendell, J. C. Burant, S. S. Iyengar, 
 J. Tomasi, M. Cossi, J. M. Millam, M. Klene, C. Adamo, R. Cammi, 
 J. W. Ochterski, R. L. Martin, K. Morokuma, O. Farkas, 
 J. B. Foresman, and D. J. Fox, Gaussian, Inc., Wallingford CT, 2019.
 
 ******************************************
 Gaussian 16:  ES64L-G16RevC.01  3-Jul-2019
                31-May-2022 
 ******************************************
 %mem=8gb
 %nproc=4
 Will use up to    4 processors via shared memory.
 %chk=conf-883.chk
 ----------------------------------------------------------------------
 # B3LYP/6-31G* empiricaldispersion=gd3 guess=read geom=check nosymm in
 tegral(ultrafinegrid)
 ----------------------------------------------------------------------
 1/29=2,38=1,172=1/1;
 2/12=2,15=1,40=1/2;
 3/5=1,6=6,7=1,11=2,14=-4,25=1,30=1,74=-5,75=-5,116=-2,124=31/1,2,3;
 4/5=1/1;
 5/5=2,38=6/2;
 6/7=2,8=2,9=2,10=2,28=1/1;
 99/5=1,9=1/99;
 ------------------------------------------------------
 Candidate Structure: Conf:883 Charge calc in gas phase
 ------------------------------------------------------
 Structure from the checkpoint file:  "conf-883.chk"
 Charge =  1 Multiplicity = 1
 Redundant internal coordinates found in file.  (old form).
 N,0,31.6610790607,-31.8052562801,40.1189189141
 C,0,31.0815384346,-32.1860464524,41.3967155119
 C,0,31.9658136509,-33.0173194012,42.3596265953
 O,0,31.4840256812,-33.7127385245,43.2388796278
 C,0,30.6525978404,-30.92991367,42.2210986703
 C,0,30.208848948,-29.7326251528,41.4090307539
 C,0,30.724333184,-28.4596819884,41.6951192247
 C,0,29.2897251271,-29.8419474987,40.3585520552
 C,0,30.3554680477,-27.3337393779,40.9599699702
 C,0,28.9043690477,-28.7278708039,39.6170570179
 C,0,29.4396206233,-27.4669443626,39.9105545243
 O,0,29.1157435452,-26.3391459938,39.2180089796
 H,0,30.1999210865,-32.8047001042,41.1998198978
 H,0,29.8741817761,-31.2557332529,42.9203360531
 H,0,31.5000703742,-30.6168364656,42.8460268865
 H,0,31.4162142909,-28.3408044241,42.5267596994
 H,0,28.881489441,-30.8140818201,40.0999868931
 H,0,30.7471289736,-26.3487273174,41.1934785965
 H,0,28.1917950786,-28.8379161958,38.8021440279
 H,0,28.456749121,-26.5508260204,38.5383545928
 H,0,32.2988694005,-31.0175552044,40.1600907995
 H,0,32.0510918205,-32.5764893676,39.5878494077
 N,0,33.3075519895,-32.758527535,42.1838215771
 C,0,34.4891931907,-33.2020256327,42.9165307185
 C,0,35.4862709319,-32.0347560166,42.9155239482
 O,0,36.7144223397,-32.2244664552,42.8261645535
 C,0,34.2218467405,-33.7156132999,44.3640701155
 C,0,33.602152142,-32.6621093434,45.2911235147
 C,0,35.5113778452,-34.2920731138,44.9678888565
 H,0,33.50157937,-32.305474095,41.2985313602
 H,0,34.9940247243,-34.0083185642,42.3685547679
 H,0,33.4946455368,-34.5229712859,44.2489139607
 H,0,33.3568928002,-33.1227339044,46.2532413243
 H,0,34.2953945594,-31.8351060274,45.4890351319
 H,0,32.6727282207,-32.2584796038,44.8826406485
 H,0,35.9566467285,-35.0583119069,44.322944066
 H,0,35.2920502262,-34.7547622511,45.9351327405
 H,0,36.2653826459,-33.5130073843,45.1358308437
 N,0,34.9423283756,-30.8077745364,43.0260912402
 C,0,35.62916516,-29.5463265115,42.7931700621
 C,0,34.8693290337,-28.6756602962,41.7767191979
 O,0,35.2508068187,-27.5838986741,41.4405281938
 C,0,35.814126443,-28.7019836905,44.0789647167
 C,0,36.5923887712,-29.3431531814,45.2390658566
 C,0,38.1127520693,-29.5047163219,45.0540177638
 N,0,38.4322548483,-30.7039558139,44.2713622373
 C,0,39.4129207084,-31.5686859259,44.5080176467
 N,0,40.4824020441,-31.2345159788,45.2530897524
 N,0,39.3136166319,-32.8155168217,44.0119719677
 O,0,33.71354343,-29.246918816,41.3602370421
 H,0,33.2003501394,-28.5919371422,40.8426308929
 H,0,33.9283721347,-30.7847617007,43.032334903
 H,0,36.5997356961,-29.7720797682,42.3399696098
 H,0,34.8140145324,-28.446383894,44.4508930135
 H,0,36.2852623012,-27.7592371088,43.7816583775
 H,0,36.1587238776,-30.3141641494,45.5084371811
 H,0,36.4496281442,-28.6945466295,46.1105663388
 H,0,38.5805784989,-29.6048522696,46.0393859385
 H,0,38.5360878812,-28.6155188055,44.5695243638
 H,0,37.7154966161,-31.0696820952,43.6269736292
 H,0,41.1398995734,-31.9338766489,45.5659407009
 H,0,40.6981402289,-30.2693456236,45.4524897874
 H,0,40.1396505376,-33.3755154312,43.8567347213
 H,0,38.4613608089,-33.0724014463,43.517864688
 Recover connectivity data from disk.
                           ----------------------------
                           !    Current Parameters    !
                           ! (Angstroms and Degrees)  !
 --------------------------                            --------------------------
 ! Name  Definition              Value                                          !
 --------------------------------------------------------------------------------
 ! R1    R(1,2)                  1.4538                                         !
 ! R2    R(1,21)                 1.0144                                         !
 ! R3    R(1,22)                 1.0144                                         !
 ! R4    R(2,3)                  1.5492                                         !
 ! R5    R(2,5)                  1.5625                                         !
 ! R6    R(2,13)                 1.0949                                         !
 ! R7    R(3,4)                  1.2202                                         !
 ! R8    R(3,23)                 1.3777                                         !
 ! R9    R(5,6)                  1.5132                                         !
 ! R10   R(5,14)                 1.0959                                         !
 ! R11   R(5,15)                 1.0985                                         !
 ! R12   R(6,7)                  1.4028                                         !
 ! R13   R(6,8)                  1.4001                                         !
 ! R14   R(7,9)                  1.3944                                         !
 ! R15   R(7,16)                 1.0883                                         !
 ! R16   R(8,10)                 1.3927                                         !
 ! R17   R(8,17)                 1.0856                                         !
 ! R18   R(9,11)                 1.3992                                         !
 ! R19   R(9,18)                 1.0854                                         !
 ! R20   R(10,11)                1.4009                                         !
 ! R21   R(10,19)                1.0881                                         !
 ! R22   R(11,12)                1.3625                                         !
 ! R23   R(12,20)                0.9701                                         !
 ! R24   R(23,24)                1.4594                                         !
 ! R25   R(23,30)                1.0132                                         !
 ! R26   R(24,25)                1.5351                                         !
 ! R27   R(24,27)                1.559                                          !
 ! R28   R(24,31)                1.0978                                         !
 ! R29   R(25,26)                1.2459                                         !
 ! R30   R(25,39)                1.3467                                         !
 ! R31   R(27,28)                1.5341                                         !
 ! R32   R(27,29)                1.5362                                         !
 ! R33   R(27,32)                1.0927                                         !
 ! R34   R(28,33)                1.0945                                         !
 ! R35   R(28,34)                1.0971                                         !
 ! R36   R(28,35)                1.0925                                         !
 ! R37   R(29,36)                1.0961                                         !
 ! R38   R(29,37)                1.0944                                         !
 ! R39   R(29,38)                1.0971                                         !
 ! R40   R(39,40)                1.4551                                         !
 ! R41   R(39,52)                1.0142                                         !
 ! R42   R(40,41)                1.539                                          !
 ! R43   R(40,43)                1.5493                                         !
 ! R44   R(40,53)                1.0947                                         !
 ! R45   R(41,42)                1.2044                                         !
 ! R46   R(41,50)                1.3549                                         !
 ! R47   R(43,44)                1.5371                                         !
 ! R48   R(43,54)                1.0972                                         !
 ! R49   R(43,55)                1.095                                          !
 ! R50   R(44,45)                1.5401                                         !
 ! R51   R(44,56)                1.097                                          !
 ! R52   R(44,57)                1.0957                                         !
 ! R53   R(45,46)                1.4672                                         !
 ! R54   R(45,58)                1.0954                                         !
 ! R55   R(45,59)                1.0976                                         !
 ! R56   R(46,47)                1.3287                                         !
 ! R57   R(46,60)                1.0309                                         !
 ! R58   R(47,48)                1.3456                                         !
 ! R59   R(47,49)                1.3456                                         !
 ! R60   R(48,61)                1.0096                                         !
 ! R61   R(48,62)                1.0089                                         !
 ! R62   R(49,63)                1.01                                           !
 ! R63   R(49,64)                1.0181                                         !
 ! R64   R(50,51)                0.9799                                         !
 ! A1    A(2,1,21)             114.7311                                         !
 ! A2    A(2,1,22)             114.474                                          !
 ! A3    A(21,1,22)            111.7102                                         !
 ! A4    A(1,2,3)              117.3411                                         !
 ! A5    A(1,2,5)              111.2589                                         !
 ! A6    A(1,2,13)             108.1149                                         !
 ! A7    A(3,2,5)              105.0773                                         !
 ! A8    A(3,2,13)             105.5567                                         !
 ! A9    A(5,2,13)             109.1523                                         !
 ! A10   A(2,3,4)              121.8916                                         !
 ! A11   A(2,3,23)             112.0718                                         !
 ! A12   A(4,3,23)             125.7004                                         !
 ! A13   A(2,5,6)              115.6859                                         !
 ! A14   A(2,5,14)             107.0143                                         !
 ! A15   A(2,5,15)             108.5101                                         !
 ! A16   A(6,5,14)             111.6751                                         !
 ! A17   A(6,5,15)             107.8196                                         !
 ! A18   A(14,5,15)            105.6479                                         !
 ! A19   A(5,6,7)              120.05                                           !
 ! A20   A(5,6,8)              122.2335                                         !
 ! A21   A(7,6,8)              117.7162                                         !
 ! A22   A(6,7,9)              121.8703                                         !
 ! A23   A(6,7,16)             119.2457                                         !
 ! A24   A(9,7,16)             118.8719                                         !
 ! A25   A(6,8,10)             121.2431                                         !
 ! A26   A(6,8,17)             119.7016                                         !
 ! A27   A(10,8,17)            119.044                                          !
 ! A28   A(7,9,11)             119.4526                                         !
 ! A29   A(7,9,18)             121.5948                                         !
 ! A30   A(11,9,18)            118.9418                                         !
 ! A31   A(8,10,11)            120.1827                                         !
 ! A32   A(8,10,19)            119.938                                          !
 ! A33   A(11,10,19)           119.8774                                         !
 ! A34   A(9,11,10)            119.5313                                         !
 ! A35   A(9,11,12)            117.2584                                         !
 ! A36   A(10,11,12)           123.2101                                         !
 ! A37   A(11,12,20)           109.693                                          !
 ! A38   A(3,23,24)            131.8651                                         !
 ! A39   A(3,23,30)            112.4559                                         !
 ! A40   A(24,23,30)           114.803                                          !
 ! A41   A(23,24,25)           107.1269                                         !
 ! A42   A(23,24,27)           115.304                                          !
 ! A43   A(23,24,31)           110.1766                                         !
 ! A44   A(25,24,27)           111.2518                                         !
 ! A45   A(25,24,31)           105.0371                                         !
 ! A46   A(27,24,31)           107.4789                                         !
 ! A47   A(24,25,26)           121.6349                                         !
 ! A48   A(24,25,39)           115.4916                                         !
 ! A49   A(26,25,39)           122.8721                                         !
 ! A50   A(24,27,28)           113.837                                          !
 ! A51   A(24,27,29)           110.159                                          !
 ! A52   A(24,27,32)           105.0512                                         !
 ! A53   A(28,27,29)           111.0555                                         !
 ! A54   A(28,27,32)           107.5941                                         !
 ! A55   A(29,27,32)           108.8342                                         !
 ! A56   A(27,28,33)           109.4336                                         !
 ! A57   A(27,28,34)           111.8035                                         !
 ! A58   A(27,28,35)           111.8034                                         !
 ! A59   A(33,28,34)           107.4724                                         !
 ! A60   A(33,28,35)           107.0683                                         !
 ! A61   A(34,28,35)           109.0566                                         !
 ! A62   A(27,29,36)           111.8434                                         !
 ! A63   A(27,29,37)           109.7437                                         !
 ! A64   A(27,29,38)           111.7536                                         !
 ! A65   A(36,29,37)           107.8127                                         !
 ! A66   A(36,29,38)           107.8965                                         !
 ! A67   A(37,29,38)           107.6171                                         !
 ! A68   A(25,39,40)           125.8783                                         !
 ! A69   A(25,39,52)           115.1492                                         !
 ! A70   A(40,39,52)           116.95                                           !
 ! A71   A(39,40,41)           111.292                                          !
 ! A72   A(39,40,43)           113.3259                                         !
 ! A73   A(39,40,53)           107.8179                                         !
 ! A74   A(41,40,43)           107.3825                                         !
 ! A75   A(41,40,53)           106.3184                                         !
 ! A76   A(43,40,53)           110.4947                                         !
 ! A77   A(40,41,42)           122.7391                                         !
 ! A78   A(40,41,50)           112.6849                                         !
 ! A79   A(42,41,50)           124.5145                                         !
 ! A80   A(40,43,44)           117.3539                                         !
 ! A81   A(40,43,54)           107.4249                                         !
 ! A82   A(40,43,55)           107.1709                                         !
 ! A83   A(44,43,54)           107.6288                                         !
 ! A84   A(44,43,55)           110.2544                                         !
 ! A85   A(54,43,55)           106.4778                                         !
 ! A86   A(43,44,45)           116.9309                                         !
 ! A87   A(43,44,56)           110.7557                                         !
 ! A88   A(43,44,57)           106.703                                          !
 ! A89   A(45,44,56)           109.0804                                         !
 ! A90   A(45,44,57)           106.6359                                         !
 ! A91   A(56,44,57)           106.0898                                         !
 ! A92   A(44,45,46)           111.3956                                         !
 ! A93   A(44,45,58)           108.8522                                         !
 ! A94   A(44,45,59)           110.4152                                         !
 ! A95   A(46,45,58)           108.1875                                         !
 ! A96   A(46,45,59)           110.0428                                         !
 ! A97   A(58,45,59)           107.8442                                         !
 ! A98   A(45,46,47)           126.7011                                         !
 ! A99   A(45,46,60)           118.1637                                         !
 ! A100  A(47,46,60)           113.1791                                         !
 ! A101  A(46,47,48)           121.5749                                         !
 ! A102  A(46,47,49)           118.8766                                         !
 ! A103  A(48,47,49)           119.5323                                         !
 ! A104  A(47,48,61)           121.1426                                         !
 ! A105  A(47,48,62)           121.1301                                         !
 ! A106  A(61,48,62)           117.5285                                         !
 ! A107  A(47,49,63)           120.6702                                         !
 ! A108  A(47,49,64)           118.3278                                         !
 ! A109  A(63,49,64)           118.0451                                         !
 ! A110  A(41,50,51)           109.1051                                         !
 ! D1    D(21,1,2,3)           -78.5917                                         !
 ! D2    D(21,1,2,5)            42.4311                                         !
 ! D3    D(21,1,2,13)          162.277                                          !
 ! D4    D(22,1,2,3)            52.4897                                         !
 ! D5    D(22,1,2,5)           173.5124                                         !
 ! D6    D(22,1,2,13)          -66.6416                                         !
 ! D7    D(1,2,3,4)           -157.6167                                         !
 ! D8    D(1,2,3,23)            28.686                                          !
 ! D9    D(5,2,3,4)             78.1874                                         !
 ! D10   D(5,2,3,23)           -95.51                                           !
 ! D11   D(13,2,3,4)           -37.134                                          !
 ! D12   D(13,2,3,23)          149.1687                                         !
 ! D13   D(1,2,5,6)             31.0977                                         !
 ! D14   D(1,2,5,14)           156.2518                                         !
 ! D15   D(1,2,5,15)           -90.1758                                         !
 ! D16   D(3,2,5,6)            159.0644                                         !
 ! D17   D(3,2,5,14)           -75.7815                                         !
 ! D18   D(3,2,5,15)            37.7909                                         !
 ! D19   D(13,2,5,6)           -88.1309                                         !
 ! D20   D(13,2,5,14)           37.0232                                         !
 ! D21   D(13,2,5,15)          150.5956                                         !
 ! D22   D(2,3,23,24)          174.0942                                         !
 ! D23   D(2,3,23,30)          -17.4111                                         !
 ! D24   D(4,3,23,24)            0.685                                          !
 ! D25   D(4,3,23,30)          169.1798                                         !
 ! D26   D(2,5,6,7)           -131.7233                                         !
 ! D27   D(2,5,6,8)             48.0486                                         !
 ! D28   D(14,5,6,7)           105.5551                                         !
 ! D29   D(14,5,6,8)           -74.673                                          !
 ! D30   D(15,5,6,7)           -10.0795                                         !
 ! D31   D(15,5,6,8)           169.6924                                         !
 ! D32   D(5,6,7,9)            179.1324                                         !
 ! D33   D(5,6,7,16)            -2.1517                                         !
 ! D34   D(8,6,7,9)             -0.6496                                         !
 ! D35   D(8,6,7,16)           178.0662                                         !
 ! D36   D(5,6,8,10)          -179.4399                                         !
 ! D37   D(5,6,8,17)            -0.6722                                         !
 ! D38   D(7,6,8,10)             0.3371                                         !
 ! D39   D(7,6,8,17)           179.1048                                         !
 ! D40   D(6,7,9,11)             0.3909                                         !
 ! D41   D(6,7,9,18)           179.1858                                         !
 ! D42   D(16,7,9,11)         -178.3296                                         !
 ! D43   D(16,7,9,18)            0.4653                                         !
 ! D44   D(6,8,10,11)            0.2265                                         !
 ! D45   D(6,8,10,19)          179.7254                                         !
 ! D46   D(17,8,10,11)        -178.5491                                         !
 ! D47   D(17,8,10,19)           0.9497                                         !
 ! D48   D(7,9,11,10)            0.1914                                         !
 ! D49   D(7,9,11,12)         -179.6936                                         !
 ! D50   D(18,9,11,10)        -178.6356                                         !
 ! D51   D(18,9,11,12)           1.4795                                         !
 ! D52   D(8,10,11,9)           -0.4952                                         !
 ! D53   D(8,10,11,12)         179.3826                                         !
 ! D54   D(19,10,11,9)        -179.9943                                         !
 ! D55   D(19,10,11,12)         -0.1165                                         !
 ! D56   D(9,11,12,20)        -178.2568                                         !
 ! D57   D(10,11,12,20)          1.8628                                         !
 ! D58   D(3,23,24,25)        -144.4313                                         !
 ! D59   D(3,23,24,27)         -20.0129                                         !
 ! D60   D(3,23,24,31)         101.8361                                         !
 ! D61   D(30,23,24,25)         47.285                                          !
 ! D62   D(30,23,24,27)        171.7033                                         !
 ! D63   D(30,23,24,31)        -66.4476                                         !
 ! D64   D(23,24,25,26)       -143.4848                                         !
 ! D65   D(23,24,25,39)         36.9429                                         !
 ! D66   D(27,24,25,26)         89.6643                                         !
 ! D67   D(27,24,25,39)        -89.908                                          !
 ! D68   D(31,24,25,26)        -26.3233                                         !
 ! D69   D(31,24,25,39)        154.1044                                         !
 ! D70   D(23,24,27,28)        -60.6669                                         !
 ! D71   D(23,24,27,29)        173.8396                                         !
 ! D72   D(23,24,27,32)         56.7853                                         !
 ! D73   D(25,24,27,28)         61.5674                                         !
 ! D74   D(25,24,27,29)        -63.926                                          !
 ! D75   D(25,24,27,32)        179.0197                                         !
 ! D76   D(31,24,27,28)        176.0438                                         !
 ! D77   D(31,24,27,29)         50.5504                                         !
 ! D78   D(31,24,27,32)        -66.5039                                         !
 ! D79   D(24,25,39,40)       -167.3525                                         !
 ! D80   D(24,25,39,52)         -4.1182                                         !
 ! D81   D(26,25,39,40)         13.0811                                         !
 ! D82   D(26,25,39,52)        176.3153                                         !
 ! D83   D(24,27,28,33)        174.5966                                         !
 ! D84   D(24,27,28,34)        -66.4526                                         !
 ! D85   D(24,27,28,35)         56.1484                                         !
 ! D86   D(29,27,28,33)        -60.3868                                         !
 ! D87   D(29,27,28,34)         58.5639                                         !
 ! D88   D(29,27,28,35)       -178.8351                                         !
 ! D89   D(32,27,28,33)         58.6244                                         !
 ! D90   D(32,27,28,34)        177.5752                                         !
 ! D91   D(32,27,28,35)        -59.8238                                         !
 ! D92   D(24,27,29,36)        -53.8561                                         !
 ! D93   D(24,27,29,37)       -173.4614                                         !
 ! D94   D(24,27,29,38)         67.2354                                         !
 ! D95   D(28,27,29,36)        179.0847                                         !
 ! D96   D(28,27,29,37)         59.4793                                         !
 ! D97   D(28,27,29,38)        -59.8238                                         !
 ! D98   D(32,27,29,36)         60.8208                                         !
 ! D99   D(32,27,29,37)        -58.7846                                         !
 ! D100  D(32,27,29,38)       -178.0878                                         !
 ! D101  D(25,39,40,41)        126.3822                                         !
 ! D102  D(25,39,40,43)       -112.4717                                         !
 ! D103  D(25,39,40,53)         10.1499                                         !
 ! D104  D(52,39,40,41)        -36.5846                                         !
 ! D105  D(52,39,40,43)         84.5615                                         !
 ! D106  D(52,39,40,53)       -152.8169                                         !
 ! D107  D(39,40,41,42)        179.4478                                         !
 ! D108  D(39,40,41,50)          2.1837                                         !
 ! D109  D(43,40,41,42)         54.8854                                         !
 ! D110  D(43,40,41,50)       -122.3787                                         !
 ! D111  D(53,40,41,42)        -63.404                                          !
 ! D112  D(53,40,41,50)        119.3319                                         !
 ! D113  D(39,40,43,44)         58.5631                                         !
 ! D114  D(39,40,43,54)        -62.7518                                         !
 ! D115  D(39,40,43,55)       -176.8395                                         !
 ! D116  D(41,40,43,44)       -178.1144                                         !
 ! D117  D(41,40,43,54)         60.5707                                         !
 ! D118  D(41,40,43,55)        -53.517                                          !
 ! D119  D(53,40,43,44)        -62.5628                                         !
 ! D120  D(53,40,43,54)        176.1223                                         !
 ! D121  D(53,40,43,55)         62.0346                                         !
 ! D122  D(40,41,50,51)        170.2808                                         !
 ! D123  D(42,41,50,51)         -6.9262                                         !
 ! D124  D(40,43,44,45)         71.814                                          !
 ! D125  D(40,43,44,56)        -53.9627                                         !
 ! D126  D(40,43,44,57)       -168.9967                                         !
 ! D127  D(54,43,44,45)       -166.9771                                         !
 ! D128  D(54,43,44,56)         67.2461                                         !
 ! D129  D(54,43,44,57)        -47.7878                                         !
 ! D130  D(55,43,44,45)        -51.2239                                         !
 ! D131  D(55,43,44,56)       -177.0006                                         !
 ! D132  D(55,43,44,57)         67.9654                                         !
 ! D133  D(43,44,45,46)        -81.9237                                         !
 ! D134  D(43,44,45,58)        158.8661                                         !
 ! D135  D(43,44,45,59)         40.6639                                         !
 ! D136  D(56,44,45,46)         44.6828                                         !
 ! D137  D(56,44,45,58)        -74.5274                                         !
 ! D138  D(56,44,45,59)        167.2704                                         !
 ! D139  D(57,44,45,46)        158.8511                                         !
 ! D140  D(57,44,45,58)         39.6409                                         !
 ! D141  D(57,44,45,59)        -78.5613                                         !
 ! D142  D(44,45,46,47)       -138.31                                           !
 ! D143  D(44,45,46,60)         24.617                                          !
 ! D144  D(58,45,46,47)        -18.7048                                         !
 ! D145  D(58,45,46,60)        144.2221                                         !
 ! D146  D(59,45,46,47)         98.8886                                         !
 ! D147  D(59,45,46,60)        -98.1844                                         !
 ! D148  D(45,46,47,48)        -20.8817                                         !
 ! D149  D(45,46,47,49)        157.6505                                         !
 ! D150  D(60,46,47,48)        175.4715                                         !
 ! D151  D(60,46,47,49)         -5.9963                                         !
 ! D152  D(46,47,48,61)        169.0404                                         !
 ! D153  D(46,47,48,62)        -16.211                                          !
 ! D154  D(49,47,48,61)         -9.4824                                         !
 ! D155  D(49,47,48,62)        165.2662                                         !
 ! D156  D(46,47,49,63)        156.5156                                         !
 ! D157  D(46,47,49,64)         -3.6528                                         !
 ! D158  D(48,47,49,63)        -24.9217                                         !
 ! D159  D(48,47,49,64)        174.9099                                         !
 --------------------------------------------------------------------------------
 Symmetry turned off by external request.
 Stoichiometry    C20H33N6O5(1+)
 Framework group  C1[X(C20H33N6O5)]
 Deg. of freedom   186
 Full point group                 C1      NOp   1
                          Input orientation:                          
 ---------------------------------------------------------------------
 Center     Atomic      Atomic             Coordinates (Angstroms)
 Number     Number       Type             X           Y           Z
 ---------------------------------------------------------------------
      1          7           0       31.661079  -31.805256   40.118919
      2          6           0       31.081538  -32.186046   41.396716
      3          6           0       31.965814  -33.017319   42.359627
      4          8           0       31.484026  -33.712739   43.238880
      5          6           0       30.652598  -30.929914   42.221099
      6          6           0       30.208849  -29.732625   41.409031
      7          6           0       30.724333  -28.459682   41.695119
      8          6           0       29.289725  -29.841947   40.358552
      9          6           0       30.355468  -27.333739   40.959970
     10          6           0       28.904369  -28.727871   39.617057
     11          6           0       29.439621  -27.466944   39.910555
     12          8           0       29.115744  -26.339146   39.218009
     13          1           0       30.199921  -32.804700   41.199820
     14          1           0       29.874182  -31.255733   42.920336
     15          1           0       31.500070  -30.616836   42.846027
     16          1           0       31.416214  -28.340804   42.526760
     17          1           0       28.881489  -30.814082   40.099987
     18          1           0       30.747129  -26.348727   41.193479
     19          1           0       28.191795  -28.837916   38.802144
     20          1           0       28.456749  -26.550826   38.538355
     21          1           0       32.298869  -31.017555   40.160091
     22          1           0       32.051092  -32.576489   39.587849
     23          7           0       33.307552  -32.758528   42.183822
     24          6           0       34.489193  -33.202026   42.916531
     25          6           0       35.486271  -32.034756   42.915524
     26          8           0       36.714422  -32.224466   42.826165
     27          6           0       34.221847  -33.715613   44.364070
     28          6           0       33.602152  -32.662109   45.291124
     29          6           0       35.511378  -34.292073   44.967889
     30          1           0       33.501579  -32.305474   41.298531
     31          1           0       34.994025  -34.008319   42.368555
     32          1           0       33.494646  -34.522971   44.248914
     33          1           0       33.356893  -33.122734   46.253241
     34          1           0       34.295395  -31.835106   45.489035
     35          1           0       32.672728  -32.258480   44.882641
     36          1           0       35.956647  -35.058312   44.322944
     37          1           0       35.292050  -34.754762   45.935133
     38          1           0       36.265383  -33.513007   45.135831
     39          7           0       34.942328  -30.807775   43.026091
     40          6           0       35.629165  -29.546327   42.793170
     41          6           0       34.869329  -28.675660   41.776719
     42          8           0       35.250807  -27.583899   41.440528
     43          6           0       35.814126  -28.701984   44.078965
     44          6           0       36.592389  -29.343153   45.239066
     45          6           0       38.112752  -29.504716   45.054018
     46          7           0       38.432255  -30.703956   44.271362
     47          6           0       39.412921  -31.568686   44.508018
     48          7           0       40.482402  -31.234516   45.253090
     49          7           0       39.313617  -32.815517   44.011972
     50          8           0       33.713543  -29.246919   41.360237
     51          1           0       33.200350  -28.591937   40.842631
     52          1           0       33.928372  -30.784762   43.032335
     53          1           0       36.599736  -29.772080   42.339970
     54          1           0       34.814015  -28.446384   44.450893
     55          1           0       36.285262  -27.759237   43.781658
     56          1           0       36.158724  -30.314164   45.508437
     57          1           0       36.449628  -28.694547   46.110566
     58          1           0       38.580578  -29.604852   46.039386
     59          1           0       38.536088  -28.615519   44.569524
     60          1           0       37.715497  -31.069682   43.626974
     61          1           0       41.139900  -31.933877   45.565941
     62          1           0       40.698140  -30.269346   45.452490
     63          1           0       40.139651  -33.375515   43.856735
     64          1           0       38.461361  -33.072401   43.517865
 ---------------------------------------------------------------------
 Rotational constants (GHZ):           0.2359753           0.0787303           0.0643427
 Standard basis: 6-31G(d) (6D, 7F)
   531 basis functions,  1000 primitive gaussians,   531 cartesian basis functions
   117 alpha electrons      117 beta electrons
       nuclear repulsion energy      3345.5192875237 Hartrees.
 NAtoms=   64 NActive=   64 NUniq=   64 SFac= 1.00D+00 NAtFMM=   60 NAOKFM=T Big=T
 Integral buffers will be    131072 words long.
 Raffenetti 2 integral format.
 Two-electron integral symmetry is turned off.
 Nuclear repulsion after empirical dispersion term =     3345.4339999241 Hartrees.
 One-electron integrals computed using PRISM.
 NBasis=   531 RedAO= T EigKep=  4.29D-04  NBF=   531
 NBsUse=   531 1.00D-06 EigRej= -1.00D+00 NBFU=   531
 Initial guess from the checkpoint file:  "conf-883.chk"
 B after Tr=     0.000000    0.000000    0.000000
         Rot=    1.000000    0.000000    0.000000    0.000000 Ang=   0.00 deg.
 Requested convergence on RMS density matrix=1.00D-08 within 128 cycles.
 Requested convergence on MAX density matrix=1.00D-06.
 Requested convergence on             energy=1.00D-06.
 No special actions if energy rises.
 SCF Done:  E(RB3LYP) =  -1486.56414702     A.U. after    1 cycles
            NFock=  1  Conv=0.20D-08     -V/T= 2.0094

 **********************************************************************

            Population analysis using the SCF Density.

 **********************************************************************

 Alpha  occ. eigenvalues --  -19.31707 -19.26311 -19.25578 -19.24370 -19.20187
 Alpha  occ. eigenvalues --  -14.52542 -14.51167 -14.50778 -14.49471 -14.45766
 Alpha  occ. eigenvalues --  -14.40860 -10.48120 -10.44050 -10.42364 -10.37272
 Alpha  occ. eigenvalues --  -10.37104 -10.36648 -10.34635 -10.32042 -10.31853
 Alpha  occ. eigenvalues --  -10.31702 -10.30942 -10.29346 -10.27585 -10.27193
 Alpha  occ. eigenvalues --  -10.26524 -10.26468 -10.26435 -10.26038 -10.25817
 Alpha  occ. eigenvalues --  -10.25646  -1.22239  -1.17658  -1.16479  -1.13561
 Alpha  occ. eigenvalues --   -1.12504  -1.12142  -1.06675  -1.05907  -1.04749
 Alpha  occ. eigenvalues --   -1.02506  -0.97788  -0.93117  -0.92294  -0.90482
 Alpha  occ. eigenvalues --   -0.88466  -0.85069  -0.83035  -0.81850  -0.81483
 Alpha  occ. eigenvalues --   -0.79061  -0.78753  -0.77797  -0.75069  -0.73973
 Alpha  occ. eigenvalues --   -0.72900  -0.72201  -0.71599  -0.70310  -0.69263
 Alpha  occ. eigenvalues --   -0.69040  -0.66345  -0.65634  -0.65301  -0.65175
 Alpha  occ. eigenvalues --   -0.64298  -0.63141  -0.62288  -0.61370  -0.60137
 Alpha  occ. eigenvalues --   -0.59348  -0.59282  -0.59071  -0.58474  -0.57661
 Alpha  occ. eigenvalues --   -0.56809  -0.56410  -0.55542  -0.55120  -0.54734
 Alpha  occ. eigenvalues --   -0.53937  -0.53645  -0.52949  -0.52530  -0.51782
 Alpha  occ. eigenvalues --   -0.51231  -0.51002  -0.50687  -0.49365  -0.49154
 Alpha  occ. eigenvalues --   -0.48621  -0.48404  -0.47998  -0.47625  -0.47532
 Alpha  occ. eigenvalues --   -0.47226  -0.47017  -0.45973  -0.45831  -0.44183
 Alpha  occ. eigenvalues --   -0.43663  -0.43501  -0.43307  -0.43135  -0.42646
 Alpha  occ. eigenvalues --   -0.42219  -0.41224  -0.40579  -0.40384  -0.39805
 Alpha  occ. eigenvalues --   -0.39565  -0.37917  -0.36224  -0.35131  -0.32414
 Alpha  occ. eigenvalues --   -0.30565  -0.28541
 Alpha virt. eigenvalues --   -0.12375  -0.11745  -0.10971  -0.07790  -0.07450
 Alpha virt. eigenvalues --   -0.07275  -0.05838  -0.04618  -0.04251  -0.02851
 Alpha virt. eigenvalues --   -0.02351  -0.02035  -0.01605  -0.00294  -0.00013
 Alpha virt. eigenvalues --    0.00899   0.01125   0.01977   0.02600   0.02980
 Alpha virt. eigenvalues --    0.03147   0.03226   0.03760   0.04208   0.04767
 Alpha virt. eigenvalues --    0.06045   0.06218   0.06265   0.06953   0.07583
 Alpha virt. eigenvalues --    0.07640   0.08036   0.08285   0.08935   0.09291
 Alpha virt. eigenvalues --    0.09520   0.09579   0.10195   0.10265   0.10633
 Alpha virt. eigenvalues --    0.11230   0.11764   0.12229   0.12816   0.12927
 Alpha virt. eigenvalues --    0.13727   0.14584   0.15022   0.15797   0.16003
 Alpha virt. eigenvalues --    0.16391   0.17044   0.17755   0.18825   0.18982
 Alpha virt. eigenvalues --    0.20221   0.21183   0.21681   0.22827   0.24037
 Alpha virt. eigenvalues --    0.25202   0.25810   0.26817   0.27383   0.28087
 Alpha virt. eigenvalues --    0.29211   0.30321   0.31753   0.33393   0.36230
 Alpha virt. eigenvalues --    0.37103   0.38299   0.39119   0.39775   0.40475
 Alpha virt. eigenvalues --    0.41345   0.41935   0.42219   0.43109   0.43363
 Alpha virt. eigenvalues --    0.44106   0.44194   0.44903   0.45483   0.45672
 Alpha virt. eigenvalues --    0.46657   0.46881   0.47199   0.47755   0.47950
 Alpha virt. eigenvalues --    0.48813   0.49361   0.49886   0.50337   0.50816
 Alpha virt. eigenvalues --    0.51176   0.51594   0.52075   0.52335   0.53126
 Alpha virt. eigenvalues --    0.53602   0.53988   0.54445   0.54628   0.55066
 Alpha virt. eigenvalues --    0.55506   0.56048   0.56867   0.57512   0.57837
 Alpha virt. eigenvalues --    0.58760   0.59062   0.59284   0.59504   0.60549
 Alpha virt. eigenvalues --    0.60983   0.61463   0.62015   0.62536   0.63324
 Alpha virt. eigenvalues --    0.63935   0.64316   0.64956   0.66418   0.67261
 Alpha virt. eigenvalues --    0.68766   0.68920   0.69689   0.70216   0.70904
 Alpha virt. eigenvalues --    0.71227   0.71720   0.71982   0.72729   0.73044
 Alpha virt. eigenvalues --    0.73847   0.74021   0.74550   0.74796   0.75358
 Alpha virt. eigenvalues --    0.75912   0.76020   0.76550   0.77294   0.77901
 Alpha virt. eigenvalues --    0.78269   0.78389   0.78895   0.79949   0.80231
 Alpha virt. eigenvalues --    0.80895   0.81374   0.81655   0.81876   0.82126
 Alpha virt. eigenvalues --    0.83031   0.83289   0.84076   0.84474   0.85288
 Alpha virt. eigenvalues --    0.85882   0.85974   0.86089   0.86697   0.87237
 Alpha virt. eigenvalues --    0.87920   0.88360   0.88791   0.89537   0.89863
 Alpha virt. eigenvalues --    0.91730   0.91814   0.93195   0.93652   0.94165
 Alpha virt. eigenvalues --    0.95149   0.95987   0.96479   0.97814   0.98990
 Alpha virt. eigenvalues --    0.99489   0.99688   1.00518   1.01695   1.02202
 Alpha virt. eigenvalues --    1.02567   1.04122   1.04679   1.05648   1.06631
 Alpha virt. eigenvalues --    1.07142   1.09017   1.09659   1.10153   1.11376
 Alpha virt. eigenvalues --    1.12309   1.12736   1.13279   1.14244   1.15664
 Alpha virt. eigenvalues --    1.16010   1.17933   1.18301   1.19725   1.20242
 Alpha virt. eigenvalues --    1.21572   1.22527   1.22787   1.23109   1.23869
 Alpha virt. eigenvalues --    1.25741   1.27438   1.28361   1.29494   1.30451
 Alpha virt. eigenvalues --    1.31179   1.32870   1.33998   1.34405   1.35995
 Alpha virt. eigenvalues --    1.37653   1.38659   1.39028   1.39439   1.40175
 Alpha virt. eigenvalues --    1.40494   1.41096   1.41541   1.43410   1.43754
 Alpha virt. eigenvalues --    1.44635   1.44892   1.45681   1.47293   1.48742
 Alpha virt. eigenvalues --    1.51497   1.52034   1.53545   1.54195   1.56462
 Alpha virt. eigenvalues --    1.56829   1.57698   1.59052   1.60422   1.61830
 Alpha virt. eigenvalues --    1.62091   1.62612   1.63163   1.65298   1.65930
 Alpha virt. eigenvalues --    1.66351   1.66861   1.67301   1.67576   1.68872
 Alpha virt. eigenvalues --    1.70065   1.70228   1.70570   1.70966   1.71870
 Alpha virt. eigenvalues --    1.72636   1.72923   1.73811   1.74501   1.75559
 Alpha virt. eigenvalues --    1.76621   1.78194   1.79031   1.79497   1.80377
 Alpha virt. eigenvalues --    1.80720   1.81313   1.82955   1.83504   1.83822
 Alpha virt. eigenvalues --    1.85190   1.85529   1.86550   1.87210   1.87466
 Alpha virt. eigenvalues --    1.87576   1.88388   1.88851   1.89279   1.89815
 Alpha virt. eigenvalues --    1.91267   1.91996   1.92660   1.93485   1.93869
 Alpha virt. eigenvalues --    1.95913   1.96549   1.97341   1.98155   1.99300
 Alpha virt. eigenvalues --    1.99677   2.00216   2.00943   2.01537   2.03298
 Alpha virt. eigenvalues --    2.04248   2.05006   2.05334   2.05923   2.07159
 Alpha virt. eigenvalues --    2.07710   2.09434   2.09943   2.10587   2.10939
 Alpha virt. eigenvalues --    2.12931   2.13598   2.16369   2.17115   2.17649
 Alpha virt. eigenvalues --    2.18902   2.19515   2.20465   2.21301   2.23274
 Alpha virt. eigenvalues --    2.23745   2.24077   2.25272   2.25787   2.26585
 Alpha virt. eigenvalues --    2.27803   2.28827   2.31031   2.31617   2.32098
 Alpha virt. eigenvalues --    2.32546   2.33294   2.33895   2.34141   2.35686
 Alpha virt. eigenvalues --    2.35868   2.37872   2.38925   2.40482   2.42748
 Alpha virt. eigenvalues --    2.43123   2.43796   2.45157   2.45863   2.46329
 Alpha virt. eigenvalues --    2.47543   2.49130   2.51064   2.52085   2.53437
 Alpha virt. eigenvalues --    2.53970   2.54647   2.55766   2.57482   2.57975
 Alpha virt. eigenvalues --    2.58639   2.59366   2.59801   2.62525   2.62910
 Alpha virt. eigenvalues --    2.63798   2.65236   2.67020   2.68452   2.70172
 Alpha virt. eigenvalues --    2.72312   2.74445   2.76470   2.79999   2.83524
 Alpha virt. eigenvalues --    2.84223   2.87466   2.88185   2.89335   2.90919
 Alpha virt. eigenvalues --    2.92424   2.94853   2.97348   2.99708   3.05139
 Alpha virt. eigenvalues --    3.06242   3.12193   3.34597   3.65512   3.72888
 Alpha virt. eigenvalues --    3.73693   3.79145   3.87837   3.91962   3.92167
 Alpha virt. eigenvalues --    3.96975   4.02704   4.04392   4.05432   4.06063
 Alpha virt. eigenvalues --    4.10770   4.12094   4.13683   4.14399   4.16914
 Alpha virt. eigenvalues --    4.17778   4.20725   4.21325   4.27814   4.31055
 Alpha virt. eigenvalues --    4.32443   4.35818   4.42512   4.43236   4.50599
 Alpha virt. eigenvalues --    4.54918   4.58795   4.65667   4.68404
          Condensed to atoms (all electrons):
 Mulliken charges:
               1
     1  N   -0.735662
     2  C   -0.034695
     3  C    0.574094
     4  O   -0.499207
     5  C   -0.384908
     6  C    0.175208
     7  C   -0.238807
     8  C   -0.148597
     9  C   -0.169024
    10  C   -0.195603
    11  C    0.356658
    12  O   -0.633518
    13  H    0.179533
    14  H    0.194671
    15  H    0.130445
    16  H    0.114755
    17  H    0.144707
    18  H    0.151171
    19  H    0.136907
    20  H    0.416163
    21  H    0.312949
    22  H    0.317810
    23  N   -0.656947
    24  C    0.005707
    25  C    0.592043
    26  O   -0.588993
    27  C   -0.094107
    28  C   -0.480255
    29  C   -0.456655
    30  H    0.311994
    31  H    0.178461
    32  H    0.202595
    33  H    0.173168
    34  H    0.129465
    35  H    0.175175
    36  H    0.151826
    37  H    0.171632
    38  H    0.123712
    39  N   -0.570447
    40  C   -0.093054
    41  C    0.606325
    42  O   -0.424662
    43  C   -0.274277
    44  C   -0.314559
    45  C   -0.159002
    46  N   -0.637517
    47  C    0.792429
    48  N   -0.756043
    49  N   -0.778009
    50  O   -0.590657
    51  H    0.439598
    52  H    0.385622
    53  H    0.198784
    54  H    0.169121
    55  H    0.194696
    56  H    0.178254
    57  H    0.186701
    58  H    0.176112
    59  H    0.187768
    60  H    0.425319
    61  H    0.382248
    62  H    0.385563
    63  H    0.371043
    64  H    0.414774
 Sum of Mulliken charges =   1.00000
 Mulliken charges with hydrogens summed into heavy atoms:
               1
     1  N   -0.104903
     2  C    0.144838
     3  C    0.574094
     4  O   -0.499207
     5  C   -0.059791
     6  C    0.175208
     7  C   -0.124052
     8  C   -0.003890
     9  C   -0.017853
    10  C   -0.058696
    11  C    0.356658
    12  O   -0.217354
    23  N   -0.344954
    24  C    0.184169
    25  C    0.592043
    26  O   -0.588993
    27  C    0.108487
    28  C   -0.002447
    29  C   -0.009485
    39  N   -0.184825
    40  C    0.105730
    41  C    0.606325
    42  O   -0.424662
    43  C    0.089539
    44  C    0.050395
    45  C    0.204879
    46  N   -0.212199
    47  C    0.792429
    48  N    0.011768
    49  N    0.007808
    50  O   -0.151059
 Electronic spatial extent (au):  <R**2>=        3289550.2921
 Charge=              1.0000 electrons
 Dipole moment (field-independent basis, Debye):
    X=            179.9520    Y=           -149.4874    Z=            209.6111  Tot=            314.1115
 Quadrupole moment (field-independent basis, Debye-Ang):
   XX=           6632.8815   YY=           4478.2017   ZZ=           8996.5009
   XY=          -5619.8349   XZ=           7901.1489   YZ=          -6519.6624
 Traceless Quadrupole moment (field-independent basis, Debye-Ang):
   XX=            -69.6465   YY=          -2224.3263   ZZ=           2293.9729
   XY=          -5619.8349   XZ=           7901.1489   YZ=          -6519.6624
 Octapole moment (field-independent basis, Debye-Ang**2):
  XXX=         241944.4485  YYY=        -128815.0383  ZZZ=         379859.1159  XYY=         169644.2124
  XXY=        -207821.3495  XXZ=         292940.6774  XZZ=         341702.4158  YZZ=        -279695.3276
  YYZ=         195365.6909  XYZ=        -246538.5659
 Hexadecapole moment (field-independent basis, Debye-Ang**3):
 XXXX=        8765481.9872 YYYY=        3523889.6325 ZZZZ=       15766136.8030 XXXY=       -7604502.9626
 XXXZ=       10746392.3536 YYYX=       -4942476.2462 YYYZ=       -5625701.2020 ZZZX=       14562075.5566
 ZZZY=      -11804715.6430 XXYY=        6311677.2414 XXZZ=       12754953.2243 YYZZ=        8378234.1736
 XXYZ=       -9168144.1046 YYXZ=        7442618.5365 ZZXY=      -10654920.4301
 N-N= 3.345433999924D+03 E-N=-1.012782340095D+04  KE= 1.472659034511D+03
 Unable to Open any file for archive entry.
 1\1\GINC-AMR-089\SP\RB3LYP\6-31G(d)\C20H33N6O5(1+)\KENGMITH\31-May-202
 2\0\\# B3LYP/6-31G* empiricaldispersion=gd3 guess=read geom=check nosy
 mm integral(ultrafinegrid)\\Candidate Structure: Conf:883 Charge calc 
 in gas phase\\1,1\N,0,31.6610790607,-31.8052562801,40.1189189141\C,0,3
 1.0815384346,-32.1860464524,41.3967155119\C,0,31.9658136509,-33.017319
 4012,42.3596265953\O,0,31.4840256812,-33.7127385245,43.2388796278\C,0,
 30.6525978404,-30.92991367,42.2210986703\C,0,30.208848948,-29.73262515
 28,41.4090307539\C,0,30.724333184,-28.4596819884,41.6951192247\C,0,29.
 2897251271,-29.8419474987,40.3585520552\C,0,30.3554680477,-27.33373937
 79,40.9599699702\C,0,28.9043690477,-28.7278708039,39.6170570179\C,0,29
 .4396206233,-27.4669443626,39.9105545243\O,0,29.1157435452,-26.3391459
 938,39.2180089796\H,0,30.1999210865,-32.8047001042,41.1998198978\H,0,2
 9.8741817761,-31.2557332529,42.9203360531\H,0,31.5000703742,-30.616836
 4656,42.8460268865\H,0,31.4162142909,-28.3408044241,42.5267596994\H,0,
 28.881489441,-30.8140818201,40.0999868931\H,0,30.7471289736,-26.348727
 3174,41.1934785965\H,0,28.1917950786,-28.8379161958,38.8021440279\H,0,
 28.456749121,-26.5508260204,38.5383545928\H,0,32.2988694005,-31.017555
 2044,40.1600907995\H,0,32.0510918205,-32.5764893676,39.5878494077\N,0,
 33.3075519895,-32.758527535,42.1838215771\C,0,34.4891931907,-33.202025
 6327,42.9165307185\C,0,35.4862709319,-32.0347560166,42.9155239482\O,0,
 36.7144223397,-32.2244664552,42.8261645535\C,0,34.2218467405,-33.71561
 32999,44.3640701155\C,0,33.602152142,-32.6621093434,45.2911235147\C,0,
 35.5113778452,-34.2920731138,44.9678888565\H,0,33.50157937,-32.3054740
 95,41.2985313602\H,0,34.9940247243,-34.0083185642,42.3685547679\H,0,33
 .4946455368,-34.5229712859,44.2489139607\H,0,33.3568928002,-33.1227339
 044,46.2532413243\H,0,34.2953945594,-31.8351060274,45.4890351319\H,0,3
 2.6727282207,-32.2584796038,44.8826406485\H,0,35.9566467285,-35.058311
 9069,44.322944066\H,0,35.2920502262,-34.7547622511,45.9351327405\H,0,3
 6.2653826459,-33.5130073843,45.1358308437\N,0,34.9423283756,-30.807774
 5364,43.0260912402\C,0,35.62916516,-29.5463265115,42.7931700621\C,0,34
 .8693290337,-28.6756602962,41.7767191979\O,0,35.2508068187,-27.5838986
 741,41.4405281938\C,0,35.814126443,-28.7019836905,44.0789647167\C,0,36
 .5923887712,-29.3431531814,45.2390658566\C,0,38.1127520693,-29.5047163
 219,45.0540177638\N,0,38.4322548483,-30.7039558139,44.2713622373\C,0,3
 9.4129207084,-31.5686859259,44.5080176467\N,0,40.4824020441,-31.234515
 9788,45.2530897524\N,0,39.3136166319,-32.8155168217,44.0119719677\O,0,
 33.71354343,-29.246918816,41.3602370421\H,0,33.2003501394,-28.59193714
 22,40.8426308929\H,0,33.9283721347,-30.7847617007,43.032334903\H,0,36.
 5997356961,-29.7720797682,42.3399696098\H,0,34.8140145324,-28.44638389
 4,44.4508930135\H,0,36.2852623012,-27.7592371088,43.7816583775\H,0,36.
 1587238776,-30.3141641494,45.5084371811\H,0,36.4496281442,-28.69454662
 95,46.1105663388\H,0,38.5805784989,-29.6048522696,46.0393859385\H,0,38
 .5360878812,-28.6155188055,44.5695243638\H,0,37.7154966161,-31.0696820
 952,43.6269736292\H,0,41.1398995734,-31.9338766489,45.5659407009\H,0,4
 0.6981402289,-30.2693456236,45.4524897874\H,0,40.1396505376,-33.375515
 4312,43.8567347213\H,0,38.4613608089,-33.0724014463,43.517864688\\Vers
 ion=ES64L-G16RevC.01\HF=-1486.564147\RMSD=2.024e-09\Dipole=6.535498,-0
 .816415,1.842566\Quadrupole=-51.780498,-1653.7321132,1705.5126113,-417
 8.2094759,5874.3105899,-4847.2091692\PG=C01 [X(C20H33N6O5)]\\@
 The archive entry for this job was punched.


 LIFE IS A CONTINUAL STRUGGLE AGAINST THE TENDENCY TO PRODUCE ENTROPY.
 Job cpu time:       0 days  0 hours  1 minutes  5.1 seconds.
 Elapsed time:       0 days  0 hours  0 minutes 16.8 seconds.
 File lengths (MBytes):  RWF=    264 Int=      0 D2E=      0 Chk=     40 Scr=     16
 Normal termination of Gaussian 16 at Tue May 31 11:31:54 2022.
