 Entering Gaussian System, Link 0=/opt/software/Gaussian/g16-AVX2-C.01/g16/g16
 Input=charge-conf-304.com
 Output=charge-conf-304.log
 Initial command:
 /opt/software/Gaussian/g16-AVX2-C.01/g16/l1.exe "/mnt/gs18/scratch/users/kengmith/Gau-64053.inp" -scrdir="/mnt/gs18/scratch/users/kengmith/"
 Entering Link 1 = /opt/software/Gaussian/g16-AVX2-C.01/g16/l1.exe PID=     64065.
  
 Copyright (c) 1988-2019, Gaussian, Inc.  All Rights Reserved.
  
 This is part of the Gaussian(R) 16 program.  It is based on
 the Gaussian(R) 09 system (copyright 2009, Gaussian, Inc.),
 the Gaussian(R) 03 system (copyright 2003, Gaussian, Inc.),
 the Gaussian(R) 98 system (copyright 1998, Gaussian, Inc.),
 the Gaussian(R) 94 system (copyright 1995, Gaussian, Inc.),
 the Gaussian 92(TM) system (copyright 1992, Gaussian, Inc.),
 the Gaussian 90(TM) system (copyright 1990, Gaussian, Inc.),
 the Gaussian 88(TM) system (copyright 1988, Gaussian, Inc.),
 the Gaussian 86(TM) system (copyright 1986, Carnegie Mellon
 University), and the Gaussian 82(TM) system (copyright 1983,
 Carnegie Mellon University). Gaussian is a federally registered
 trademark of Gaussian, Inc.
  
 This software contains proprietary and confidential information,
 including trade secrets, belonging to Gaussian, Inc.
  
 This software is provided under written license and may be
 used, copied, transmitted, or stored only in accord with that
 written license.
  
 The following legend is applicable only to US Government
 contracts under FAR:
  
                    RESTRICTED RIGHTS LEGEND
  
 Use, reproduction and disclosure by the US Government is
 subject to restrictions as set forth in subparagraphs (a)
 and (c) of the Commercial Computer Software - Restricted
 Rights clause in FAR 52.227-19.
  
 Gaussian, Inc.
 340 Quinnipiac St., Bldg. 40, Wallingford CT 06492
  
  
 ---------------------------------------------------------------
 Warning -- This program may not be used in any manner that
 competes with the business of Gaussian, Inc. or will provide
 assistance to any competitor of Gaussian, Inc.  The licensee
 of this program is prohibited from giving any competitor of
 Gaussian, Inc. access to this program.  By using this program,
 the user acknowledges that Gaussian, Inc. is engaged in the
 business of creating and licensing software in the field of
 computational chemistry and represents and warrants to the
 licensee that it is not a competitor of Gaussian, Inc. and that
 it will not use this program in any manner prohibited above.
 ---------------------------------------------------------------
  

 Cite this work as:
 Gaussian 16, Revision C.01,
 M. J. Frisch, G. W. Trucks, H. B. Schlegel, G. E. Scuseria, 
 M. A. Robb, J. R. Cheeseman, G. Scalmani, V. Barone, 
 G. A. Petersson, H. Nakatsuji, X. Li, M. Caricato, A. V. Marenich, 
 J. Bloino, B. G. Janesko, R. Gomperts, B. Mennucci, H. P. Hratchian, 
 J. V. Ortiz, A. F. Izmaylov, J. L. Sonnenberg, D. Williams-Young, 
 F. Ding, F. Lipparini, F. Egidi, J. Goings, B. Peng, A. Petrone, 
 T. Henderson, D. Ranasinghe, V. G. Zakrzewski, J. Gao, N. Rega, 
 G. Zheng, W. Liang, M. Hada, M. Ehara, K. Toyota, R. Fukuda, 
 J. Hasegawa, M. Ishida, T. Nakajima, Y. Honda, O. Kitao, H. Nakai, 
 T. Vreven, K. Throssell, J. A. Montgomery, Jr., J. E. Peralta, 
 F. Ogliaro, M. J. Bearpark, J. J. Heyd, E. N. Brothers, K. N. Kudin, 
 V. N. Staroverov, T. A. Keith, R. Kobayashi, J. Normand, 
 K. Raghavachari, A. P. Rendell, J. C. Burant, S. S. Iyengar, 
 J. Tomasi, M. Cossi, J. M. Millam, M. Klene, C. Adamo, R. Cammi, 
 J. W. Ochterski, R. L. Martin, K. Morokuma, O. Farkas, 
 J. B. Foresman, and D. J. Fox, Gaussian, Inc., Wallingford CT, 2019.
 
 ******************************************
 Gaussian 16:  ES64L-G16RevC.01  3-Jul-2019
                31-May-2022 
 ******************************************
 %mem=8gb
 %nproc=4
 Will use up to    4 processors via shared memory.
 %chk=conf-304.chk
 ----------------------------------------------------------------------
 # B3LYP/6-31G* empiricaldispersion=gd3 guess=read geom=check nosymm in
 tegral(ultrafinegrid)
 ----------------------------------------------------------------------
 1/29=2,38=1,172=1/1;
 2/12=2,15=1,40=1/2;
 3/5=1,6=6,7=1,11=2,14=-4,25=1,30=1,74=-5,75=-5,116=-2,124=31/1,2,3;
 4/5=1/1;
 5/5=2,38=6/2;
 6/7=2,8=2,9=2,10=2,28=1/1;
 99/5=1,9=1/99;
 ------------------------------------------------------
 Candidate Structure: Conf:304 Charge calc in gas phase
 ------------------------------------------------------
 Structure from the checkpoint file:  "conf-304.chk"
 Charge =  1 Multiplicity = 1
 Redundant internal coordinates found in file.  (old form).
 N,0,33.8508375002,-31.0240710825,39.8123273108
 C,0,33.7295196216,-29.6124181391,40.172874422
 C,0,33.3562722712,-29.4609807622,41.6642613175
 O,0,32.4645271693,-30.1828941033,42.1327336982
 C,0,34.9719775573,-28.8255336093,39.7027546312
 C,0,35.125586487,-28.8032877196,38.1981226721
 C,0,35.7391375605,-29.8542892674,37.5094078125
 C,0,34.6224739147,-27.7286298469,37.4521873216
 C,0,35.851488088,-29.836978026,36.1209556834
 C,0,34.7225443662,-27.6966548212,36.0651065672
 C,0,35.34075178,-28.7561853362,35.3922254125
 O,0,35.417169846,-28.6724812821,34.0330249856
 H,0,32.8595463181,-29.2183463075,39.6299996727
 H,0,34.8949633532,-27.7862874378,40.0493836898
 H,0,35.86570861,-29.2568539227,40.177761917
 H,0,36.1264904077,-30.7048867966,38.0621048187
 H,0,34.1440597317,-26.8956179093,37.963903429
 H,0,36.3345566448,-30.6626620148,35.6021555283
 H,0,34.3363250837,-26.8627452986,35.4883261918
 H,0,35.8616339931,-29.4605510291,33.6838382072
 H,0,34.6127108041,-31.4501582918,40.3404295177
 H,0,32.9987085743,-31.5101650828,40.0860545645
 N,0,34.03185883,-28.5732171537,42.4395391025
 C,0,33.558251783,-28.1476677352,43.7642620175
 C,0,33.4172800815,-29.3090676852,44.7514268411
 O,0,32.6468882669,-29.2461235346,45.6984327411
 C,0,34.4811909685,-27.0265101629,44.3134616634
 C,0,35.9053035737,-27.5270165432,44.6013014589
 C,0,33.8660659695,-26.3509971452,45.5462298734
 H,0,34.7009341727,-27.9660098882,41.9860810981
 H,0,32.5407891779,-27.7530596246,43.6649349681
 H,0,34.5333741266,-26.272536159,43.512714068
 H,0,36.3631210649,-28.0150597324,43.7321251164
 H,0,36.5486197901,-26.6886844349,44.8857393054
 H,0,35.9076147214,-28.2455599544,45.4286365902
 H,0,33.7691853586,-27.0549626483,46.3774716086
 H,0,32.8683039629,-25.9558924333,45.3287703124
 H,0,34.4999966814,-25.5184924087,45.868191959
 N,0,34.1982793173,-30.4158910123,44.5401006217
 C,0,33.9728278747,-31.5982331573,45.3446471073
 C,0,32.566430838,-32.2037514456,45.1533239899
 O,0,32.1418076955,-33.0116913464,45.97204465
 C,0,35.0811339175,-32.6385393529,45.0683165352
 C,0,35.096445559,-33.8401307284,46.0388003015
 C,0,34.3623629875,-35.0807632254,45.502143276
 N,0,34.2278219129,-36.1372457742,46.5174065998
 C,0,33.2578627316,-36.1951082704,47.4438210936
 N,0,32.3374637268,-35.2434907649,47.5503242855
 N,0,33.2404748842,-37.2499645728,48.287842823
 O,0,31.8571277316,-31.9133306796,44.0878314827
 H,0,32.2196217495,-31.1948690479,43.5018232985
 H,0,34.7497652786,-30.4745163038,43.6957333187
 H,0,34.0083160541,-31.3074883798,46.3988966779
 H,0,36.0327483259,-32.1026949487,45.1501064752
 H,0,35.0089189148,-32.9868087344,44.0276120183
 H,0,34.6531257778,-33.5435077921,46.9949618276
 H,0,36.1342473348,-34.1221659381,46.2505195672
 H,0,34.9097741181,-35.5207350543,44.6635550028
 H,0,33.363737134,-34.8358098592,45.1385994075
 H,0,35.0327349673,-36.7306597271,46.6721476452
 H,0,31.5013029415,-35.4102232806,48.0932346606
 H,0,32.3599338561,-34.3675339485,47.0052373021
 H,0,32.5807549026,-37.2887425665,49.0514144519
 H,0,33.7087452459,-38.1122276884,48.0487186649
 Recover connectivity data from disk.
                           ----------------------------
                           !    Current Parameters    !
                           ! (Angstroms and Degrees)  !
 --------------------------                            --------------------------
 ! Name  Definition              Value                                          !
 --------------------------------------------------------------------------------
 ! R1    R(1,2)                  1.462                                          !
 ! R2    R(1,21)                 1.0202                                         !
 ! R3    R(1,22)                 1.0185                                         !
 ! R4    R(2,3)                  1.5448                                         !
 ! R5    R(2,5)                  1.544                                          !
 ! R6    R(2,13)                 1.0986                                         !
 ! R7    R(3,4)                  1.2393                                         !
 ! R8    R(3,23)                 1.3585                                         !
 ! R9    R(5,6)                  1.5126                                         !
 ! R10   R(5,14)                 1.0982                                         !
 ! R11   R(5,15)                 1.1002                                         !
 ! R12   R(6,7)                  1.3983                                         !
 ! R13   R(6,8)                  1.4016                                         !
 ! R14   R(7,9)                  1.3931                                         !
 ! R15   R(7,16)                 1.0858                                         !
 ! R16   R(8,10)                 1.3911                                         !
 ! R17   R(8,17)                 1.0884                                         !
 ! R18   R(9,11)                 1.4                                            !
 ! R19   R(9,18)                 1.0882                                         !
 ! R20   R(10,11)                1.3991                                         !
 ! R21   R(10,19)                1.085                                          !
 ! R22   R(11,12)                1.3639                                         !
 ! R23   R(12,20)                0.9698                                         !
 ! R24   R(23,24)                1.4698                                         !
 ! R25   R(23,30)                1.0109                                         !
 ! R26   R(24,25)                1.5308                                         !
 ! R27   R(24,27)                1.5526                                         !
 ! R28   R(24,31)                1.0958                                         !
 ! R29   R(25,26)                1.2224                                         !
 ! R30   R(25,39)                1.371                                          !
 ! R31   R(27,28)                1.5367                                         !
 ! R32   R(27,29)                1.5344                                         !
 ! R33   R(27,32)                1.1011                                         !
 ! R34   R(28,33)                1.0969                                         !
 ! R35   R(28,34)                1.0943                                         !
 ! R36   R(28,35)                1.0958                                         !
 ! R37   R(29,36)                1.0936                                         !
 ! R38   R(29,37)                1.095                                          !
 ! R39   R(29,38)                1.0948                                         !
 ! R40   R(39,40)                1.4478                                         !
 ! R41   R(39,52)                1.0102                                         !
 ! R42   R(40,41)                1.5431                                         !
 ! R43   R(40,43)                1.545                                          !
 ! R44   R(40,53)                1.0942                                         !
 ! R45   R(41,42)                1.2261                                         !
 ! R46   R(41,50)                1.3125                                         !
 ! R47   R(43,44)                1.5446                                         !
 ! R48   R(43,54)                1.0952                                         !
 ! R49   R(43,55)                1.0998                                         !
 ! R50   R(44,45)                1.5382                                         !
 ! R51   R(44,56)                1.0949                                         !
 ! R52   R(44,57)                1.0961                                         !
 ! R53   R(45,46)                1.4714                                         !
 ! R54   R(45,58)                1.0938                                         !
 ! R55   R(45,59)                1.0906                                         !
 ! R56   R(46,47)                1.3425                                         !
 ! R57   R(46,60)                1.0119                                         !
 ! R58   R(47,48)                1.3282                                         !
 ! R59   R(47,49)                1.3511                                         !
 ! R60   R(48,61)                1.0108                                         !
 ! R61   R(48,62)                1.032                                          !
 ! R62   R(49,63)                1.0098                                         !
 ! R63   R(49,64)                1.0099                                         !
 ! R64   R(50,51)                0.9955                                         !
 ! A1    A(2,1,21)             109.7285                                         !
 ! A2    A(2,1,22)             108.973                                          !
 ! A3    A(21,1,22)            106.639                                          !
 ! A4    A(1,2,3)              110.6575                                         !
 ! A5    A(1,2,5)              110.5011                                         !
 ! A6    A(1,2,13)             106.8702                                         !
 ! A7    A(3,2,5)              116.003                                          !
 ! A8    A(3,2,13)             104.5113                                         !
 ! A9    A(5,2,13)             107.6966                                         !
 ! A10   A(2,3,4)              118.796                                          !
 ! A11   A(2,3,23)             119.6594                                         !
 ! A12   A(4,3,23)             121.5184                                         !
 ! A13   A(2,5,6)              113.0847                                         !
 ! A14   A(2,5,14)             109.2528                                         !
 ! A15   A(2,5,15)             108.8102                                         !
 ! A16   A(6,5,14)             107.8883                                         !
 ! A17   A(6,5,15)             110.6551                                         !
 ! A18   A(14,5,15)            106.9585                                         !
 ! A19   A(5,6,7)              121.5622                                         !
 ! A20   A(5,6,8)              120.2798                                         !
 ! A21   A(7,6,8)              118.1424                                         !
 ! A22   A(6,7,9)              121.1261                                         !
 ! A23   A(6,7,16)             119.6435                                         !
 ! A24   A(9,7,16)             119.2272                                         !
 ! A25   A(6,8,10)             121.4995                                         !
 ! A26   A(6,8,17)             119.6295                                         !
 ! A27   A(10,8,17)            118.8707                                         !
 ! A28   A(7,9,11)             119.931                                          !
 ! A29   A(7,9,18)             120.1003                                         !
 ! A30   A(11,9,18)            119.9687                                         !
 ! A31   A(8,10,11)            119.5996                                         !
 ! A32   A(8,10,19)            121.4753                                         !
 ! A33   A(11,10,19)           118.924                                          !
 ! A34   A(9,11,10)            119.701                                          !
 ! A35   A(9,11,12)            123.0696                                         !
 ! A36   A(10,11,12)           117.229                                          !
 ! A37   A(11,12,20)           109.5494                                         !
 ! A38   A(3,23,24)            122.9092                                         !
 ! A39   A(3,23,30)            117.7525                                         !
 ! A40   A(24,23,30)           116.3364                                         !
 ! A41   A(23,24,25)           113.0318                                         !
 ! A42   A(23,24,27)           109.6548                                         !
 ! A43   A(23,24,31)           108.769                                          !
 ! A44   A(25,24,27)           111.9944                                         !
 ! A45   A(25,24,31)           104.2504                                         !
 ! A46   A(27,24,31)           108.9037                                         !
 ! A47   A(24,25,26)           121.2362                                         !
 ! A48   A(24,25,39)           117.4288                                         !
 ! A49   A(26,25,39)           121.3315                                         !
 ! A50   A(24,27,28)           112.4556                                         !
 ! A51   A(24,27,29)           111.3339                                         !
 ! A52   A(24,27,32)           105.3912                                         !
 ! A53   A(28,27,29)           111.3716                                         !
 ! A54   A(28,27,32)           108.3803                                         !
 ! A55   A(29,27,32)           107.5664                                         !
 ! A56   A(27,28,33)           112.5367                                         !
 ! A57   A(27,28,34)           110.1188                                         !
 ! A58   A(27,28,35)           110.9126                                         !
 ! A59   A(33,28,34)           107.544                                          !
 ! A60   A(33,28,35)           107.7955                                         !
 ! A61   A(34,28,35)           107.749                                          !
 ! A62   A(27,29,36)           111.2725                                         !
 ! A63   A(27,29,37)           111.383                                          !
 ! A64   A(27,29,38)           109.8104                                         !
 ! A65   A(36,29,37)           107.6087                                         !
 ! A66   A(36,29,38)           108.4974                                         !
 ! A67   A(37,29,38)           108.159                                          !
 ! A68   A(25,39,40)           119.0078                                         !
 ! A69   A(25,39,52)           119.1215                                         !
 ! A70   A(40,39,52)           120.139                                          !
 ! A71   A(39,40,41)           113.1714                                         !
 ! A72   A(39,40,43)           109.8035                                         !
 ! A73   A(39,40,53)           108.2629                                         !
 ! A74   A(41,40,43)           111.5558                                         !
 ! A75   A(41,40,53)           104.6722                                         !
 ! A76   A(43,40,53)           109.1466                                         !
 ! A77   A(40,41,42)           119.4333                                         !
 ! A78   A(40,41,50)           120.4212                                         !
 ! A79   A(42,41,50)           120.0468                                         !
 ! A80   A(40,43,44)           114.7427                                         !
 ! A81   A(40,43,54)           106.2911                                         !
 ! A82   A(40,43,55)           109.595                                          !
 ! A83   A(44,43,54)           108.9706                                         !
 ! A84   A(44,43,55)           110.4166                                         !
 ! A85   A(54,43,55)           106.4192                                         !
 ! A86   A(43,44,45)           113.7966                                         !
 ! A87   A(43,44,56)           109.5072                                         !
 ! A88   A(43,44,57)           109.3242                                         !
 ! A89   A(45,44,56)           109.2663                                         !
 ! A90   A(45,44,57)           108.1627                                         !
 ! A91   A(56,44,57)           106.5228                                         !
 ! A92   A(44,45,46)           112.4588                                         !
 ! A93   A(44,45,58)           110.6746                                         !
 ! A94   A(44,45,59)           111.8471                                         !
 ! A95   A(46,45,58)           106.6152                                         !
 ! A96   A(46,45,59)           107.9115                                         !
 ! A97   A(58,45,59)           107.0395                                         !
 ! A98   A(45,46,47)           124.9694                                         !
 ! A99   A(45,46,60)           116.9905                                         !
 ! A100  A(47,46,60)           116.3524                                         !
 ! A101  A(46,47,48)           121.6762                                         !
 ! A102  A(46,47,49)           118.2958                                         !
 ! A103  A(48,47,49)           120.0256                                         !
 ! A104  A(47,48,61)           119.8767                                         !
 ! A105  A(47,48,62)           123.4172                                         !
 ! A106  A(61,48,62)           116.2146                                         !
 ! A107  A(47,49,63)           120.7137                                         !
 ! A108  A(47,49,64)           120.845                                          !
 ! A109  A(63,49,64)           116.6896                                         !
 ! A110  A(41,50,51)           116.1537                                         !
 ! D1    D(21,1,2,3)           -63.1771                                         !
 ! D2    D(21,1,2,5)            66.7039                                         !
 ! D3    D(21,1,2,13)         -176.3909                                         !
 ! D4    D(22,1,2,3)            53.2439                                         !
 ! D5    D(22,1,2,5)          -176.8751                                         !
 ! D6    D(22,1,2,13)          -59.97                                           !
 ! D7    D(1,2,3,4)            -45.0364                                         !
 ! D8    D(1,2,3,23)           133.1276                                         !
 ! D9    D(5,2,3,4)           -171.9318                                         !
 ! D10   D(5,2,3,23)             6.2321                                         !
 ! D11   D(13,2,3,4)            69.6688                                         !
 ! D12   D(13,2,3,23)         -112.1672                                         !
 ! D13   D(1,2,5,6)             64.0645                                         !
 ! D14   D(1,2,5,14)          -175.7669                                         !
 ! D15   D(1,2,5,15)           -59.3204                                         !
 ! D16   D(3,2,5,6)           -168.9619                                         !
 ! D17   D(3,2,5,14)           -48.7933                                         !
 ! D18   D(3,2,5,15)            67.6532                                         !
 ! D19   D(13,2,5,6)           -52.3282                                         !
 ! D20   D(13,2,5,14)           67.8404                                         !
 ! D21   D(13,2,5,15)         -175.7131                                         !
 ! D22   D(2,3,23,24)          165.8829                                         !
 ! D23   D(2,3,23,30)            6.2227                                         !
 ! D24   D(4,3,23,24)          -16.0046                                         !
 ! D25   D(4,3,23,30)         -175.6647                                         !
 ! D26   D(2,5,6,7)            -83.7573                                         !
 ! D27   D(2,5,6,8)             94.7842                                         !
 ! D28   D(14,5,6,7)           155.2976                                         !
 ! D29   D(14,5,6,8)           -26.1609                                         !
 ! D30   D(15,5,6,7)            38.6036                                         !
 ! D31   D(15,5,6,8)          -142.8549                                         !
 ! D32   D(5,6,7,9)            178.6785                                         !
 ! D33   D(5,6,7,16)            -0.6737                                         !
 ! D34   D(8,6,7,9)              0.1069                                         !
 ! D35   D(8,6,7,16)          -179.2453                                         !
 ! D36   D(5,6,8,10)          -178.5096                                         !
 ! D37   D(5,6,8,17)             1.6739                                         !
 ! D38   D(7,6,8,10)             0.0811                                         !
 ! D39   D(7,6,8,17)          -179.7354                                         !
 ! D40   D(6,7,9,11)            -0.2292                                         !
 ! D41   D(6,7,9,18)           179.8389                                         !
 ! D42   D(16,7,9,11)          179.1256                                         !
 ! D43   D(16,7,9,18)           -0.8063                                         !
 ! D44   D(6,8,10,11)           -0.1445                                         !
 ! D45   D(6,8,10,19)         -179.762                                          !
 ! D46   D(17,8,10,11)         179.6734                                         !
 ! D47   D(17,8,10,19)           0.0559                                         !
 ! D48   D(7,9,11,10)            0.1632                                         !
 ! D49   D(7,9,11,12)          179.9152                                         !
 ! D50   D(18,9,11,10)        -179.9049                                         !
 ! D51   D(18,9,11,12)          -0.1528                                         !
 ! D52   D(8,10,11,9)            0.0207                                         !
 ! D53   D(8,10,11,12)        -179.7456                                         !
 ! D54   D(19,10,11,9)         179.648                                          !
 ! D55   D(19,10,11,12)         -0.1183                                         !
 ! D56   D(9,11,12,20)           0.3492                                         !
 ! D57   D(10,11,12,20)       -179.893                                          !
 ! D58   D(3,23,24,25)          60.0143                                         !
 ! D59   D(3,23,24,27)        -174.2552                                         !
 ! D60   D(3,23,24,31)         -55.2614                                         !
 ! D61   D(30,23,24,25)       -140.0595                                         !
 ! D62   D(30,23,24,27)        -14.329                                          !
 ! D63   D(30,23,24,31)        104.6649                                         !
 ! D64   D(23,24,25,26)       -155.0317                                         !
 ! D65   D(23,24,25,39)         25.6326                                         !
 ! D66   D(27,24,25,26)         80.5042                                         !
 ! D67   D(27,24,25,39)        -98.8314                                         !
 ! D68   D(31,24,25,26)        -37.0821                                         !
 ! D69   D(31,24,25,39)        143.5822                                         !
 ! D70   D(23,24,27,28)        -66.1025                                         !
 ! D71   D(23,24,27,29)        168.1126                                         !
 ! D72   D(23,24,27,32)         51.7801                                         !
 ! D73   D(25,24,27,28)         60.2193                                         !
 ! D74   D(25,24,27,29)        -65.5656                                         !
 ! D75   D(25,24,27,32)        178.1018                                         !
 ! D76   D(31,24,27,28)        174.9867                                         !
 ! D77   D(31,24,27,29)         49.2019                                         !
 ! D78   D(31,24,27,32)        -67.1307                                         !
 ! D79   D(24,25,39,40)       -172.1361                                         !
 ! D80   D(24,25,39,52)         -7.0993                                         !
 ! D81   D(26,25,39,40)          8.529                                          !
 ! D82   D(26,25,39,52)        173.5658                                         !
 ! D83   D(24,27,28,33)         54.154                                          !
 ! D84   D(24,27,28,34)        174.1261                                         !
 ! D85   D(24,27,28,35)        -66.6956                                         !
 ! D86   D(29,27,28,33)        179.9184                                         !
 ! D87   D(29,27,28,34)        -60.1095                                         !
 ! D88   D(29,27,28,35)         59.0688                                         !
 ! D89   D(32,27,28,33)        -61.9469                                         !
 ! D90   D(32,27,28,34)         58.0253                                         !
 ! D91   D(32,27,28,35)        177.2035                                         !
 ! D92   D(24,27,29,36)         63.9913                                         !
 ! D93   D(24,27,29,37)        -56.08                                           !
 ! D94   D(24,27,29,38)       -175.8682                                         !
 ! D95   D(28,27,29,36)        -62.392                                          !
 ! D96   D(28,27,29,37)        177.5368                                         !
 ! D97   D(28,27,29,38)         57.7485                                         !
 ! D98   D(32,27,29,36)        178.9846                                         !
 ! D99   D(32,27,29,37)         58.9133                                         !
 ! D100  D(32,27,29,38)        -60.875                                          !
 ! D101  D(25,39,40,41)         62.271                                          !
 ! D102  D(25,39,40,43)       -172.3565                                         !
 ! D103  D(25,39,40,53)        -53.2835                                         !
 ! D104  D(52,39,40,41)       -102.6103                                         !
 ! D105  D(52,39,40,43)         22.7622                                         !
 ! D106  D(52,39,40,53)        141.8351                                         !
 ! D107  D(39,40,41,42)       -164.0281                                         !
 ! D108  D(39,40,41,50)         19.583                                          !
 ! D109  D(43,40,41,42)         71.5477                                         !
 ! D110  D(43,40,41,50)       -104.8412                                         !
 ! D111  D(53,40,41,42)        -46.3547                                         !
 ! D112  D(53,40,41,50)        137.2564                                         !
 ! D113  D(39,40,43,44)        169.8439                                         !
 ! D114  D(39,40,43,54)         49.3398                                         !
 ! D115  D(39,40,43,55)        -65.282                                          !
 ! D116  D(41,40,43,44)        -63.8631                                         !
 ! D117  D(41,40,43,54)        175.6328                                         !
 ! D118  D(41,40,43,55)         61.011                                          !
 ! D119  D(53,40,43,44)         51.3151                                         !
 ! D120  D(53,40,43,54)        -69.189                                          !
 ! D121  D(53,40,43,55)        176.1892                                         !
 ! D122  D(40,41,50,51)         -8.6257                                         !
 ! D123  D(42,41,50,51)        175.0076                                         !
 ! D124  D(40,43,44,45)         96.5133                                         !
 ! D125  D(40,43,44,56)        -26.0888                                         !
 ! D126  D(40,43,44,57)       -142.4453                                         !
 ! D127  D(54,43,44,45)       -144.4722                                         !
 ! D128  D(54,43,44,56)         92.9258                                         !
 ! D129  D(54,43,44,57)        -23.4307                                         !
 ! D130  D(55,43,44,45)        -27.9281                                         !
 ! D131  D(55,43,44,56)       -150.5301                                         !
 ! D132  D(55,43,44,57)         93.1133                                         !
 ! D133  D(43,44,45,46)       -171.84                                           !
 ! D134  D(43,44,45,58)         69.0362                                         !
 ! D135  D(43,44,45,59)        -50.2209                                         !
 ! D136  D(56,44,45,46)        -49.1057                                         !
 ! D137  D(56,44,45,58)       -168.2295                                         !
 ! D138  D(56,44,45,59)         72.5133                                         !
 ! D139  D(57,44,45,46)         66.472                                          !
 ! D140  D(57,44,45,58)        -52.6518                                         !
 ! D141  D(57,44,45,59)       -171.909                                          !
 ! D142  D(44,45,46,47)         83.9253                                         !
 ! D143  D(44,45,46,60)        -80.6806                                         !
 ! D144  D(58,45,46,47)       -154.606                                          !
 ! D145  D(58,45,46,60)         40.7881                                         !
 ! D146  D(59,45,46,47)        -39.9088                                         !
 ! D147  D(59,45,46,60)        155.4854                                         !
 ! D148  D(45,46,47,48)         -2.5076                                         !
 ! D149  D(45,46,47,49)        178.0667                                         !
 ! D150  D(60,46,47,48)        162.1862                                         !
 ! D151  D(60,46,47,49)        -17.2394                                         !
 ! D152  D(46,47,48,61)        165.313                                          !
 ! D153  D(46,47,48,62)         -6.3338                                         !
 ! D154  D(49,47,48,61)        -15.2711                                         !
 ! D155  D(49,47,48,62)        173.0821                                         !
 ! D156  D(46,47,49,63)        174.3344                                         !
 ! D157  D(46,47,49,64)        -21.2402                                         !
 ! D158  D(48,47,49,63)         -5.101                                          !
 ! D159  D(48,47,49,64)        159.3244                                         !
 --------------------------------------------------------------------------------
 Symmetry turned off by external request.
 Stoichiometry    C20H33N6O5(1+)
 Framework group  C1[X(C20H33N6O5)]
 Deg. of freedom   186
 Full point group                 C1      NOp   1
                          Input orientation:                          
 ---------------------------------------------------------------------
 Center     Atomic      Atomic             Coordinates (Angstroms)
 Number     Number       Type             X           Y           Z
 ---------------------------------------------------------------------
      1          7           0       33.850838  -31.024071   39.812327
      2          6           0       33.729520  -29.612418   40.172874
      3          6           0       33.356272  -29.460981   41.664261
      4          8           0       32.464527  -30.182894   42.132734
      5          6           0       34.971978  -28.825534   39.702755
      6          6           0       35.125586  -28.803288   38.198123
      7          6           0       35.739138  -29.854289   37.509408
      8          6           0       34.622474  -27.728630   37.452187
      9          6           0       35.851488  -29.836978   36.120956
     10          6           0       34.722544  -27.696655   36.065107
     11          6           0       35.340752  -28.756185   35.392225
     12          8           0       35.417170  -28.672481   34.033025
     13          1           0       32.859546  -29.218346   39.630000
     14          1           0       34.894963  -27.786287   40.049384
     15          1           0       35.865709  -29.256854   40.177762
     16          1           0       36.126490  -30.704887   38.062105
     17          1           0       34.144060  -26.895618   37.963903
     18          1           0       36.334557  -30.662662   35.602156
     19          1           0       34.336325  -26.862745   35.488326
     20          1           0       35.861634  -29.460551   33.683838
     21          1           0       34.612711  -31.450158   40.340430
     22          1           0       32.998709  -31.510165   40.086055
     23          7           0       34.031859  -28.573217   42.439539
     24          6           0       33.558252  -28.147668   43.764262
     25          6           0       33.417280  -29.309068   44.751427
     26          8           0       32.646888  -29.246124   45.698433
     27          6           0       34.481191  -27.026510   44.313462
     28          6           0       35.905304  -27.527017   44.601301
     29          6           0       33.866066  -26.350997   45.546230
     30          1           0       34.700934  -27.966010   41.986081
     31          1           0       32.540789  -27.753060   43.664935
     32          1           0       34.533374  -26.272536   43.512714
     33          1           0       36.363121  -28.015060   43.732125
     34          1           0       36.548620  -26.688684   44.885739
     35          1           0       35.907615  -28.245560   45.428637
     36          1           0       33.769185  -27.054963   46.377472
     37          1           0       32.868304  -25.955892   45.328770
     38          1           0       34.499997  -25.518492   45.868192
     39          7           0       34.198279  -30.415891   44.540101
     40          6           0       33.972828  -31.598233   45.344647
     41          6           0       32.566431  -32.203751   45.153324
     42          8           0       32.141808  -33.011691   45.972045
     43          6           0       35.081134  -32.638539   45.068317
     44          6           0       35.096446  -33.840131   46.038800
     45          6           0       34.362363  -35.080763   45.502143
     46          7           0       34.227822  -36.137246   46.517407
     47          6           0       33.257863  -36.195108   47.443821
     48          7           0       32.337464  -35.243491   47.550324
     49          7           0       33.240475  -37.249965   48.287843
     50          8           0       31.857128  -31.913331   44.087831
     51          1           0       32.219622  -31.194869   43.501823
     52          1           0       34.749765  -30.474516   43.695733
     53          1           0       34.008316  -31.307488   46.398897
     54          1           0       36.032748  -32.102695   45.150106
     55          1           0       35.008919  -32.986809   44.027612
     56          1           0       34.653126  -33.543508   46.994962
     57          1           0       36.134247  -34.122166   46.250520
     58          1           0       34.909774  -35.520735   44.663555
     59          1           0       33.363737  -34.835810   45.138599
     60          1           0       35.032735  -36.730660   46.672148
     61          1           0       31.501303  -35.410223   48.093235
     62          1           0       32.359934  -34.367534   47.005237
     63          1           0       32.580755  -37.288743   49.051414
     64          1           0       33.708745  -38.112228   48.048719
 ---------------------------------------------------------------------
 Rotational constants (GHZ):           0.2073064           0.0543076           0.0462830
 Standard basis: 6-31G(d) (6D, 7F)
   531 basis functions,  1000 primitive gaussians,   531 cartesian basis functions
   117 alpha electrons      117 beta electrons
       nuclear repulsion energy      3151.3091275517 Hartrees.
 NAtoms=   64 NActive=   64 NUniq=   64 SFac= 1.00D+00 NAtFMM=   60 NAOKFM=T Big=T
 Integral buffers will be    131072 words long.
 Raffenetti 2 integral format.
 Two-electron integral symmetry is turned off.
 Nuclear repulsion after empirical dispersion term =     3151.2321982736 Hartrees.
 One-electron integrals computed using PRISM.
 NBasis=   531 RedAO= T EigKep=  4.29D-04  NBF=   531
 NBsUse=   531 1.00D-06 EigRej= -1.00D+00 NBFU=   531
 Initial guess from the checkpoint file:  "conf-304.chk"
 B after Tr=     0.000000    0.000000    0.000000
         Rot=    1.000000    0.000000    0.000000    0.000000 Ang=   0.00 deg.
 Requested convergence on RMS density matrix=1.00D-08 within 128 cycles.
 Requested convergence on MAX density matrix=1.00D-06.
 Requested convergence on             energy=1.00D-06.
 No special actions if energy rises.
 SCF Done:  E(RB3LYP) =  -1486.56475163     A.U. after    1 cycles
            NFock=  1  Conv=0.97D-08     -V/T= 2.0094

 **********************************************************************

            Population analysis using the SCF Density.

 **********************************************************************

 Alpha  occ. eigenvalues --  -19.28021 -19.23958 -19.23028 -19.22723 -19.21185
 Alpha  occ. eigenvalues --  -14.52660 -14.52464 -14.50962 -14.47174 -14.46391
 Alpha  occ. eigenvalues --  -14.40077 -10.48635 -10.42449 -10.39147 -10.38431
 Alpha  occ. eigenvalues --  -10.36220 -10.34802 -10.33001 -10.31989 -10.31749
 Alpha  occ. eigenvalues --  -10.31309 -10.30374 -10.29199 -10.27772 -10.26483
 Alpha  occ. eigenvalues --  -10.25135 -10.24956 -10.24850 -10.24844 -10.24450
 Alpha  occ. eigenvalues --  -10.23861  -1.19928  -1.16993  -1.14544  -1.13341
 Alpha  occ. eigenvalues --   -1.11344  -1.11127  -1.06503  -1.04760  -1.03722
 Alpha  occ. eigenvalues --   -1.02559  -0.97596  -0.92595  -0.91017  -0.89896
 Alpha  occ. eigenvalues --   -0.87028  -0.84711  -0.81969  -0.80347  -0.80213
 Alpha  occ. eigenvalues --   -0.78291  -0.77636  -0.76610  -0.74607  -0.73694
 Alpha  occ. eigenvalues --   -0.73208  -0.71496  -0.70968  -0.70344  -0.68208
 Alpha  occ. eigenvalues --   -0.67697  -0.65953  -0.65774  -0.65121  -0.64880
 Alpha  occ. eigenvalues --   -0.64504  -0.62588  -0.61153  -0.60135  -0.59973
 Alpha  occ. eigenvalues --   -0.59050  -0.58560  -0.58037  -0.57831  -0.56820
 Alpha  occ. eigenvalues --   -0.54943  -0.54753  -0.54611  -0.53823  -0.53699
 Alpha  occ. eigenvalues --   -0.53001  -0.52538  -0.52043  -0.51538  -0.50950
 Alpha  occ. eigenvalues --   -0.50037  -0.49631  -0.49503  -0.48655  -0.48381
 Alpha  occ. eigenvalues --   -0.47807  -0.47742  -0.47038  -0.46423  -0.46335
 Alpha  occ. eigenvalues --   -0.46092  -0.45540  -0.45176  -0.44088  -0.43167
 Alpha  occ. eigenvalues --   -0.43062  -0.42802  -0.42608  -0.41975  -0.41919
 Alpha  occ. eigenvalues --   -0.41331  -0.40972  -0.39273  -0.39107  -0.38453
 Alpha  occ. eigenvalues --   -0.37612  -0.36668  -0.35232  -0.34295  -0.32446
 Alpha  occ. eigenvalues --   -0.30528  -0.27253
 Alpha virt. eigenvalues --   -0.12570  -0.09887  -0.09127  -0.08671  -0.07635
 Alpha virt. eigenvalues --   -0.05731  -0.04996  -0.04952  -0.03802  -0.03413
 Alpha virt. eigenvalues --   -0.01828  -0.01190  -0.00298   0.01018   0.01359
 Alpha virt. eigenvalues --    0.01875   0.01987   0.02225   0.02974   0.03063
 Alpha virt. eigenvalues --    0.03866   0.04179   0.04553   0.05048   0.05855
 Alpha virt. eigenvalues --    0.06262   0.06908   0.07014   0.07583   0.07982
 Alpha virt. eigenvalues --    0.08535   0.08988   0.09592   0.09838   0.10012
 Alpha virt. eigenvalues --    0.10163   0.10409   0.10706   0.10922   0.11393
 Alpha virt. eigenvalues --    0.11898   0.12389   0.12772   0.13357   0.13792
 Alpha virt. eigenvalues --    0.14075   0.14223   0.15332   0.16195   0.16600
 Alpha virt. eigenvalues --    0.16897   0.17548   0.18337   0.18609   0.19665
 Alpha virt. eigenvalues --    0.20596   0.22407   0.22886   0.24256   0.25051
 Alpha virt. eigenvalues --    0.26959   0.27895   0.28220   0.28724   0.29149
 Alpha virt. eigenvalues --    0.30713   0.31411   0.32220   0.34511   0.37431
 Alpha virt. eigenvalues --    0.38191   0.39247   0.39789   0.40877   0.41660
 Alpha virt. eigenvalues --    0.41847   0.42647   0.43025   0.43413   0.43939
 Alpha virt. eigenvalues --    0.44267   0.45188   0.45394   0.45890   0.46431
 Alpha virt. eigenvalues --    0.46895   0.47428   0.47910   0.48509   0.49109
 Alpha virt. eigenvalues --    0.49815   0.50203   0.50556   0.50753   0.51274
 Alpha virt. eigenvalues --    0.52022   0.52605   0.53019   0.53379   0.53727
 Alpha virt. eigenvalues --    0.54291   0.54959   0.55116   0.55513   0.56072
 Alpha virt. eigenvalues --    0.56332   0.56693   0.57440   0.57998   0.58131
 Alpha virt. eigenvalues --    0.59041   0.59464   0.59651   0.60342   0.61069
 Alpha virt. eigenvalues --    0.61713   0.62139   0.63094   0.63599   0.63767
 Alpha virt. eigenvalues --    0.64400   0.65848   0.66189   0.66509   0.67980
 Alpha virt. eigenvalues --    0.69164   0.69784   0.70303   0.71167   0.71820
 Alpha virt. eigenvalues --    0.72162   0.72412   0.72635   0.73010   0.73849
 Alpha virt. eigenvalues --    0.74211   0.74861   0.75355   0.75805   0.75989
 Alpha virt. eigenvalues --    0.76742   0.76896   0.77231   0.77715   0.78298
 Alpha virt. eigenvalues --    0.78603   0.79399   0.79926   0.80084   0.80953
 Alpha virt. eigenvalues --    0.81398   0.81681   0.82425   0.82810   0.82867
 Alpha virt. eigenvalues --    0.83457   0.83685   0.84400   0.84549   0.84973
 Alpha virt. eigenvalues --    0.85464   0.85474   0.85916   0.86293   0.87047
 Alpha virt. eigenvalues --    0.87348   0.88187   0.89214   0.89639   0.90056
 Alpha virt. eigenvalues --    0.91077   0.91458   0.91621   0.92349   0.93524
 Alpha virt. eigenvalues --    0.94069   0.95007   0.95449   0.96526   0.97199
 Alpha virt. eigenvalues --    0.97562   0.98149   0.99471   1.00323   1.01131
 Alpha virt. eigenvalues --    1.01739   1.03339   1.03587   1.05418   1.06469
 Alpha virt. eigenvalues --    1.06925   1.07546   1.08564   1.10624   1.11416
 Alpha virt. eigenvalues --    1.12675   1.13240   1.14952   1.15563   1.16341
 Alpha virt. eigenvalues --    1.16901   1.18017   1.18890   1.19582   1.21095
 Alpha virt. eigenvalues --    1.21158   1.22915   1.24371   1.25313   1.25634
 Alpha virt. eigenvalues --    1.27569   1.28803   1.29216   1.30141   1.31414
 Alpha virt. eigenvalues --    1.32165   1.33194   1.34210   1.36063   1.37479
 Alpha virt. eigenvalues --    1.38522   1.38726   1.39954   1.40649   1.40880
 Alpha virt. eigenvalues --    1.41960   1.42612   1.43602   1.44376   1.44607
 Alpha virt. eigenvalues --    1.45805   1.48575   1.49205   1.49663   1.49942
 Alpha virt. eigenvalues --    1.50979   1.53075   1.53989   1.54896   1.57553
 Alpha virt. eigenvalues --    1.59273   1.59529   1.60661   1.61447   1.62231
 Alpha virt. eigenvalues --    1.62888   1.64132   1.65770   1.66520   1.67266
 Alpha virt. eigenvalues --    1.67606   1.68191   1.69345   1.69835   1.70120
 Alpha virt. eigenvalues --    1.70507   1.71297   1.72539   1.72773   1.73473
 Alpha virt. eigenvalues --    1.74387   1.75012   1.75275   1.75817   1.76290
 Alpha virt. eigenvalues --    1.78000   1.78355   1.79164   1.80279   1.81342
 Alpha virt. eigenvalues --    1.81698   1.81933   1.82656   1.83247   1.84324
 Alpha virt. eigenvalues --    1.84669   1.85585   1.86422   1.87980   1.88113
 Alpha virt. eigenvalues --    1.89172   1.89700   1.90002   1.91570   1.92105
 Alpha virt. eigenvalues --    1.92408   1.92816   1.93394   1.94943   1.96027
 Alpha virt. eigenvalues --    1.96194   1.97320   1.97878   1.98579   1.99120
 Alpha virt. eigenvalues --    2.00238   2.00802   2.01261   2.02064   2.02358
 Alpha virt. eigenvalues --    2.03171   2.04854   2.05011   2.05640   2.07547
 Alpha virt. eigenvalues --    2.08541   2.09026   2.09234   2.11067   2.12362
 Alpha virt. eigenvalues --    2.14218   2.15348   2.15893   2.18393   2.19511
 Alpha virt. eigenvalues --    2.20112   2.20836   2.21922   2.22257   2.23482
 Alpha virt. eigenvalues --    2.24000   2.25203   2.25811   2.27019   2.28810
 Alpha virt. eigenvalues --    2.29494   2.30008   2.30634   2.31597   2.33923
 Alpha virt. eigenvalues --    2.34190   2.34795   2.35437   2.36250   2.37638
 Alpha virt. eigenvalues --    2.39421   2.40232   2.41703   2.42256   2.43378
 Alpha virt. eigenvalues --    2.44180   2.45958   2.46635   2.46914   2.47526
 Alpha virt. eigenvalues --    2.49962   2.51811   2.52123   2.53617   2.54181
 Alpha virt. eigenvalues --    2.54946   2.56016   2.56161   2.56997   2.59284
 Alpha virt. eigenvalues --    2.60133   2.60310   2.60520   2.61230   2.62165
 Alpha virt. eigenvalues --    2.64424   2.65569   2.69447   2.71670   2.72699
 Alpha virt. eigenvalues --    2.73547   2.74329   2.78925   2.81325   2.83167
 Alpha virt. eigenvalues --    2.84305   2.88559   2.90384   2.90909   2.93799
 Alpha virt. eigenvalues --    2.94537   2.95676   2.96774   3.01623   3.06407
 Alpha virt. eigenvalues --    3.06958   3.10179   3.36388   3.65186   3.72484
 Alpha virt. eigenvalues --    3.78300   3.85395   3.88875   3.89266   3.92800
 Alpha virt. eigenvalues --    4.00880   4.03414   4.05111   4.05597   4.06332
 Alpha virt. eigenvalues --    4.10832   4.12711   4.15531   4.17082   4.19102
 Alpha virt. eigenvalues --    4.20954   4.21706   4.27263   4.28160   4.28837
 Alpha virt. eigenvalues --    4.33528   4.37701   4.42136   4.43386   4.49284
 Alpha virt. eigenvalues --    4.57141   4.58595   4.68647   4.71017
          Condensed to atoms (all electrons):
 Mulliken charges:
               1
     1  N   -0.682342
     2  C   -0.055635
     3  C    0.591034
     4  O   -0.555760
     5  C   -0.400989
     6  C    0.184133
     7  C   -0.149260
     8  C   -0.189621
     9  C   -0.197005
    10  C   -0.156656
    11  C    0.354754
    12  O   -0.634738
    13  H    0.193020
    14  H    0.141654
    15  H    0.139905
    16  H    0.119262
    17  H    0.122673
    18  H    0.126157
    19  H    0.151103
    20  H    0.412228
    21  H    0.281270
    22  H    0.323395
    23  N   -0.657379
    24  C    0.000071
    25  C    0.606586
    26  O   -0.507867
    27  C   -0.131216
    28  C   -0.459946
    29  C   -0.449922
    30  H    0.357713
    31  H    0.198257
    32  H    0.145343
    33  H    0.133005
    34  H    0.173609
    35  H    0.158535
    36  H    0.177348
    37  H    0.161427
    38  H    0.158777
    39  N   -0.635415
    40  C   -0.024351
    41  C    0.628725
    42  O   -0.521809
    43  C   -0.319130
    44  C   -0.269384
    45  C   -0.188175
    46  N   -0.597155
    47  C    0.814987
    48  N   -0.786508
    49  N   -0.766837
    50  O   -0.570541
    51  H    0.485156
    52  H    0.338292
    53  H    0.205308
    54  H    0.182821
    55  H    0.153653
    56  H    0.170338
    57  H    0.162243
    58  H    0.187956
    59  H    0.210791
    60  H    0.361347
    61  H    0.373776
    62  H    0.458937
    63  H    0.381825
    64  H    0.380224
 Sum of Mulliken charges =   1.00000
 Mulliken charges with hydrogens summed into heavy atoms:
               1
     1  N   -0.077676
     2  C    0.137385
     3  C    0.591034
     4  O   -0.555760
     5  C   -0.119429
     6  C    0.184133
     7  C   -0.029999
     8  C   -0.066948
     9  C   -0.070848
    10  C   -0.005553
    11  C    0.354754
    12  O   -0.222509
    23  N   -0.299666
    24  C    0.198328
    25  C    0.606586
    26  O   -0.507867
    27  C    0.014128
    28  C    0.005203
    29  C    0.047630
    39  N   -0.297123
    40  C    0.180957
    41  C    0.628725
    42  O   -0.521809
    43  C    0.017345
    44  C    0.063198
    45  C    0.210571
    46  N   -0.235808
    47  C    0.814987
    48  N    0.046205
    49  N   -0.004789
    50  O   -0.085385
 Electronic spatial extent (au):  <R**2>=        3306985.4661
 Charge=              1.0000 electrons
 Dipole moment (field-independent basis, Debye):
    X=            167.5564    Y=           -164.8339    Z=            219.1406  Tot=            321.3533
 Quadrupole moment (field-independent basis, Debye-Ang):
   XX=           5663.8566   YY=           5556.2077   ZZ=           9870.3034
   XY=          -5728.9641   XZ=           7619.2543   YZ=          -7566.3689
 Traceless Quadrupole moment (field-independent basis, Debye-Ang):
   XX=          -1366.2660   YY=          -1473.9149   ZZ=           2840.1808
   XY=          -5728.9641   XZ=           7619.2543   YZ=          -7566.3689
 Octapole moment (field-independent basis, Debye-Ang**2):
  XXX=         185370.7343  YYY=        -185395.6976  ZZZ=         439996.9443  XYY=         192488.3333
  XXY=        -193623.9284  XXZ=         257227.7911  XZZ=         342217.9667  YZZ=        -343585.0809
  YYZ=         257113.8888  XYZ=        -262070.1656
 Hexadecapole moment (field-independent basis, Debye-Ang**3):
 XXXX=        5848104.6035 YYYY=        6153496.0573 ZZZZ=       19436396.8692 XXXY=       -6359512.0378
 XXXZ=        8426190.0090 YYYX=       -6403801.1259 YYYZ=       -8660112.9232 ZZZX=       15217927.5837
 ZZZY=      -15468237.5912 XXYY=        6500431.3995 XXZZ=       11536444.4414 YYZZ=       11782109.3526
 XXYZ=       -8843310.2394 YYXZ=        8875693.5948 ZZXY=      -11865009.1411
 N-N= 3.151232198274D+03 E-N=-9.741486276870D+03  KE= 1.472662044153D+03
 Unable to Open any file for archive entry.
 1\1\GINC-AMR-030\SP\RB3LYP\6-31G(d)\C20H33N6O5(1+)\KENGMITH\31-May-202
 2\0\\# B3LYP/6-31G* empiricaldispersion=gd3 guess=read geom=check nosy
 mm integral(ultrafinegrid)\\Candidate Structure: Conf:304 Charge calc 
 in gas phase\\1,1\N,0,33.8508375002,-31.0240710825,39.8123273108\C,0,3
 3.7295196216,-29.6124181391,40.172874422\C,0,33.3562722712,-29.4609807
 622,41.6642613175\O,0,32.4645271693,-30.1828941033,42.1327336982\C,0,3
 4.9719775573,-28.8255336093,39.7027546312\C,0,35.125586487,-28.8032877
 196,38.1981226721\C,0,35.7391375605,-29.8542892674,37.5094078125\C,0,3
 4.6224739147,-27.7286298469,37.4521873216\C,0,35.851488088,-29.8369780
 26,36.1209556834\C,0,34.7225443662,-27.6966548212,36.0651065672\C,0,35
 .34075178,-28.7561853362,35.3922254125\O,0,35.417169846,-28.6724812821
 ,34.0330249856\H,0,32.8595463181,-29.2183463075,39.6299996727\H,0,34.8
 949633532,-27.7862874378,40.0493836898\H,0,35.86570861,-29.2568539227,
 40.177761917\H,0,36.1264904077,-30.7048867966,38.0621048187\H,0,34.144
 0597317,-26.8956179093,37.963903429\H,0,36.3345566448,-30.6626620148,3
 5.6021555283\H,0,34.3363250837,-26.8627452986,35.4883261918\H,0,35.861
 6339931,-29.4605510291,33.6838382072\H,0,34.6127108041,-31.4501582918,
 40.3404295177\H,0,32.9987085743,-31.5101650828,40.0860545645\N,0,34.03
 185883,-28.5732171537,42.4395391025\C,0,33.558251783,-28.1476677352,43
 .7642620175\C,0,33.4172800815,-29.3090676852,44.7514268411\O,0,32.6468
 882669,-29.2461235346,45.6984327411\C,0,34.4811909685,-27.0265101629,4
 4.3134616634\C,0,35.9053035737,-27.5270165432,44.6013014589\C,0,33.866
 0659695,-26.3509971452,45.5462298734\H,0,34.7009341727,-27.9660098882,
 41.9860810981\H,0,32.5407891779,-27.7530596246,43.6649349681\H,0,34.53
 33741266,-26.272536159,43.512714068\H,0,36.3631210649,-28.0150597324,4
 3.7321251164\H,0,36.5486197901,-26.6886844349,44.8857393054\H,0,35.907
 6147214,-28.2455599544,45.4286365902\H,0,33.7691853586,-27.0549626483,
 46.3774716086\H,0,32.8683039629,-25.9558924333,45.3287703124\H,0,34.49
 99966814,-25.5184924087,45.868191959\N,0,34.1982793173,-30.4158910123,
 44.5401006217\C,0,33.9728278747,-31.5982331573,45.3446471073\C,0,32.56
 6430838,-32.2037514456,45.1533239899\O,0,32.1418076955,-33.0116913464,
 45.97204465\C,0,35.0811339175,-32.6385393529,45.0683165352\C,0,35.0964
 45559,-33.8401307284,46.0388003015\C,0,34.3623629875,-35.0807632254,45
 .502143276\N,0,34.2278219129,-36.1372457742,46.5174065998\C,0,33.25786
 27316,-36.1951082704,47.4438210936\N,0,32.3374637268,-35.2434907649,47
 .5503242855\N,0,33.2404748842,-37.2499645728,48.287842823\O,0,31.85712
 77316,-31.9133306796,44.0878314827\H,0,32.2196217495,-31.1948690479,43
 .5018232985\H,0,34.7497652786,-30.4745163038,43.6957333187\H,0,34.0083
 160541,-31.3074883798,46.3988966779\H,0,36.0327483259,-32.1026949487,4
 5.1501064752\H,0,35.0089189148,-32.9868087344,44.0276120183\H,0,34.653
 1257778,-33.5435077921,46.9949618276\H,0,36.1342473348,-34.1221659381,
 46.2505195672\H,0,34.9097741181,-35.5207350543,44.6635550028\H,0,33.36
 3737134,-34.8358098592,45.1385994075\H,0,35.0327349673,-36.7306597271,
 46.6721476452\H,0,31.5013029415,-35.4102232806,48.0932346606\H,0,32.35
 99338561,-34.3675339485,47.0052373021\H,0,32.5807549026,-37.2887425665
 ,49.0514144519\H,0,33.7087452459,-38.1122276884,48.0487186649\\Version
 =ES64L-G16RevC.01\HF=-1486.5647516\RMSD=9.736e-09\Dipole=1.5938231,-6.
 6876927,5.4422423\Quadrupole=-1015.7852544,-1095.8195752,2111.6048296,
 -4259.3443878,5664.7288117,-5625.4098167\PG=C01 [X(C20H33N6O5)]\\@
 The archive entry for this job was punched.


 LENDING MONEY TO FRIENDS CAUSES THEM TO LOSE THEIR MEMORIES.

    --  PETER'S THEORY OF RECIPROCAL INHIBITION OF FISCAL RECALL
 Job cpu time:       0 days  0 hours  0 minutes 54.1 seconds.
 Elapsed time:       0 days  0 hours  0 minutes 14.0 seconds.
 File lengths (MBytes):  RWF=    264 Int=      0 D2E=      0 Chk=     40 Scr=     16
 Normal termination of Gaussian 16 at Tue May 31 11:31:58 2022.
