 Entering Gaussian System, Link 0=/opt/software/Gaussian/g16-AVX2-C.01/g16/g16
 Input=charge-conf-156.com
 Output=charge-conf-156.log
 Initial command:
 /opt/software/Gaussian/g16-AVX2-C.01/g16/l1.exe "/mnt/gs18/scratch/users/kengmith/Gau-95391.inp" -scrdir="/mnt/gs18/scratch/users/kengmith/"
 Entering Link 1 = /opt/software/Gaussian/g16-AVX2-C.01/g16/l1.exe PID=     95402.
  
 Copyright (c) 1988-2019, Gaussian, Inc.  All Rights Reserved.
  
 This is part of the Gaussian(R) 16 program.  It is based on
 the Gaussian(R) 09 system (copyright 2009, Gaussian, Inc.),
 the Gaussian(R) 03 system (copyright 2003, Gaussian, Inc.),
 the Gaussian(R) 98 system (copyright 1998, Gaussian, Inc.),
 the Gaussian(R) 94 system (copyright 1995, Gaussian, Inc.),
 the Gaussian 92(TM) system (copyright 1992, Gaussian, Inc.),
 the Gaussian 90(TM) system (copyright 1990, Gaussian, Inc.),
 the Gaussian 88(TM) system (copyright 1988, Gaussian, Inc.),
 the Gaussian 86(TM) system (copyright 1986, Carnegie Mellon
 University), and the Gaussian 82(TM) system (copyright 1983,
 Carnegie Mellon University). Gaussian is a federally registered
 trademark of Gaussian, Inc.
  
 This software contains proprietary and confidential information,
 including trade secrets, belonging to Gaussian, Inc.
  
 This software is provided under written license and may be
 used, copied, transmitted, or stored only in accord with that
 written license.
  
 The following legend is applicable only to US Government
 contracts under FAR:
  
                    RESTRICTED RIGHTS LEGEND
  
 Use, reproduction and disclosure by the US Government is
 subject to restrictions as set forth in subparagraphs (a)
 and (c) of the Commercial Computer Software - Restricted
 Rights clause in FAR 52.227-19.
  
 Gaussian, Inc.
 340 Quinnipiac St., Bldg. 40, Wallingford CT 06492
  
  
 ---------------------------------------------------------------
 Warning -- This program may not be used in any manner that
 competes with the business of Gaussian, Inc. or will provide
 assistance to any competitor of Gaussian, Inc.  The licensee
 of this program is prohibited from giving any competitor of
 Gaussian, Inc. access to this program.  By using this program,
 the user acknowledges that Gaussian, Inc. is engaged in the
 business of creating and licensing software in the field of
 computational chemistry and represents and warrants to the
 licensee that it is not a competitor of Gaussian, Inc. and that
 it will not use this program in any manner prohibited above.
 ---------------------------------------------------------------
  

 Cite this work as:
 Gaussian 16, Revision C.01,
 M. J. Frisch, G. W. Trucks, H. B. Schlegel, G. E. Scuseria, 
 M. A. Robb, J. R. Cheeseman, G. Scalmani, V. Barone, 
 G. A. Petersson, H. Nakatsuji, X. Li, M. Caricato, A. V. Marenich, 
 J. Bloino, B. G. Janesko, R. Gomperts, B. Mennucci, H. P. Hratchian, 
 J. V. Ortiz, A. F. Izmaylov, J. L. Sonnenberg, D. Williams-Young, 
 F. Ding, F. Lipparini, F. Egidi, J. Goings, B. Peng, A. Petrone, 
 T. Henderson, D. Ranasinghe, V. G. Zakrzewski, J. Gao, N. Rega, 
 G. Zheng, W. Liang, M. Hada, M. Ehara, K. Toyota, R. Fukuda, 
 J. Hasegawa, M. Ishida, T. Nakajima, Y. Honda, O. Kitao, H. Nakai, 
 T. Vreven, K. Throssell, J. A. Montgomery, Jr., J. E. Peralta, 
 F. Ogliaro, M. J. Bearpark, J. J. Heyd, E. N. Brothers, K. N. Kudin, 
 V. N. Staroverov, T. A. Keith, R. Kobayashi, J. Normand, 
 K. Raghavachari, A. P. Rendell, J. C. Burant, S. S. Iyengar, 
 J. Tomasi, M. Cossi, J. M. Millam, M. Klene, C. Adamo, R. Cammi, 
 J. W. Ochterski, R. L. Martin, K. Morokuma, O. Farkas, 
 J. B. Foresman, and D. J. Fox, Gaussian, Inc., Wallingford CT, 2019.
 
 ******************************************
 Gaussian 16:  ES64L-G16RevC.01  3-Jul-2019
                31-May-2022 
 ******************************************
 %mem=8gb
 %nproc=4
 Will use up to    4 processors via shared memory.
 %chk=conf-156.chk
 ----------------------------------------------------------------------
 # B3LYP/6-31G* empiricaldispersion=gd3 guess=read geom=check nosymm in
 tegral(ultrafinegrid)
 ----------------------------------------------------------------------
 1/29=2,38=1,172=1/1;
 2/12=2,15=1,40=1/2;
 3/5=1,6=6,7=1,11=2,14=-4,25=1,30=1,74=-5,75=-5,116=-2,124=31/1,2,3;
 4/5=1/1;
 5/5=2,38=6/2;
 6/7=2,8=2,9=2,10=2,28=1/1;
 99/5=1,9=1/99;
 ------------------------------------------------------
 Candidate Structure: Conf:156 Charge calc in gas phase
 ------------------------------------------------------
 Structure from the checkpoint file:  "conf-156.chk"
 Charge =  1 Multiplicity = 1
 Redundant internal coordinates found in file.  (old form).
 N,0,35.5322321304,-28.481675545,40.508098122
 C,0,35.2017988513,-28.9566781143,41.8434389888
 C,0,33.7016652298,-29.1348273033,42.0805295655
 O,0,32.9868633795,-29.7207794895,41.2484517184
 C,0,35.8449059082,-30.3534133383,42.0948916618
 C,0,37.3276351606,-30.3063381763,42.3643454639
 C,0,38.2533751336,-30.0352066322,41.3441125271
 C,0,37.8130027663,-30.5129467377,43.6601433785
 C,0,39.615532686,-29.9745599925,41.609995638
 C,0,39.1779941967,-30.4558957049,43.942921561
 C,0,40.0861088919,-30.1856218386,42.9133181047
 O,0,41.4324461812,-30.1159842424,43.1049218308
 H,0,35.6202338814,-28.2521687724,42.571650331
 H,0,35.3443683701,-30.821272444,42.9505363466
 H,0,35.6147917572,-30.9760731554,41.2191540785
 H,0,37.8941931688,-29.8536375719,40.3366440496
 H,0,37.1148446815,-30.720822836,44.4701180262
 H,0,40.334805807,-29.7665678644,40.8246084036
 H,0,39.5358956905,-30.6217086057,44.957009301
 H,0,41.6415179579,-30.2763178365,44.0384188214
 H,0,34.9657316481,-28.9805756997,39.823335337
 H,0,35.314220551,-27.492450654,40.40746148
 N,0,33.2126922916,-28.7456648189,43.2828681686
 C,0,31.8369707171,-29.0295768751,43.7016626859
 C,0,31.5522746189,-30.539095629,43.5703523633
 O,0,30.4965093627,-30.9300904497,43.0717564273
 C,0,31.547879651,-28.4506796555,45.1097721431
 C,0,32.4289940402,-29.0495147759,46.2181773587
 C,0,30.0585641535,-28.6064616941,45.4489319927
 H,0,33.8035098021,-28.1959061053,43.892945724
 H,0,31.1474717142,-28.5688587122,42.9873612917
 H,0,31.7694921896,-27.3759893427,45.0344442022
 H,0,33.5030359975,-28.9639306439,46.0077884639
 H,0,32.2460476174,-28.5251531823,47.1607997715
 H,0,32.199063426,-30.1084418742,46.3779657902
 H,0,29.7772124473,-29.6625209649,45.5246530346
 H,0,29.421976863,-28.1443404133,44.6871798771
 H,0,29.8400203612,-28.1295683411,46.4091640883
 N,0,32.5284850232,-31.3835792793,44.0122883411
 C,0,32.7409664801,-32.6821599431,43.3684065202
 C,0,34.1061910609,-33.2738206557,43.6768717596
 O,0,34.550930353,-34.2178653248,43.0637181286
 C,0,31.6112089457,-33.7049502761,43.6413559269
 C,0,31.6006116327,-34.928672582,42.7051167969
 C,0,31.8270060022,-34.6232413457,41.2125670331
 N,0,30.9875136877,-33.5169681345,40.7153162551
 C,0,31.4130454698,-32.3200973145,40.2921558083
 N,0,32.6515563905,-32.1349790274,39.8086918976
 N,0,30.5631953956,-31.2743613263,40.32193941
 O,0,34.770324028,-32.6442284359,44.670564169
 H,0,35.642347398,-33.0768146662,44.7618198246
 H,0,33.3602047039,-30.9494790356,44.3903393137
 H,0,32.7890854935,-32.4922911629,42.2942720311
 H,0,30.6782089545,-33.1502576486,43.5361672078
 H,0,31.6665924193,-34.039016071,44.6831642646
 H,0,30.6409809873,-35.443897166,42.8350271308
 H,0,32.3812128552,-35.6413878432,42.9882710711
 H,0,31.6273617121,-35.5142049247,40.6098519069
 H,0,32.8753056513,-34.3581911807,41.0645934557
 H,0,29.992330569,-33.5838918172,40.8965869957
 H,0,33.0861340763,-31.22858578,39.9910844077
 H,0,33.2462732864,-32.9209556781,39.5895041451
 H,0,30.953233933,-30.3959936567,39.9990124653
 H,0,30.0500844582,-31.1602830404,41.1974687448
 Recover connectivity data from disk.
                           ----------------------------
                           !    Current Parameters    !
                           ! (Angstroms and Degrees)  !
 --------------------------                            --------------------------
 ! Name  Definition              Value                                          !
 --------------------------------------------------------------------------------
 ! R1    R(1,2)                  1.4553                                         !
 ! R2    R(1,21)                 1.0192                                         !
 ! R3    R(1,22)                 1.018                                          !
 ! R4    R(2,3)                  1.5292                                         !
 ! R5    R(2,5)                  1.5581                                         !
 ! R6    R(2,13)                 1.0962                                         !
 ! R7    R(3,4)                  1.2436                                         !
 ! R8    R(3,23)                 1.355                                          !
 ! R9    R(5,6)                  1.5077                                         !
 ! R10   R(5,14)                 1.0962                                         !
 ! R11   R(5,15)                 1.0989                                         !
 ! R12   R(6,7)                  1.4041                                         !
 ! R13   R(6,8)                  1.3991                                         !
 ! R14   R(7,9)                  1.3892                                         !
 ! R15   R(7,16)                 1.0849                                         !
 ! R16   R(8,10)                 1.3951                                         !
 ! R17   R(8,17)                 1.0894                                         !
 ! R18   R(9,11)                 1.4017                                         !
 ! R19   R(9,18)                 1.0851                                         !
 ! R20   R(10,11)                1.3992                                         !
 ! R21   R(10,19)                1.0881                                         !
 ! R22   R(11,12)                1.3617                                         !
 ! R23   R(12,20)                0.97                                           !
 ! R24   R(23,24)                1.4658                                         !
 ! R25   R(23,30)                1.0117                                         !
 ! R26   R(24,25)                1.5417                                         !
 ! R27   R(24,27)                1.5497                                         !
 ! R28   R(24,31)                1.0945                                         !
 ! R29   R(25,26)                1.2313                                         !
 ! R30   R(25,39)                1.3643                                         !
 ! R31   R(27,28)                1.5374                                         !
 ! R32   R(27,29)                1.5354                                         !
 ! R33   R(27,32)                1.0999                                         !
 ! R34   R(28,33)                1.0978                                         !
 ! R35   R(28,34)                1.0941                                         !
 ! R36   R(28,35)                1.0953                                         !
 ! R37   R(29,36)                1.0955                                         !
 ! R38   R(29,37)                1.095                                          !
 ! R39   R(29,38)                1.0942                                         !
 ! R40   R(39,40)                1.4649                                         !
 ! R41   R(39,52)                1.0115                                         !
 ! R42   R(40,41)                1.5196                                         !
 ! R43   R(40,43)                1.5482                                         !
 ! R44   R(40,53)                1.0918                                         !
 ! R45   R(41,42)                1.2104                                         !
 ! R46   R(41,50)                1.3509                                         !
 ! R47   R(43,44)                1.5408                                         !
 ! R48   R(43,54)                1.0905                                         !
 ! R49   R(43,55)                1.0955                                         !
 ! R50   R(44,45)                1.5402                                         !
 ! R51   R(44,56)                1.0969                                         !
 ! R52   R(44,57)                1.0943                                         !
 ! R53   R(45,46)                1.4751                                         !
 ! R54   R(45,58)                1.094                                          !
 ! R55   R(45,59)                1.0914                                         !
 ! R56   R(46,47)                1.3389                                         !
 ! R57   R(46,60)                1.0138                                         !
 ! R58   R(47,48)                1.3424                                         !
 ! R59   R(47,49)                1.3478                                         !
 ! R60   R(48,61)                1.0216                                         !
 ! R61   R(48,62)                1.0097                                         !
 ! R62   R(49,63)                1.0139                                         !
 ! R63   R(49,64)                1.0212                                         !
 ! R64   R(50,51)                0.9777                                         !
 ! A1    A(2,1,21)             109.2998                                         !
 ! A2    A(2,1,22)             111.0551                                         !
 ! A3    A(21,1,22)            106.8719                                         !
 ! A4    A(1,2,3)              113.7677                                         !
 ! A5    A(1,2,5)              110.301                                          !
 ! A6    A(1,2,13)             108.246                                          !
 ! A7    A(3,2,5)              105.9892                                         !
 ! A8    A(3,2,13)             110.2632                                         !
 ! A9    A(5,2,13)             108.1409                                         !
 ! A10   A(2,3,4)              120.998                                          !
 ! A11   A(2,3,23)             117.2655                                         !
 ! A12   A(4,3,23)             121.4379                                         !
 ! A13   A(2,5,6)              114.0011                                         !
 ! A14   A(2,5,14)             108.6698                                         !
 ! A15   A(2,5,15)             107.0315                                         !
 ! A16   A(6,5,14)             108.8371                                         !
 ! A17   A(6,5,15)             111.4717                                         !
 ! A18   A(14,5,15)            106.5351                                         !
 ! A19   A(5,6,7)              121.6387                                         !
 ! A20   A(5,6,8)              120.1377                                         !
 ! A21   A(7,6,8)              118.2149                                         !
 ! A22   A(6,7,9)              121.0549                                         !
 ! A23   A(6,7,16)             119.2623                                         !
 ! A24   A(9,7,16)             119.6742                                         !
 ! A25   A(6,8,10)             121.4072                                         !
 ! A26   A(6,8,17)             119.6366                                         !
 ! A27   A(10,8,17)            118.956                                          !
 ! A28   A(7,9,11)             120.039                                          !
 ! A29   A(7,9,18)             121.319                                          !
 ! A30   A(11,9,18)            118.642                                          !
 ! A31   A(8,10,11)            119.5869                                         !
 ! A32   A(8,10,19)            120.2971                                         !
 ! A33   A(11,10,19)           120.1159                                         !
 ! A34   A(9,11,10)            119.697                                          !
 ! A35   A(9,11,12)            117.0703                                         !
 ! A36   A(10,11,12)           123.2326                                         !
 ! A37   A(11,12,20)           109.8819                                         !
 ! A38   A(3,23,24)            122.4496                                         !
 ! A39   A(3,23,30)            118.7117                                         !
 ! A40   A(24,23,30)           118.755                                          !
 ! A41   A(23,24,25)           109.7927                                         !
 ! A42   A(23,24,27)           111.2439                                         !
 ! A43   A(23,24,31)           108.8602                                         !
 ! A44   A(25,24,27)           114.1231                                         !
 ! A45   A(25,24,31)           103.9003                                         !
 ! A46   A(27,24,31)           108.5571                                         !
 ! A47   A(24,25,26)           120.2472                                         !
 ! A48   A(24,25,39)           116.5076                                         !
 ! A49   A(26,25,39)           123.2383                                         !
 ! A50   A(24,27,28)           113.7462                                         !
 ! A51   A(24,27,29)           110.1068                                         !
 ! A52   A(24,27,32)           105.3781                                         !
 ! A53   A(28,27,29)           110.9256                                         !
 ! A54   A(28,27,32)           108.3303                                         !
 ! A55   A(29,27,32)           108.0418                                         !
 ! A56   A(27,28,33)           113.0908                                         !
 ! A57   A(27,28,34)           109.7947                                         !
 ! A58   A(27,28,35)           111.1887                                         !
 ! A59   A(33,28,34)           106.9391                                         !
 ! A60   A(33,28,35)           107.9813                                         !
 ! A61   A(34,28,35)           107.6117                                         !
 ! A62   A(27,29,36)           111.235                                          !
 ! A63   A(27,29,37)           111.5568                                         !
 ! A64   A(27,29,38)           110.0827                                         !
 ! A65   A(36,29,37)           107.7944                                         !
 ! A66   A(36,29,38)           107.9504                                         !
 ! A67   A(37,29,38)           108.0858                                         !
 ! A68   A(25,39,40)           120.6696                                         !
 ! A69   A(25,39,52)           116.3447                                         !
 ! A70   A(40,39,52)           115.1786                                         !
 ! A71   A(39,40,41)           112.7207                                         !
 ! A72   A(39,40,43)           113.7206                                         !
 ! A73   A(39,40,53)           106.5374                                         !
 ! A74   A(41,40,43)           111.2595                                         !
 ! A75   A(41,40,53)           103.1686                                         !
 ! A76   A(43,40,53)           108.692                                          !
 ! A77   A(40,41,42)           122.0718                                         !
 ! A78   A(40,41,50)           114.1767                                         !
 ! A79   A(42,41,50)           123.7456                                         !
 ! A80   A(40,43,44)           114.9966                                         !
 ! A81   A(40,43,54)           105.7405                                         !
 ! A82   A(40,43,55)           109.4045                                         !
 ! A83   A(44,43,54)           109.8448                                         !
 ! A84   A(44,43,55)           109.6343                                         !
 ! A85   A(54,43,55)           106.8641                                         !
 ! A86   A(43,44,45)           115.4875                                         !
 ! A87   A(43,44,56)           107.8841                                         !
 ! A88   A(43,44,57)           110.8015                                         !
 ! A89   A(45,44,56)           109.6641                                         !
 ! A90   A(45,44,57)           105.9651                                         !
 ! A91   A(56,44,57)           106.7081                                         !
 ! A92   A(44,45,46)           113.0629                                         !
 ! A93   A(44,45,58)           110.2147                                         !
 ! A94   A(44,45,59)           108.7077                                         !
 ! A95   A(46,45,58)           108.7353                                         !
 ! A96   A(46,45,59)           108.5912                                         !
 ! A97   A(58,45,59)           107.3595                                         !
 ! A98   A(45,46,47)           126.5901                                         !
 ! A99   A(45,46,60)           116.673                                          !
 ! A100  A(47,46,60)           115.3103                                         !
 ! A101  A(46,47,48)           122.0286                                         !
 ! A102  A(46,47,49)           119.0896                                         !
 ! A103  A(48,47,49)           118.8626                                         !
 ! A104  A(47,48,61)           116.7778                                         !
 ! A105  A(47,48,62)           120.949                                          !
 ! A106  A(61,48,62)           118.6098                                         !
 ! A107  A(47,49,63)           114.9963                                         !
 ! A108  A(47,49,64)           114.988                                          !
 ! A109  A(63,49,64)           111.6904                                         !
 ! A110  A(41,50,51)           107.5141                                         !
 ! D1    D(21,1,2,3)           -43.0351                                         !
 ! D2    D(21,1,2,5)            75.9006                                         !
 ! D3    D(21,1,2,13)         -165.9672                                         !
 ! D4    D(22,1,2,3)            74.6315                                         !
 ! D5    D(22,1,2,5)          -166.4327                                         !
 ! D6    D(22,1,2,13)          -48.3006                                         !
 ! D7    D(1,2,3,4)             46.7827                                         !
 ! D8    D(1,2,3,23)          -139.4048                                         !
 ! D9    D(5,2,3,4)            -74.5863                                         !
 ! D10   D(5,2,3,23)            99.2262                                         !
 ! D11   D(13,2,3,4)           168.6034                                         !
 ! D12   D(13,2,3,23)          -17.5841                                         !
 ! D13   D(1,2,5,6)             75.7695                                         !
 ! D14   D(1,2,5,14)          -162.6621                                         !
 ! D15   D(1,2,5,15)           -47.9728                                         !
 ! D16   D(3,2,5,6)           -160.6563                                         !
 ! D17   D(3,2,5,14)           -39.0879                                         !
 ! D18   D(3,2,5,15)            75.6015                                         !
 ! D19   D(13,2,5,6)           -42.4271                                         !
 ! D20   D(13,2,5,14)           79.1412                                         !
 ! D21   D(13,2,5,15)         -166.1694                                         !
 ! D22   D(2,3,23,24)         -171.4547                                         !
 ! D23   D(2,3,23,30)           11.9174                                         !
 ! D24   D(4,3,23,24)            2.3289                                         !
 ! D25   D(4,3,23,30)         -174.299                                          !
 ! D26   D(2,5,6,7)            -72.6758                                         !
 ! D27   D(2,5,6,8)            106.2309                                         !
 ! D28   D(14,5,6,7)           165.8484                                         !
 ! D29   D(14,5,6,8)           -15.2449                                         !
 ! D30   D(15,5,6,7)            48.634                                          !
 ! D31   D(15,5,6,8)          -132.4593                                         !
 ! D32   D(5,6,7,9)            179.0053                                         !
 ! D33   D(5,6,7,16)             0.0784                                         !
 ! D34   D(8,6,7,9)              0.0783                                         !
 ! D35   D(8,6,7,16)          -178.8486                                         !
 ! D36   D(5,6,8,10)          -179.0508                                         !
 ! D37   D(5,6,8,17)             0.8                                            !
 ! D38   D(7,6,8,10)            -0.1071                                         !
 ! D39   D(7,6,8,17)           179.7436                                         !
 ! D40   D(6,7,9,11)             0.0037                                         !
 ! D41   D(6,7,9,18)           179.9231                                         !
 ! D42   D(16,7,9,11)          178.9262                                         !
 ! D43   D(16,7,9,18)           -1.1544                                         !
 ! D44   D(6,8,10,11)            0.0533                                         !
 ! D45   D(6,8,10,19)         -179.8602                                         !
 ! D46   D(17,8,10,11)        -179.7985                                         !
 ! D47   D(17,8,10,19)           0.2881                                         !
 ! D48   D(7,9,11,10)           -0.0594                                         !
 ! D49   D(7,9,11,12)          179.8178                                         !
 ! D50   D(18,9,11,10)        -179.981                                          !
 ! D51   D(18,9,11,12)          -0.1038                                         !
 ! D52   D(8,10,11,9)            0.0314                                         !
 ! D53   D(8,10,11,12)        -179.8379                                         !
 ! D54   D(19,10,11,9)         179.945                                          !
 ! D55   D(19,10,11,12)          0.0757                                         !
 ! D56   D(9,11,12,20)         179.9431                                         !
 ! D57   D(10,11,12,20)         -0.1844                                         !
 ! D58   D(3,23,24,25)          53.5429                                         !
 ! D59   D(3,23,24,27)        -179.1611                                         !
 ! D60   D(3,23,24,31)         -59.582                                          !
 ! D61   D(30,23,24,25)       -129.8307                                         !
 ! D62   D(30,23,24,27)         -2.5347                                         !
 ! D63   D(30,23,24,31)        117.0444                                         !
 ! D64   D(23,24,25,26)       -135.5228                                         !
 ! D65   D(23,24,25,39)         43.5529                                         !
 ! D66   D(27,24,25,26)         98.8088                                         !
 ! D67   D(27,24,25,39)        -82.1155                                         !
 ! D68   D(31,24,25,26)        -19.2284                                         !
 ! D69   D(31,24,25,39)        159.8474                                         !
 ! D70   D(23,24,27,28)        -61.8587                                         !
 ! D71   D(23,24,27,29)        172.9319                                         !
 ! D72   D(23,24,27,32)         56.6529                                         !
 ! D73   D(25,24,27,28)         63.0421                                         !
 ! D74   D(25,24,27,29)        -62.1672                                         !
 ! D75   D(25,24,27,32)       -178.4462                                         !
 ! D76   D(31,24,27,28)        178.382                                          !
 ! D77   D(31,24,27,29)         53.1726                                         !
 ! D78   D(31,24,27,32)        -63.1064                                         !
 ! D79   D(24,25,39,40)       -147.7431                                         !
 ! D80   D(24,25,39,52)         -0.0039                                         !
 ! D81   D(26,25,39,40)         31.3023                                         !
 ! D82   D(26,25,39,52)        179.0415                                         !
 ! D83   D(24,27,28,33)         54.7915                                         !
 ! D84   D(24,27,28,34)        174.1367                                         !
 ! D85   D(24,27,28,35)        -66.89                                           !
 ! D86   D(29,27,28,33)        179.5632                                         !
 ! D87   D(29,27,28,34)        -61.0917                                         !
 ! D88   D(29,27,28,35)         57.8816                                         !
 ! D89   D(32,27,28,33)        -62.0133                                         !
 ! D90   D(32,27,28,34)         57.3319                                         !
 ! D91   D(32,27,28,35)        176.3052                                         !
 ! D92   D(24,27,29,36)         64.7115                                         !
 ! D93   D(24,27,29,37)        -55.6883                                         !
 ! D94   D(24,27,29,38)       -175.6771                                         !
 ! D95   D(28,27,29,36)        -62.0927                                         !
 ! D96   D(28,27,29,37)        177.5075                                         !
 ! D97   D(28,27,29,38)         57.5187                                         !
 ! D98   D(32,27,29,36)        179.3092                                         !
 ! D99   D(32,27,29,37)         58.9094                                         !
 ! D100  D(32,27,29,38)        -61.0794                                         !
 ! D101  D(25,39,40,41)        161.5473                                         !
 ! D102  D(25,39,40,43)        -70.6197                                         !
 ! D103  D(25,39,40,53)         49.0914                                         !
 ! D104  D(52,39,40,41)         13.4553                                         !
 ! D105  D(52,39,40,43)        141.2883                                         !
 ! D106  D(52,39,40,53)        -99.0006                                         !
 ! D107  D(39,40,41,42)       -167.2217                                         !
 ! D108  D(39,40,41,50)         11.928                                          !
 ! D109  D(43,40,41,42)         63.663                                          !
 ! D110  D(43,40,41,50)       -117.1873                                         !
 ! D111  D(53,40,41,42)        -52.7092                                         !
 ! D112  D(53,40,41,50)        126.4405                                         !
 ! D113  D(39,40,43,44)        164.6308                                         !
 ! D114  D(39,40,43,54)         43.261                                          !
 ! D115  D(39,40,43,55)        -71.5002                                         !
 ! D116  D(41,40,43,44)        -66.7866                                         !
 ! D117  D(41,40,43,54)        171.8436                                         !
 ! D118  D(41,40,43,55)         57.0825                                         !
 ! D119  D(53,40,43,44)         46.1491                                         !
 ! D120  D(53,40,43,54)        -75.2207                                         !
 ! D121  D(53,40,43,55)        170.0181                                         !
 ! D122  D(40,41,50,51)       -177.7183                                         !
 ! D123  D(42,41,50,51)          1.4152                                         !
 ! D124  D(40,43,44,45)        -43.754                                          !
 ! D125  D(40,43,44,56)       -166.8155                                         !
 ! D126  D(40,43,44,57)         76.7136                                         !
 ! D127  D(54,43,44,45)         75.3555                                         !
 ! D128  D(54,43,44,56)        -47.7059                                         !
 ! D129  D(54,43,44,57)       -164.1769                                         !
 ! D130  D(55,43,44,45)       -167.5014                                         !
 ! D131  D(55,43,44,56)         69.4371                                         !
 ! D132  D(55,43,44,57)        -47.0338                                         !
 ! D133  D(43,44,45,46)        -48.0258                                         !
 ! D134  D(43,44,45,58)       -169.9495                                         !
 ! D135  D(43,44,45,59)         72.6391                                         !
 ! D136  D(56,44,45,46)         74.0891                                         !
 ! D137  D(56,44,45,58)        -47.8347                                         !
 ! D138  D(56,44,45,59)       -165.2461                                         !
 ! D139  D(57,44,45,46)       -171.0902                                         !
 ! D140  D(57,44,45,58)         66.986                                          !
 ! D141  D(57,44,45,59)        -50.4254                                         !
 ! D142  D(44,45,46,47)        113.6838                                         !
 ! D143  D(44,45,46,60)        -51.9701                                         !
 ! D144  D(58,45,46,47)       -123.566                                          !
 ! D145  D(58,45,46,60)         70.7801                                         !
 ! D146  D(59,45,46,47)         -7.0472                                         !
 ! D147  D(59,45,46,60)       -172.7011                                         !
 ! D148  D(45,46,47,48)         25.1076                                         !
 ! D149  D(45,46,47,49)       -156.5037                                         !
 ! D150  D(60,46,47,48)       -169.0696                                         !
 ! D151  D(60,46,47,49)          9.3191                                         !
 ! D152  D(46,47,48,61)       -146.7486                                         !
 ! D153  D(46,47,48,62)         11.3791                                         !
 ! D154  D(49,47,48,61)         34.8592                                         !
 ! D155  D(49,47,48,62)       -167.0131                                         !
 ! D156  D(46,47,49,63)        179.2455                                         !
 ! D157  D(46,47,49,64)         47.3954                                         !
 ! D158  D(48,47,49,63)         -2.3143                                         !
 ! D159  D(48,47,49,64)       -134.1644                                         !
 --------------------------------------------------------------------------------
 Symmetry turned off by external request.
 Stoichiometry    C20H33N6O5(1+)
 Framework group  C1[X(C20H33N6O5)]
 Deg. of freedom   186
 Full point group                 C1      NOp   1
                          Input orientation:                          
 ---------------------------------------------------------------------
 Center     Atomic      Atomic             Coordinates (Angstroms)
 Number     Number       Type             X           Y           Z
 ---------------------------------------------------------------------
      1          7           0       35.532232  -28.481676   40.508098
      2          6           0       35.201799  -28.956678   41.843439
      3          6           0       33.701665  -29.134827   42.080530
      4          8           0       32.986863  -29.720779   41.248452
      5          6           0       35.844906  -30.353413   42.094892
      6          6           0       37.327635  -30.306338   42.364345
      7          6           0       38.253375  -30.035207   41.344113
      8          6           0       37.813003  -30.512947   43.660143
      9          6           0       39.615533  -29.974560   41.609996
     10          6           0       39.177994  -30.455896   43.942922
     11          6           0       40.086109  -30.185622   42.913318
     12          8           0       41.432446  -30.115984   43.104922
     13          1           0       35.620234  -28.252169   42.571650
     14          1           0       35.344368  -30.821272   42.950536
     15          1           0       35.614792  -30.976073   41.219154
     16          1           0       37.894193  -29.853638   40.336644
     17          1           0       37.114845  -30.720823   44.470118
     18          1           0       40.334806  -29.766568   40.824608
     19          1           0       39.535896  -30.621709   44.957009
     20          1           0       41.641518  -30.276318   44.038419
     21          1           0       34.965732  -28.980576   39.823335
     22          1           0       35.314221  -27.492451   40.407461
     23          7           0       33.212692  -28.745665   43.282868
     24          6           0       31.836971  -29.029577   43.701663
     25          6           0       31.552275  -30.539096   43.570352
     26          8           0       30.496509  -30.930090   43.071756
     27          6           0       31.547880  -28.450680   45.109772
     28          6           0       32.428994  -29.049515   46.218177
     29          6           0       30.058564  -28.606462   45.448932
     30          1           0       33.803510  -28.195906   43.892946
     31          1           0       31.147472  -28.568859   42.987361
     32          1           0       31.769492  -27.375989   45.034444
     33          1           0       33.503036  -28.963931   46.007788
     34          1           0       32.246048  -28.525153   47.160800
     35          1           0       32.199063  -30.108442   46.377966
     36          1           0       29.777212  -29.662521   45.524653
     37          1           0       29.421977  -28.144340   44.687180
     38          1           0       29.840020  -28.129568   46.409164
     39          7           0       32.528485  -31.383579   44.012288
     40          6           0       32.740966  -32.682160   43.368407
     41          6           0       34.106191  -33.273821   43.676872
     42          8           0       34.550930  -34.217865   43.063718
     43          6           0       31.611209  -33.704950   43.641356
     44          6           0       31.600612  -34.928673   42.705117
     45          6           0       31.827006  -34.623241   41.212567
     46          7           0       30.987514  -33.516968   40.715316
     47          6           0       31.413045  -32.320097   40.292156
     48          7           0       32.651556  -32.134979   39.808692
     49          7           0       30.563195  -31.274361   40.321939
     50          8           0       34.770324  -32.644228   44.670564
     51          1           0       35.642347  -33.076815   44.761820
     52          1           0       33.360205  -30.949479   44.390339
     53          1           0       32.789085  -32.492291   42.294272
     54          1           0       30.678209  -33.150258   43.536167
     55          1           0       31.666592  -34.039016   44.683164
     56          1           0       30.640981  -35.443897   42.835027
     57          1           0       32.381213  -35.641388   42.988271
     58          1           0       31.627362  -35.514205   40.609852
     59          1           0       32.875306  -34.358191   41.064593
     60          1           0       29.992331  -33.583892   40.896587
     61          1           0       33.086134  -31.228586   39.991084
     62          1           0       33.246273  -32.920956   39.589504
     63          1           0       30.953234  -30.395994   39.999012
     64          1           0       30.050084  -31.160283   41.197469
 ---------------------------------------------------------------------
 Rotational constants (GHZ):           0.1903932           0.0934357           0.0836794
 Standard basis: 6-31G(d) (6D, 7F)
   531 basis functions,  1000 primitive gaussians,   531 cartesian basis functions
   117 alpha electrons      117 beta electrons
       nuclear repulsion energy      3446.4917668915 Hartrees.
 NAtoms=   64 NActive=   64 NUniq=   64 SFac= 1.00D+00 NAtFMM=   60 NAOKFM=T Big=T
 Integral buffers will be    131072 words long.
 Raffenetti 2 integral format.
 Two-electron integral symmetry is turned off.
 Nuclear repulsion after empirical dispersion term =     3446.4022073150 Hartrees.
 One-electron integrals computed using PRISM.
 NBasis=   531 RedAO= T EigKep=  4.29D-04  NBF=   531
 NBsUse=   531 1.00D-06 EigRej= -1.00D+00 NBFU=   531
 Initial guess from the checkpoint file:  "conf-156.chk"
 B after Tr=     0.000000    0.000000    0.000000
         Rot=    1.000000    0.000000    0.000000    0.000000 Ang=   0.00 deg.
 Requested convergence on RMS density matrix=1.00D-08 within 128 cycles.
 Requested convergence on MAX density matrix=1.00D-06.
 Requested convergence on             energy=1.00D-06.
 No special actions if energy rises.
 SCF Done:  E(RB3LYP) =  -1486.57919223     A.U. after    3 cycles
            NFock=  3  Conv=0.83D-09     -V/T= 2.0094

 **********************************************************************

            Population analysis using the SCF Density.

 **********************************************************************

 Alpha  occ. eigenvalues --  -19.32636 -19.26391 -19.25405 -19.24842 -19.24538
 Alpha  occ. eigenvalues --  -14.51770 -14.50666 -14.49396 -14.49079 -14.48256
 Alpha  occ. eigenvalues --  -14.42201 -10.46950 -10.44770 -10.41435 -10.41320
 Alpha  occ. eigenvalues --  -10.36510 -10.35736 -10.35216 -10.33618 -10.32359
 Alpha  occ. eigenvalues --  -10.31271 -10.30750 -10.30591 -10.29560 -10.28434
 Alpha  occ. eigenvalues --  -10.27324 -10.27311 -10.27131 -10.26574 -10.26306
 Alpha  occ. eigenvalues --  -10.25682  -1.23256  -1.17003  -1.15887  -1.15557
 Alpha  occ. eigenvalues --   -1.14270  -1.12995  -1.06145  -1.05291  -1.04564
 Alpha  occ. eigenvalues --   -1.03117  -0.99765  -0.93024  -0.92763  -0.91633
 Alpha  occ. eigenvalues --   -0.87601  -0.86826  -0.83384  -0.82298  -0.81730
 Alpha  occ. eigenvalues --   -0.79962  -0.78773  -0.77541  -0.75295  -0.74489
 Alpha  occ. eigenvalues --   -0.72518  -0.72277  -0.71291  -0.69961  -0.69755
 Alpha  occ. eigenvalues --   -0.68273  -0.67566  -0.66753  -0.66032  -0.65759
 Alpha  occ. eigenvalues --   -0.63468  -0.63130  -0.61924  -0.61732  -0.61580
 Alpha  occ. eigenvalues --   -0.60365  -0.59319  -0.58988  -0.58615  -0.58201
 Alpha  occ. eigenvalues --   -0.57519  -0.56404  -0.55965  -0.55383  -0.55159
 Alpha  occ. eigenvalues --   -0.54474  -0.53842  -0.53604  -0.53181  -0.52824
 Alpha  occ. eigenvalues --   -0.52640  -0.51558  -0.51327  -0.50950  -0.50313
 Alpha  occ. eigenvalues --   -0.49725  -0.49112  -0.48456  -0.47911  -0.47822
 Alpha  occ. eigenvalues --   -0.47273  -0.47017  -0.46586  -0.46256  -0.45194
 Alpha  occ. eigenvalues --   -0.44934  -0.44897  -0.44240  -0.44203  -0.43495
 Alpha  occ. eigenvalues --   -0.42282  -0.41176  -0.40527  -0.40405  -0.40177
 Alpha  occ. eigenvalues --   -0.39645  -0.39441  -0.37918  -0.36976  -0.34393
 Alpha  occ. eigenvalues --   -0.32641  -0.29212
 Alpha virt. eigenvalues --   -0.13119  -0.12078  -0.11186  -0.10617  -0.07915
 Alpha virt. eigenvalues --   -0.06958  -0.05921  -0.05462  -0.04290  -0.04161
 Alpha virt. eigenvalues --   -0.02059  -0.01288  -0.00281   0.00250   0.00396
 Alpha virt. eigenvalues --    0.00761   0.01305   0.01763   0.02447   0.02469
 Alpha virt. eigenvalues --    0.03000   0.03364   0.03845   0.04048   0.04775
 Alpha virt. eigenvalues --    0.04957   0.05281   0.05992   0.06329   0.06834
 Alpha virt. eigenvalues --    0.07471   0.07760   0.08011   0.08308   0.08751
 Alpha virt. eigenvalues --    0.09348   0.09407   0.09833   0.10089   0.10400
 Alpha virt. eigenvalues --    0.10563   0.10968   0.11423   0.11904   0.12198
 Alpha virt. eigenvalues --    0.12716   0.13336   0.13791   0.14529   0.14655
 Alpha virt. eigenvalues --    0.15450   0.15600   0.16619   0.17316   0.18059
 Alpha virt. eigenvalues --    0.18601   0.18979   0.20637   0.22208   0.23978
 Alpha virt. eigenvalues --    0.24891   0.25687   0.26879   0.27007   0.27876
 Alpha virt. eigenvalues --    0.28489   0.29003   0.30125   0.31700   0.36760
 Alpha virt. eigenvalues --    0.37945   0.38787   0.39192   0.39848   0.40366
 Alpha virt. eigenvalues --    0.40706   0.41257   0.41955   0.42346   0.43255
 Alpha virt. eigenvalues --    0.43563   0.44147   0.44449   0.44711   0.44923
 Alpha virt. eigenvalues --    0.45563   0.45854   0.46599   0.46773   0.47573
 Alpha virt. eigenvalues --    0.48155   0.48523   0.49631   0.50246   0.50595
 Alpha virt. eigenvalues --    0.51043   0.51116   0.51870   0.51899   0.52363
 Alpha virt. eigenvalues --    0.52869   0.52946   0.53975   0.54624   0.55025
 Alpha virt. eigenvalues --    0.55149   0.56220   0.57022   0.57170   0.58085
 Alpha virt. eigenvalues --    0.58124   0.58683   0.59519   0.59715   0.60715
 Alpha virt. eigenvalues --    0.60760   0.61617   0.62441   0.63058   0.64114
 Alpha virt. eigenvalues --    0.64430   0.65160   0.65539   0.66940   0.67612
 Alpha virt. eigenvalues --    0.68093   0.68277   0.69371   0.69451   0.70363
 Alpha virt. eigenvalues --    0.70724   0.71693   0.72273   0.72871   0.73019
 Alpha virt. eigenvalues --    0.73511   0.74600   0.75111   0.75308   0.75703
 Alpha virt. eigenvalues --    0.76146   0.76651   0.76798   0.77094   0.77195
 Alpha virt. eigenvalues --    0.77815   0.78196   0.78677   0.78973   0.80212
 Alpha virt. eigenvalues --    0.80656   0.81007   0.81399   0.81736   0.82258
 Alpha virt. eigenvalues --    0.82362   0.82728   0.83495   0.83577   0.84121
 Alpha virt. eigenvalues --    0.84353   0.84838   0.85161   0.85286   0.85831
 Alpha virt. eigenvalues --    0.86464   0.87142   0.88503   0.88718   0.89394
 Alpha virt. eigenvalues --    0.89708   0.90595   0.91318   0.91660   0.92555
 Alpha virt. eigenvalues --    0.93152   0.94269   0.94636   0.95147   0.95692
 Alpha virt. eigenvalues --    0.96519   0.97623   0.98678   0.99888   1.01105
 Alpha virt. eigenvalues --    1.02025   1.02978   1.05242   1.05844   1.06361
 Alpha virt. eigenvalues --    1.07065   1.08102   1.08465   1.09977   1.11333
 Alpha virt. eigenvalues --    1.11945   1.13214   1.13389   1.14074   1.14600
 Alpha virt. eigenvalues --    1.15936   1.16657   1.17975   1.18429   1.18904
 Alpha virt. eigenvalues --    1.20059   1.21068   1.21960   1.23565   1.24328
 Alpha virt. eigenvalues --    1.26341   1.26732   1.27509   1.28388   1.29413
 Alpha virt. eigenvalues --    1.29951   1.30350   1.33135   1.34266   1.35294
 Alpha virt. eigenvalues --    1.36770   1.37255   1.37640   1.38148   1.38274
 Alpha virt. eigenvalues --    1.38632   1.38962   1.39963   1.40187   1.43416
 Alpha virt. eigenvalues --    1.43786   1.44783   1.45126   1.46481   1.48145
 Alpha virt. eigenvalues --    1.49885   1.52320   1.53407   1.54781   1.55772
 Alpha virt. eigenvalues --    1.58096   1.58795   1.60730   1.62204   1.62909
 Alpha virt. eigenvalues --    1.63431   1.64396   1.64769   1.64917   1.66135
 Alpha virt. eigenvalues --    1.66493   1.66981   1.67486   1.67962   1.69109
 Alpha virt. eigenvalues --    1.69772   1.70288   1.71102   1.71423   1.72009
 Alpha virt. eigenvalues --    1.72686   1.73647   1.73924   1.74275   1.75526
 Alpha virt. eigenvalues --    1.76309   1.77512   1.77740   1.78345   1.79083
 Alpha virt. eigenvalues --    1.80650   1.81152   1.81944   1.82318   1.83219
 Alpha virt. eigenvalues --    1.84422   1.84813   1.85688   1.85911   1.86916
 Alpha virt. eigenvalues --    1.87062   1.87822   1.89022   1.89990   1.90257
 Alpha virt. eigenvalues --    1.90545   1.91488   1.92841   1.93233   1.94432
 Alpha virt. eigenvalues --    1.94768   1.95401   1.96702   1.97473   1.99043
 Alpha virt. eigenvalues --    1.99144   1.99889   2.00993   2.01670   2.03865
 Alpha virt. eigenvalues --    2.04221   2.04463   2.04952   2.05995   2.06549
 Alpha virt. eigenvalues --    2.06898   2.07443   2.08997   2.09704   2.12735
 Alpha virt. eigenvalues --    2.14205   2.15094   2.15967   2.16434   2.17770
 Alpha virt. eigenvalues --    2.18829   2.20164   2.20288   2.22049   2.23671
 Alpha virt. eigenvalues --    2.24070   2.24471   2.25634   2.26391   2.26889
 Alpha virt. eigenvalues --    2.27919   2.28361   2.28972   2.29466   2.30022
 Alpha virt. eigenvalues --    2.31768   2.32253   2.32826   2.33658   2.37316
 Alpha virt. eigenvalues --    2.37341   2.38804   2.40391   2.41888   2.42551
 Alpha virt. eigenvalues --    2.42879   2.45204   2.45751   2.46594   2.47575
 Alpha virt. eigenvalues --    2.48362   2.49636   2.51150   2.51919   2.52666
 Alpha virt. eigenvalues --    2.53936   2.54279   2.55752   2.57404   2.57983
 Alpha virt. eigenvalues --    2.58483   2.59595   2.60502   2.61778   2.62123
 Alpha virt. eigenvalues --    2.65616   2.65971   2.67405   2.68296   2.70387
 Alpha virt. eigenvalues --    2.72393   2.73242   2.75452   2.80876   2.81506
 Alpha virt. eigenvalues --    2.82466   2.84021   2.84762   2.88537   2.89949
 Alpha virt. eigenvalues --    2.92539   2.94069   2.95529   3.00091   3.04706
 Alpha virt. eigenvalues --    3.05522   3.07848   3.34240   3.70718   3.73008
 Alpha virt. eigenvalues --    3.78671   3.78902   3.86313   3.87187   3.90329
 Alpha virt. eigenvalues --    3.92646   4.02553   4.03940   4.04637   4.07563
 Alpha virt. eigenvalues --    4.10735   4.12144   4.13588   4.15163   4.18300
 Alpha virt. eigenvalues --    4.18565   4.23163   4.25832   4.26875   4.30717
 Alpha virt. eigenvalues --    4.31705   4.33167   4.42593   4.43227   4.51323
 Alpha virt. eigenvalues --    4.58375   4.60436   4.62948   4.68004
          Condensed to atoms (all electrons):
 Mulliken charges:
               1
     1  N   -0.685761
     2  C   -0.070730
     3  C    0.624152
     4  O   -0.588611
     5  C   -0.368903
     6  C    0.170922
     7  C   -0.165534
     8  C   -0.209072
     9  C   -0.158871
    10  C   -0.190194
    11  C    0.356786
    12  O   -0.629591
    13  H    0.156556
    14  H    0.133367
    15  H    0.140358
    16  H    0.149657
    17  H    0.105173
    18  H    0.157651
    19  H    0.129391
    20  H    0.414514
    21  H    0.303365
    22  H    0.319850
    23  N   -0.632992
    24  C   -0.007710
    25  C    0.629797
    26  O   -0.558355
    27  C   -0.128435
    28  C   -0.475857
    29  C   -0.453406
    30  H    0.351779
    31  H    0.185843
    32  H    0.157050
    33  H    0.132992
    34  H    0.183548
    35  H    0.169608
    36  H    0.167091
    37  H    0.162640
    38  H    0.171565
    39  N   -0.611543
    40  C   -0.040071
    41  C    0.599078
    42  O   -0.448345
    43  C   -0.287948
    44  C   -0.291005
    45  C   -0.181187
    46  N   -0.563394
    47  C    0.717320
    48  N   -0.748651
    49  N   -0.723148
    50  O   -0.576003
    51  H    0.438578
    52  H    0.364806
    53  H    0.172854
    54  H    0.192728
    55  H    0.176307
    56  H    0.167530
    57  H    0.195691
    58  H    0.199628
    59  H    0.181686
    60  H    0.367969
    61  H    0.403180
    62  H    0.374475
    63  H    0.371795
    64  H    0.398036
 Sum of Mulliken charges =   1.00000
 Mulliken charges with hydrogens summed into heavy atoms:
               1
     1  N   -0.062546
     2  C    0.085826
     3  C    0.624152
     4  O   -0.588611
     5  C   -0.095177
     6  C    0.170922
     7  C   -0.015877
     8  C   -0.103899
     9  C   -0.001220
    10  C   -0.060803
    11  C    0.356786
    12  O   -0.215077
    23  N   -0.281213
    24  C    0.178133
    25  C    0.629797
    26  O   -0.558355
    27  C    0.028615
    28  C    0.010291
    29  C    0.047890
    39  N   -0.246737
    40  C    0.132783
    41  C    0.599078
    42  O   -0.448345
    43  C    0.081087
    44  C    0.072216
    45  C    0.200127
    46  N   -0.195425
    47  C    0.717320
    48  N    0.029005
    49  N    0.046682
    50  O   -0.137425
 Electronic spatial extent (au):  <R**2>=        3310676.9181
 Charge=              1.0000 electrons
 Dipole moment (field-independent basis, Debye):
    X=            157.8058    Y=           -150.0694    Z=            205.1643  Tot=            299.1921
 Quadrupole moment (field-independent basis, Debye-Ang):
   XX=           5031.4313   YY=           4543.0777   ZZ=           8614.4906
   XY=          -4922.0877   XZ=           6760.4933   YZ=          -6398.6749
 Traceless Quadrupole moment (field-independent basis, Debye-Ang):
   XX=          -1031.5685   YY=          -1519.9222   ZZ=           2551.4907
   XY=          -4922.0877   XZ=           6760.4933   YZ=          -6398.6749
 Octapole moment (field-independent basis, Debye-Ang**2):
  XXX=         154713.4318  YYY=        -132977.4574  ZZZ=         355208.3871  XYY=         148473.2893
  XXY=        -156724.5488  XXZ=         216344.3667  XZZ=         284559.6131  YZZ=        -268215.0665
  YYZ=         193327.5130  XYZ=        -210509.3780
 Hexadecapole moment (field-independent basis, Debye-Ang**3):
 XXXX=        4524165.1144 YYYY=        3736903.7711 ZZZZ=       14350479.7866 XXXY=       -4814885.7186
 XXXZ=        6686178.1180 YYYX=       -4320396.5523 YYYZ=       -5645666.8763 ZZZX=       11757867.2719
 ZZZY=      -11041179.7034 XXYY=        4704351.8238 XXZZ=        9128101.1732 YYZZ=        8082938.9675
 XXYZ=       -6727967.8534 YYXZ=        6338710.5276 ZZXY=       -8846651.0571
 N-N= 3.446402207315D+03 E-N=-1.032855444311D+04  KE= 1.472695461404D+03
 Unable to Open any file for archive entry.
 1\1\GINC-AMR-029\SP\RB3LYP\6-31G(d)\C20H33N6O5(1+)\KENGMITH\31-May-202
 2\0\\# B3LYP/6-31G* empiricaldispersion=gd3 guess=read geom=check nosy
 mm integral(ultrafinegrid)\\Candidate Structure: Conf:156 Charge calc 
 in gas phase\\1,1\N,0,35.5322321304,-28.481675545,40.508098122\C,0,35.
 2017988513,-28.9566781143,41.8434389888\C,0,33.7016652298,-29.13482730
 33,42.0805295655\O,0,32.9868633795,-29.7207794895,41.2484517184\C,0,35
 .8449059082,-30.3534133383,42.0948916618\C,0,37.3276351606,-30.3063381
 763,42.3643454639\C,0,38.2533751336,-30.0352066322,41.3441125271\C,0,3
 7.8130027663,-30.5129467377,43.6601433785\C,0,39.615532686,-29.9745599
 925,41.609995638\C,0,39.1779941967,-30.4558957049,43.942921561\C,0,40.
 0861088919,-30.1856218386,42.9133181047\O,0,41.4324461812,-30.11598424
 24,43.1049218308\H,0,35.6202338814,-28.2521687724,42.571650331\H,0,35.
 3443683701,-30.821272444,42.9505363466\H,0,35.6147917572,-30.976073155
 4,41.2191540785\H,0,37.8941931688,-29.8536375719,40.3366440496\H,0,37.
 1148446815,-30.720822836,44.4701180262\H,0,40.334805807,-29.7665678644
 ,40.8246084036\H,0,39.5358956905,-30.6217086057,44.957009301\H,0,41.64
 15179579,-30.2763178365,44.0384188214\H,0,34.9657316481,-28.9805756997
 ,39.823335337\H,0,35.314220551,-27.492450654,40.40746148\N,0,33.212692
 2916,-28.7456648189,43.2828681686\C,0,31.8369707171,-29.0295768751,43.
 7016626859\C,0,31.5522746189,-30.539095629,43.5703523633\O,0,30.496509
 3627,-30.9300904497,43.0717564273\C,0,31.547879651,-28.4506796555,45.1
 097721431\C,0,32.4289940402,-29.0495147759,46.2181773587\C,0,30.058564
 1535,-28.6064616941,45.4489319927\H,0,33.8035098021,-28.1959061053,43.
 892945724\H,0,31.1474717142,-28.5688587122,42.9873612917\H,0,31.769492
 1896,-27.3759893427,45.0344442022\H,0,33.5030359975,-28.9639306439,46.
 0077884639\H,0,32.2460476174,-28.5251531823,47.1607997715\H,0,32.19906
 3426,-30.1084418742,46.3779657902\H,0,29.7772124473,-29.6625209649,45.
 5246530346\H,0,29.421976863,-28.1443404133,44.6871798771\H,0,29.840020
 3612,-28.1295683411,46.4091640883\N,0,32.5284850232,-31.3835792793,44.
 0122883411\C,0,32.7409664801,-32.6821599431,43.3684065202\C,0,34.10619
 10609,-33.2738206557,43.6768717596\O,0,34.550930353,-34.2178653248,43.
 0637181286\C,0,31.6112089457,-33.7049502761,43.6413559269\C,0,31.60061
 16327,-34.928672582,42.7051167969\C,0,31.8270060022,-34.6232413457,41.
 2125670331\N,0,30.9875136877,-33.5169681345,40.7153162551\C,0,31.41304
 54698,-32.3200973145,40.2921558083\N,0,32.6515563905,-32.1349790274,39
 .8086918976\N,0,30.5631953956,-31.2743613263,40.32193941\O,0,34.770324
 028,-32.6442284359,44.670564169\H,0,35.642347398,-33.0768146662,44.761
 8198246\H,0,33.3602047039,-30.9494790356,44.3903393137\H,0,32.78908549
 35,-32.4922911629,42.2942720311\H,0,30.6782089545,-33.1502576486,43.53
 61672078\H,0,31.6665924193,-34.039016071,44.6831642646\H,0,30.64098098
 73,-35.443897166,42.8350271308\H,0,32.3812128552,-35.6413878432,42.988
 2710711\H,0,31.6273617121,-35.5142049247,40.6098519069\H,0,32.87530565
 13,-34.3581911807,41.0645934557\H,0,29.992330569,-33.5838918172,40.896
 5869957\H,0,33.0861340763,-31.22858578,39.9910844077\H,0,33.2462732864
 ,-32.9209556781,39.5895041451\H,0,30.953233933,-30.3959936567,39.99901
 24653\H,0,30.0500844582,-31.1602830404,41.1974687448\\Version=ES64L-G1
 6RevC.01\HF=-1486.5791922\RMSD=8.344e-10\Dipole=-2.203543,-0.4850619,-
 0.0589492\Quadrupole=-766.9459188,-1130.0248813,1896.9708001,-3659.451
 5705,5026.2611026,-4757.2579771\PG=C01 [X(C20H33N6O5)]\\@
 The archive entry for this job was punched.


 OF ALL THE WONDERS OF THE UNIVERSE, THE GREATEST IS MAN.

                                    -- ARISTOTLE
 Job cpu time:       0 days  0 hours  2 minutes 44.8 seconds.
 Elapsed time:       0 days  0 hours  0 minutes 41.6 seconds.
 File lengths (MBytes):  RWF=    264 Int=      0 D2E=      0 Chk=     40 Scr=     16
 Normal termination of Gaussian 16 at Tue May 31 11:32:13 2022.
