 Entering Gaussian System, Link 0=/opt/software/Gaussian/g16-AVX2-C.01/g16/g16
 Input=charge-conf-879.com
 Output=charge-conf-879.log
 Initial command:
 /opt/software/Gaussian/g16-AVX2-C.01/g16/l1.exe "/mnt/gs18/scratch/users/kengmith/Gau-23634.inp" -scrdir="/mnt/gs18/scratch/users/kengmith/"
 Entering Link 1 = /opt/software/Gaussian/g16-AVX2-C.01/g16/l1.exe PID=     23644.
  
 Copyright (c) 1988-2019, Gaussian, Inc.  All Rights Reserved.
  
 This is part of the Gaussian(R) 16 program.  It is based on
 the Gaussian(R) 09 system (copyright 2009, Gaussian, Inc.),
 the Gaussian(R) 03 system (copyright 2003, Gaussian, Inc.),
 the Gaussian(R) 98 system (copyright 1998, Gaussian, Inc.),
 the Gaussian(R) 94 system (copyright 1995, Gaussian, Inc.),
 the Gaussian 92(TM) system (copyright 1992, Gaussian, Inc.),
 the Gaussian 90(TM) system (copyright 1990, Gaussian, Inc.),
 the Gaussian 88(TM) system (copyright 1988, Gaussian, Inc.),
 the Gaussian 86(TM) system (copyright 1986, Carnegie Mellon
 University), and the Gaussian 82(TM) system (copyright 1983,
 Carnegie Mellon University). Gaussian is a federally registered
 trademark of Gaussian, Inc.
  
 This software contains proprietary and confidential information,
 including trade secrets, belonging to Gaussian, Inc.
  
 This software is provided under written license and may be
 used, copied, transmitted, or stored only in accord with that
 written license.
  
 The following legend is applicable only to US Government
 contracts under FAR:
  
                    RESTRICTED RIGHTS LEGEND
  
 Use, reproduction and disclosure by the US Government is
 subject to restrictions as set forth in subparagraphs (a)
 and (c) of the Commercial Computer Software - Restricted
 Rights clause in FAR 52.227-19.
  
 Gaussian, Inc.
 340 Quinnipiac St., Bldg. 40, Wallingford CT 06492
  
  
 ---------------------------------------------------------------
 Warning -- This program may not be used in any manner that
 competes with the business of Gaussian, Inc. or will provide
 assistance to any competitor of Gaussian, Inc.  The licensee
 of this program is prohibited from giving any competitor of
 Gaussian, Inc. access to this program.  By using this program,
 the user acknowledges that Gaussian, Inc. is engaged in the
 business of creating and licensing software in the field of
 computational chemistry and represents and warrants to the
 licensee that it is not a competitor of Gaussian, Inc. and that
 it will not use this program in any manner prohibited above.
 ---------------------------------------------------------------
  

 Cite this work as:
 Gaussian 16, Revision C.01,
 M. J. Frisch, G. W. Trucks, H. B. Schlegel, G. E. Scuseria, 
 M. A. Robb, J. R. Cheeseman, G. Scalmani, V. Barone, 
 G. A. Petersson, H. Nakatsuji, X. Li, M. Caricato, A. V. Marenich, 
 J. Bloino, B. G. Janesko, R. Gomperts, B. Mennucci, H. P. Hratchian, 
 J. V. Ortiz, A. F. Izmaylov, J. L. Sonnenberg, D. Williams-Young, 
 F. Ding, F. Lipparini, F. Egidi, J. Goings, B. Peng, A. Petrone, 
 T. Henderson, D. Ranasinghe, V. G. Zakrzewski, J. Gao, N. Rega, 
 G. Zheng, W. Liang, M. Hada, M. Ehara, K. Toyota, R. Fukuda, 
 J. Hasegawa, M. Ishida, T. Nakajima, Y. Honda, O. Kitao, H. Nakai, 
 T. Vreven, K. Throssell, J. A. Montgomery, Jr., J. E. Peralta, 
 F. Ogliaro, M. J. Bearpark, J. J. Heyd, E. N. Brothers, K. N. Kudin, 
 V. N. Staroverov, T. A. Keith, R. Kobayashi, J. Normand, 
 K. Raghavachari, A. P. Rendell, J. C. Burant, S. S. Iyengar, 
 J. Tomasi, M. Cossi, J. M. Millam, M. Klene, C. Adamo, R. Cammi, 
 J. W. Ochterski, R. L. Martin, K. Morokuma, O. Farkas, 
 J. B. Foresman, and D. J. Fox, Gaussian, Inc., Wallingford CT, 2019.
 
 ******************************************
 Gaussian 16:  ES64L-G16RevC.01  3-Jul-2019
                31-May-2022 
 ******************************************
 %mem=8gb
 %nproc=4
 Will use up to    4 processors via shared memory.
 %chk=conf-879.chk
 ----------------------------------------------------------------------
 # B3LYP/6-31G* empiricaldispersion=gd3 guess=read geom=check nosymm in
 tegral(ultrafinegrid)
 ----------------------------------------------------------------------
 1/29=2,38=1,172=1/1;
 2/12=2,15=1,40=1/2;
 3/5=1,6=6,7=1,11=2,14=-4,25=1,30=1,74=-5,75=-5,116=-2,124=31/1,2,3;
 4/5=1/1;
 5/5=2,38=6/2;
 6/7=2,8=2,9=2,10=2,28=1/1;
 99/5=1,9=1/99;
 ------------------------------------------------------
 Candidate Structure: Conf:879 Charge calc in gas phase
 ------------------------------------------------------
 Structure from the checkpoint file:  "conf-879.chk"
 Charge =  1 Multiplicity = 1
 Redundant internal coordinates found in file.  (old form).
 N,0,31.8546574072,-31.6905312381,39.537388457
 C,0,31.8271795305,-31.1299271103,40.8807960359
 C,0,32.8453401831,-31.8050474536,41.8115488444
 O,0,33.919292135,-32.2392813163,41.4024898357
 C,0,32.1400047912,-29.6062713525,40.8284183377
 C,0,31.0198932951,-28.7821021071,40.241283416
 C,0,30.7626209652,-28.7724602595,38.8608660382
 C,0,30.1902476598,-28.0211965443,41.0713831647
 C,0,29.7152006301,-28.0296104276,38.3297570755
 C,0,29.1342211458,-27.2704224894,40.5535760825
 C,0,28.8939190087,-27.2732990611,39.1758265118
 O,0,27.8853286957,-26.5630188991,38.5933956713
 H,0,30.8155655876,-31.2518604104,41.2879483637
 H,0,32.3656001662,-29.254044899,41.8425501637
 H,0,33.0636141367,-29.4970674612,40.243823722
 H,0,31.3830488285,-29.3712779324,38.2029707255
 H,0,30.3692895441,-28.0045241456,42.1451672924
 H,0,29.5151036706,-28.0192286464,37.2632101447
 H,0,28.5040772212,-26.680907583,41.2167036045
 H,0,27.3917200862,-26.0808351854,39.2748835999
 H,0,32.8294973511,-31.8322206612,39.2711266287
 H,0,31.4205610107,-32.611532397,39.5268782517
 N,0,32.5424185736,-31.8312566731,43.1548989261
 C,0,33.3514256669,-32.6463523717,44.0586109053
 C,0,34.8209552874,-32.2276808985,43.99849692
 O,0,35.7103169467,-33.0889596078,44.1330259485
 C,0,32.7779136884,-32.6104282577,45.501519805
 C,0,32.7451070529,-31.1998607788,46.1092494885
 C,0,33.5225301834,-33.5919216537,46.4166038496
 H,0,31.5875362327,-31.640441429,43.4322695339
 H,0,33.3618458857,-33.6871398134,43.7134797931
 H,0,31.7414871361,-32.9667547917,45.4048929921
 H,0,32.2325622438,-31.2207181108,47.0759140876
 H,0,33.7587142454,-30.8188250684,46.2784743871
 H,0,32.2190974142,-30.4804360639,45.4714213488
 H,0,33.5328540437,-34.6041854486,45.9995376038
 H,0,33.0378193073,-33.6312603475,47.3970238455
 H,0,34.5631331412,-33.2842742451,46.5669419697
 N,0,35.0778315154,-30.9096502784,43.8739459804
 C,0,36.3609805406,-30.3908740653,43.4079818862
 C,0,36.1869972001,-29.5312335721,42.1567907004
 O,0,37.0263638008,-29.427049203,41.2983935942
 C,0,37.1045776854,-29.5539822542,44.476291757
 C,0,37.5312749273,-30.307375975,45.7465327081
 C,0,38.7097683,-31.2806966934,45.5791441541
 N,0,38.2930046835,-32.4780837822,44.8397649785
 C,0,38.9556536195,-33.0867927714,43.8598903595
 N,0,40.2866540995,-32.9469070221,43.7206732354
 N,0,38.2665335023,-33.8302814194,42.9792169019
 O,0,35.017878359,-28.8508025197,42.174771009
 H,0,34.9630118542,-28.3160417153,41.3597447625
 H,0,34.2713755155,-30.3195200187,43.6994842479
 H,0,36.9674223131,-31.2374778785,43.0911143534
 H,0,36.4474231092,-28.7252647301,44.7650400212
 H,0,37.9850856032,-29.1068759697,43.9980026756
 H,0,36.6731901862,-30.8401321716,46.1780412029
 H,0,37.8342745796,-29.5672752497,46.495545928
 H,0,39.0892111819,-31.5749871324,46.5645350705
 H,0,39.5249839111,-30.7883160912,45.035907972
 H,0,37.289385583,-32.706385517,44.8584935773
 H,0,40.7611949211,-33.264422551,42.8880575113
 H,0,40.8536726681,-32.5838778362,44.4719296105
 H,0,38.7227730937,-34.5398666983,42.4243485336
 H,0,37.2495339173,-33.8414814337,43.0446489066
 Recover connectivity data from disk.
                           ----------------------------
                           !    Current Parameters    !
                           ! (Angstroms and Degrees)  !
 --------------------------                            --------------------------
 ! Name  Definition              Value                                          !
 --------------------------------------------------------------------------------
 ! R1    R(1,2)                  1.4559                                         !
 ! R2    R(1,21)                 1.0204                                         !
 ! R3    R(1,22)                 1.0182                                         !
 ! R4    R(2,3)                  1.5358                                         !
 ! R5    R(2,5)                  1.5563                                         !
 ! R6    R(2,13)                 1.0973                                         !
 ! R7    R(3,4)                  1.2285                                         !
 ! R8    R(3,23)                 1.3773                                         !
 ! R9    R(5,6)                  1.5095                                         !
 ! R10   R(5,14)                 1.097                                          !
 ! R11   R(5,15)                 1.0985                                         !
 ! R12   R(6,7)                  1.4042                                         !
 ! R13   R(6,8)                  1.3987                                         !
 ! R14   R(7,9)                  1.3896                                         !
 ! R15   R(7,16)                 1.0846                                         !
 ! R16   R(8,10)                 1.3953                                         !
 ! R17   R(8,17)                 1.0887                                         !
 ! R18   R(9,11)                 1.4008                                         !
 ! R19   R(9,18)                 1.0852                                         !
 ! R20   R(10,11)                1.3986                                         !
 ! R21   R(10,19)                1.0883                                         !
 ! R22   R(11,12)                1.3642                                         !
 ! R23   R(12,20)                0.9698                                         !
 ! R24   R(23,24)                1.4614                                         !
 ! R25   R(23,30)                1.0125                                         !
 ! R26   R(24,25)                1.5292                                         !
 ! R27   R(24,27)                1.5531                                         !
 ! R28   R(24,31)                1.0966                                         !
 ! R29   R(25,26)                1.2453                                         !
 ! R30   R(25,39)                1.3486                                         !
 ! R31   R(27,28)                1.5363                                         !
 ! R32   R(27,29)                1.5347                                         !
 ! R33   R(27,32)                1.1002                                         !
 ! R34   R(28,33)                1.0943                                         !
 ! R35   R(28,34)                1.096                                          !
 ! R36   R(28,35)                1.0959                                         !
 ! R37   R(29,36)                1.0949                                         !
 ! R38   R(29,37)                1.0944                                         !
 ! R39   R(29,38)                1.0955                                         !
 ! R40   R(39,40)                1.4604                                         !
 ! R41   R(39,52)                1.0144                                         !
 ! R42   R(40,41)                1.528                                          !
 ! R43   R(40,43)                1.5475                                         !
 ! R44   R(40,53)                1.0885                                         !
 ! R45   R(41,42)                1.2051                                         !
 ! R46   R(41,50)                1.3528                                         !
 ! R47   R(43,44)                1.5373                                         !
 ! R48   R(43,54)                1.0964                                         !
 ! R49   R(43,55)                1.0973                                         !
 ! R50   R(44,45)                1.5376                                         !
 ! R51   R(44,56)                1.0983                                         !
 ! R52   R(44,57)                1.0957                                         !
 ! R53   R(45,46)                1.4677                                         !
 ! R54   R(45,58)                1.0962                                         !
 ! R55   R(45,59)                1.0964                                         !
 ! R56   R(46,47)                1.3303                                         !
 ! R57   R(46,60)                1.0294                                         !
 ! R58   R(47,48)                1.3456                                         !
 ! R59   R(47,49)                1.3429                                         !
 ! R60   R(48,61)                1.0096                                         !
 ! R61   R(48,62)                1.0088                                         !
 ! R62   R(49,63)                1.0097                                         !
 ! R63   R(49,64)                1.0192                                         !
 ! R64   R(50,51)                0.9763                                         !
 ! A1    A(2,1,21)             108.1952                                         !
 ! A2    A(2,1,22)             110.4724                                         !
 ! A3    A(21,1,22)            106.1999                                         !
 ! A4    A(1,2,3)              112.1737                                         !
 ! A5    A(1,2,5)              110.0059                                         !
 ! A6    A(1,2,13)             108.481                                          !
 ! A7    A(3,2,5)              108.5118                                         !
 ! A8    A(3,2,13)             109.7228                                         !
 ! A9    A(5,2,13)             107.854                                          !
 ! A10   A(2,3,4)              122.2165                                         !
 ! A11   A(2,3,23)             116.9775                                         !
 ! A12   A(4,3,23)             120.6832                                         !
 ! A13   A(2,5,6)              113.4821                                         !
 ! A14   A(2,5,14)             108.9392                                         !
 ! A15   A(2,5,15)             106.5131                                         !
 ! A16   A(6,5,14)             109.686                                          !
 ! A17   A(6,5,15)             111.2613                                         !
 ! A18   A(14,5,15)            106.687                                          !
 ! A19   A(5,6,7)              121.4707                                         !
 ! A20   A(5,6,8)              120.4193                                         !
 ! A21   A(7,6,8)              118.0999                                         !
 ! A22   A(6,7,9)              121.1642                                         !
 ! A23   A(6,7,16)             119.1898                                         !
 ! A24   A(9,7,16)             119.6359                                         !
 ! A25   A(6,8,10)             121.4251                                         !
 ! A26   A(6,8,17)             119.7434                                         !
 ! A27   A(10,8,17)            118.8305                                         !
 ! A28   A(7,9,11)             119.9795                                         !
 ! A29   A(7,9,18)             121.314                                          !
 ! A30   A(11,9,18)            118.7065                                         !
 ! A31   A(8,10,11)            119.6374                                         !
 ! A32   A(8,10,19)            120.236                                          !
 ! A33   A(11,10,19)           120.1256                                         !
 ! A34   A(9,11,10)            119.6938                                         !
 ! A35   A(9,11,12)            117.1745                                         !
 ! A36   A(10,11,12)           123.1314                                         !
 ! A37   A(11,12,20)           109.5818                                         !
 ! A38   A(3,23,24)            119.4726                                         !
 ! A39   A(3,23,30)            118.1007                                         !
 ! A40   A(24,23,30)           117.2456                                         !
 ! A41   A(23,24,25)           110.7924                                         !
 ! A42   A(23,24,27)           110.9281                                         !
 ! A43   A(23,24,31)           109.878                                          !
 ! A44   A(25,24,27)           112.6466                                         !
 ! A45   A(25,24,31)           103.7895                                         !
 ! A46   A(27,24,31)           108.5339                                         !
 ! A47   A(24,25,26)           119.5178                                         !
 ! A48   A(24,25,39)           117.0173                                         !
 ! A49   A(26,25,39)           123.3586                                         !
 ! A50   A(24,27,28)           113.3683                                         !
 ! A51   A(24,27,29)           111.1006                                         !
 ! A52   A(24,27,32)           104.997                                          !
 ! A53   A(28,27,29)           111.2049                                         !
 ! A54   A(28,27,32)           108.1795                                         !
 ! A55   A(29,27,32)           107.5961                                         !
 ! A56   A(27,28,33)           109.995                                          !
 ! A57   A(27,28,34)           111.1336                                         !
 ! A58   A(27,28,35)           112.5044                                         !
 ! A59   A(33,28,34)           107.6612                                         !
 ! A60   A(33,28,35)           107.5663                                         !
 ! A61   A(34,28,35)           107.7895                                         !
 ! A62   A(27,29,36)           111.6378                                         !
 ! A63   A(27,29,37)           110.0153                                         !
 ! A64   A(27,29,38)           111.2916                                         !
 ! A65   A(36,29,37)           108.1918                                         !
 ! A66   A(36,29,38)           107.6356                                         !
 ! A67   A(37,29,38)           107.9305                                         !
 ! A68   A(25,39,40)           122.9571                                         !
 ! A69   A(25,39,52)           115.6588                                         !
 ! A70   A(40,39,52)           115.9113                                         !
 ! A71   A(39,40,41)           111.1664                                         !
 ! A72   A(39,40,43)           113.2069                                         !
 ! A73   A(39,40,53)           107.8245                                         !
 ! A74   A(41,40,43)           108.4067                                         !
 ! A75   A(41,40,53)           105.2262                                         !
 ! A76   A(43,40,53)           110.7242                                         !
 ! A77   A(40,41,42)           123.546                                          !
 ! A78   A(40,41,50)           111.7457                                         !
 ! A79   A(42,41,50)           124.6051                                         !
 ! A80   A(40,43,44)           116.0261                                         !
 ! A81   A(40,43,54)           107.6132                                         !
 ! A82   A(40,43,55)           107.7613                                         !
 ! A83   A(44,43,54)           108.6145                                         !
 ! A84   A(44,43,55)           109.7028                                         !
 ! A85   A(54,43,55)           106.7259                                         !
 ! A86   A(43,44,45)           115.6594                                         !
 ! A87   A(43,44,56)           110.2123                                         !
 ! A88   A(43,44,57)           108.0938                                         !
 ! A89   A(45,44,56)           109.5432                                         !
 ! A90   A(45,44,57)           106.8603                                         !
 ! A91   A(56,44,57)           105.9688                                         !
 ! A92   A(44,45,46)           110.7097                                         !
 ! A93   A(44,45,58)           109.7182                                         !
 ! A94   A(44,45,59)           109.8489                                         !
 ! A95   A(46,45,58)           109.3979                                         !
 ! A96   A(46,45,59)           109.1418                                         !
 ! A97   A(58,45,59)           107.9741                                         !
 ! A98   A(45,46,47)           127.0786                                         !
 ! A99   A(45,46,60)           116.6543                                         !
 ! A100  A(47,46,60)           113.4247                                         !
 ! A101  A(46,47,48)           121.4235                                         !
 ! A102  A(46,47,49)           118.736                                          !
 ! A103  A(48,47,49)           119.8237                                         !
 ! A104  A(47,48,61)           121.1705                                         !
 ! A105  A(47,48,62)           121.0879                                         !
 ! A106  A(61,48,62)           117.5904                                         !
 ! A107  A(47,49,63)           121.1716                                         !
 ! A108  A(47,49,64)           118.4288                                         !
 ! A109  A(63,49,64)           118.5838                                         !
 ! A110  A(41,50,51)           108.2374                                         !
 ! D1    D(21,1,2,3)           -41.9704                                         !
 ! D2    D(21,1,2,5)            78.9108                                         !
 ! D3    D(21,1,2,13)         -163.333                                          !
 ! D4    D(22,1,2,3)            73.8903                                         !
 ! D5    D(22,1,2,5)          -165.2285                                         !
 ! D6    D(22,1,2,13)          -47.4724                                         !
 ! D7    D(1,2,3,4)             32.4638                                         !
 ! D8    D(1,2,3,23)          -151.5417                                         !
 ! D9    D(5,2,3,4)            -89.2756                                         !
 ! D10   D(5,2,3,23)            86.7188                                         !
 ! D11   D(13,2,3,4)           153.1109                                         !
 ! D12   D(13,2,3,23)          -30.8947                                         !
 ! D13   D(1,2,5,6)             71.6741                                         !
 ! D14   D(1,2,5,14)          -165.8205                                         !
 ! D15   D(1,2,5,15)           -51.0891                                         !
 ! D16   D(3,2,5,6)           -165.2688                                         !
 ! D17   D(3,2,5,14)           -42.7635                                         !
 ! D18   D(3,2,5,15)            71.968                                          !
 ! D19   D(13,2,5,6)           -46.4698                                         !
 ! D20   D(13,2,5,14)           76.0355                                         !
 ! D21   D(13,2,5,15)         -169.233                                          !
 ! D22   D(2,3,23,24)          169.8719                                         !
 ! D23   D(2,3,23,30)           15.9896                                         !
 ! D24   D(4,3,23,24)          -14.0685                                         !
 ! D25   D(4,3,23,30)         -167.9509                                         !
 ! D26   D(2,5,6,7)            -74.8046                                         !
 ! D27   D(2,5,6,8)            104.0223                                         !
 ! D28   D(14,5,6,7)           163.1041                                         !
 ! D29   D(14,5,6,8)           -18.069                                          !
 ! D30   D(15,5,6,7)            45.2997                                         !
 ! D31   D(15,5,6,8)          -135.8734                                         !
 ! D32   D(5,6,7,9)            178.8688                                         !
 ! D33   D(5,6,7,16)             0.0238                                         !
 ! D34   D(8,6,7,9)              0.0156                                         !
 ! D35   D(8,6,7,16)          -178.8294                                         !
 ! D36   D(5,6,8,10)          -178.858                                          !
 ! D37   D(5,6,8,17)             1.5027                                         !
 ! D38   D(7,6,8,10)             0.0077                                         !
 ! D39   D(7,6,8,17)          -179.6315                                         !
 ! D40   D(6,7,9,11)            -0.0264                                         !
 ! D41   D(6,7,9,18)           179.9078                                         !
 ! D42   D(16,7,9,11)          178.8135                                         !
 ! D43   D(16,7,9,18)           -1.2523                                         !
 ! D44   D(6,8,10,11)           -0.02                                           !
 ! D45   D(6,8,10,19)         -179.6622                                         !
 ! D46   D(17,8,10,11)         179.6224                                         !
 ! D47   D(17,8,10,19)          -0.0198                                         !
 ! D48   D(7,9,11,10)            0.0137                                         !
 ! D49   D(7,9,11,12)          179.8242                                         !
 ! D50   D(18,9,11,10)        -179.9222                                         !
 ! D51   D(18,9,11,12)          -0.1117                                         !
 ! D52   D(8,10,11,9)            0.0091                                         !
 ! D53   D(8,10,11,12)        -179.7896                                         !
 ! D54   D(19,10,11,9)         179.6517                                         !
 ! D55   D(19,10,11,12)         -0.147                                          !
 ! D56   D(9,11,12,20)        -179.7882                                         !
 ! D57   D(10,11,12,20)          0.0152                                         !
 ! D58   D(3,23,24,25)          58.1442                                         !
 ! D59   D(3,23,24,27)        -175.97                                           !
 ! D60   D(3,23,24,31)         -55.9603                                         !
 ! D61   D(30,23,24,25)       -147.7547                                         !
 ! D62   D(30,23,24,27)        -21.8688                                         !
 ! D63   D(30,23,24,31)         98.1409                                         !
 ! D64   D(23,24,25,26)       -145.82                                           !
 ! D65   D(23,24,25,39)         37.804                                          !
 ! D66   D(27,24,25,26)         89.2607                                         !
 ! D67   D(27,24,25,39)        -87.1153                                         !
 ! D68   D(31,24,25,26)        -27.9355                                         !
 ! D69   D(31,24,25,39)        155.6886                                         !
 ! D70   D(23,24,27,28)        -60.5934                                         !
 ! D71   D(23,24,27,29)        173.3153                                         !
 ! D72   D(23,24,27,32)         57.2859                                         !
 ! D73   D(25,24,27,28)         64.2517                                         !
 ! D74   D(25,24,27,29)        -61.8396                                         !
 ! D75   D(25,24,27,32)       -177.869                                          !
 ! D76   D(31,24,27,28)        178.5991                                         !
 ! D77   D(31,24,27,29)         52.5078                                         !
 ! D78   D(31,24,27,32)        -63.5216                                         !
 ! D79   D(24,25,39,40)       -161.06                                           !
 ! D80   D(24,25,39,52)         -8.2858                                         !
 ! D81   D(26,25,39,40)         22.7159                                         !
 ! D82   D(26,25,39,52)        175.4902                                         !
 ! D83   D(24,27,28,33)        173.7594                                         !
 ! D84   D(24,27,28,34)        -67.1115                                         !
 ! D85   D(24,27,28,35)         53.8656                                         !
 ! D86   D(29,27,28,33)        -60.2047                                         !
 ! D87   D(29,27,28,34)         58.9244                                         !
 ! D88   D(29,27,28,35)        179.9015                                         !
 ! D89   D(32,27,28,33)         57.7453                                         !
 ! D90   D(32,27,28,34)        176.8744                                         !
 ! D91   D(32,27,28,35)        -62.1485                                         !
 ! D92   D(24,27,29,36)        -53.8545                                         !
 ! D93   D(24,27,29,37)       -173.9842                                         !
 ! D94   D(24,27,29,38)         66.4372                                         !
 ! D95   D(28,27,29,36)        178.8639                                         !
 ! D96   D(28,27,29,37)         58.7342                                         !
 ! D97   D(28,27,29,38)        -60.8444                                         !
 ! D98   D(32,27,29,36)         60.5616                                         !
 ! D99   D(32,27,29,37)        -59.5681                                         !
 ! D100  D(32,27,29,38)       -179.1467                                         !
 ! D101  D(25,39,40,41)        121.3726                                         !
 ! D102  D(25,39,40,43)       -116.3227                                         !
 ! D103  D(25,39,40,53)          6.5173                                         !
 ! D104  D(52,39,40,41)        -31.3388                                         !
 ! D105  D(52,39,40,43)         90.966                                          !
 ! D106  D(52,39,40,53)       -146.1941                                         !
 ! D107  D(39,40,41,42)       -149.6122                                         !
 ! D108  D(39,40,41,50)         33.9319                                         !
 ! D109  D(43,40,41,42)         85.3442                                         !
 ! D110  D(43,40,41,50)        -91.1117                                         !
 ! D111  D(53,40,41,42)        -33.1518                                         !
 ! D112  D(53,40,41,50)        150.3923                                         !
 ! D113  D(39,40,43,44)         63.6353                                         !
 ! D114  D(39,40,43,54)        -58.2158                                         !
 ! D115  D(39,40,43,55)       -172.9717                                         !
 ! D116  D(41,40,43,44)       -172.5349                                         !
 ! D117  D(41,40,43,54)         65.6141                                         !
 ! D118  D(41,40,43,55)        -49.1419                                         !
 ! D119  D(53,40,43,44)        -57.5835                                         !
 ! D120  D(53,40,43,54)       -179.4345                                         !
 ! D121  D(53,40,43,55)         65.8095                                         !
 ! D122  D(40,41,50,51)        179.5583                                         !
 ! D123  D(42,41,50,51)          3.1471                                         !
 ! D124  D(40,43,44,45)         72.8235                                         !
 ! D125  D(40,43,44,56)        -52.0899                                         !
 ! D126  D(40,43,44,57)       -167.4757                                         !
 ! D127  D(54,43,44,45)       -165.8582                                         !
 ! D128  D(54,43,44,56)         69.2284                                         !
 ! D129  D(54,43,44,57)        -46.1574                                         !
 ! D130  D(55,43,44,45)        -49.5511                                         !
 ! D131  D(55,43,44,56)       -174.4644                                         !
 ! D132  D(55,43,44,57)         70.1497                                         !
 ! D133  D(43,44,45,46)        -72.8667                                         !
 ! D134  D(43,44,45,58)        166.2902                                         !
 ! D135  D(43,44,45,59)         47.7422                                         !
 ! D136  D(56,44,45,46)         52.3911                                         !
 ! D137  D(56,44,45,58)        -68.452                                          !
 ! D138  D(56,44,45,59)        173.0                                            !
 ! D139  D(57,44,45,46)        166.7608                                         !
 ! D140  D(57,44,45,58)         45.9177                                         !
 ! D141  D(57,44,45,59)        -72.6303                                         !
 ! D142  D(44,45,46,47)        136.1748                                         !
 ! D143  D(44,45,46,60)        -23.3578                                         !
 ! D144  D(58,45,46,47)       -102.7923                                         !
 ! D145  D(58,45,46,60)         97.6751                                         !
 ! D146  D(59,45,46,47)         15.1462                                         !
 ! D147  D(59,45,46,60)       -144.3864                                         !
 ! D148  D(45,46,47,48)         22.7325                                         !
 ! D149  D(45,46,47,49)       -155.7725                                         !
 ! D150  D(60,46,47,48)       -177.18                                           !
 ! D151  D(60,46,47,49)          4.315                                          !
 ! D152  D(46,47,48,61)       -168.5613                                         !
 ! D153  D(46,47,48,62)         16.016                                          !
 ! D154  D(49,47,48,61)          9.9277                                         !
 ! D155  D(49,47,48,62)       -165.495                                          !
 ! D156  D(46,47,49,63)       -159.4551                                         !
 ! D157  D(46,47,49,64)          4.9828                                         !
 ! D158  D(48,47,49,63)         22.0154                                         !
 ! D159  D(48,47,49,64)       -173.5467                                         !
 --------------------------------------------------------------------------------
 Symmetry turned off by external request.
 Stoichiometry    C20H33N6O5(1+)
 Framework group  C1[X(C20H33N6O5)]
 Deg. of freedom   186
 Full point group                 C1      NOp   1
                          Input orientation:                          
 ---------------------------------------------------------------------
 Center     Atomic      Atomic             Coordinates (Angstroms)
 Number     Number       Type             X           Y           Z
 ---------------------------------------------------------------------
      1          7           0       31.854657  -31.690531   39.537388
      2          6           0       31.827180  -31.129927   40.880796
      3          6           0       32.845340  -31.805047   41.811549
      4          8           0       33.919292  -32.239281   41.402490
      5          6           0       32.140005  -29.606271   40.828418
      6          6           0       31.019893  -28.782102   40.241283
      7          6           0       30.762621  -28.772460   38.860866
      8          6           0       30.190248  -28.021197   41.071383
      9          6           0       29.715201  -28.029610   38.329757
     10          6           0       29.134221  -27.270422   40.553576
     11          6           0       28.893919  -27.273299   39.175827
     12          8           0       27.885329  -26.563019   38.593396
     13          1           0       30.815566  -31.251860   41.287948
     14          1           0       32.365600  -29.254045   41.842550
     15          1           0       33.063614  -29.497067   40.243824
     16          1           0       31.383049  -29.371278   38.202971
     17          1           0       30.369290  -28.004524   42.145167
     18          1           0       29.515104  -28.019229   37.263210
     19          1           0       28.504077  -26.680908   41.216704
     20          1           0       27.391720  -26.080835   39.274884
     21          1           0       32.829497  -31.832221   39.271127
     22          1           0       31.420561  -32.611532   39.526878
     23          7           0       32.542419  -31.831257   43.154899
     24          6           0       33.351426  -32.646352   44.058611
     25          6           0       34.820955  -32.227681   43.998497
     26          8           0       35.710317  -33.088960   44.133026
     27          6           0       32.777914  -32.610428   45.501520
     28          6           0       32.745107  -31.199861   46.109249
     29          6           0       33.522530  -33.591922   46.416604
     30          1           0       31.587536  -31.640441   43.432270
     31          1           0       33.361846  -33.687140   43.713480
     32          1           0       31.741487  -32.966755   45.404893
     33          1           0       32.232562  -31.220718   47.075914
     34          1           0       33.758714  -30.818825   46.278474
     35          1           0       32.219097  -30.480436   45.471421
     36          1           0       33.532854  -34.604185   45.999538
     37          1           0       33.037819  -33.631260   47.397024
     38          1           0       34.563133  -33.284274   46.566942
     39          7           0       35.077832  -30.909650   43.873946
     40          6           0       36.360981  -30.390874   43.407982
     41          6           0       36.186997  -29.531234   42.156791
     42          8           0       37.026364  -29.427049   41.298394
     43          6           0       37.104578  -29.553982   44.476292
     44          6           0       37.531275  -30.307376   45.746533
     45          6           0       38.709768  -31.280697   45.579144
     46          7           0       38.293005  -32.478084   44.839765
     47          6           0       38.955654  -33.086793   43.859890
     48          7           0       40.286654  -32.946907   43.720673
     49          7           0       38.266534  -33.830281   42.979217
     50          8           0       35.017878  -28.850803   42.174771
     51          1           0       34.963012  -28.316042   41.359745
     52          1           0       34.271376  -30.319520   43.699484
     53          1           0       36.967422  -31.237478   43.091114
     54          1           0       36.447423  -28.725265   44.765040
     55          1           0       37.985086  -29.106876   43.998003
     56          1           0       36.673190  -30.840132   46.178041
     57          1           0       37.834275  -29.567275   46.495546
     58          1           0       39.089211  -31.574987   46.564535
     59          1           0       39.524984  -30.788316   45.035908
     60          1           0       37.289386  -32.706386   44.858494
     61          1           0       40.761195  -33.264423   42.888058
     62          1           0       40.853673  -32.583878   44.471930
     63          1           0       38.722773  -34.539867   42.424349
     64          1           0       37.249534  -33.841481   43.044649
 ---------------------------------------------------------------------
 Rotational constants (GHZ):           0.2566754           0.0657211           0.0614948
 Standard basis: 6-31G(d) (6D, 7F)
   531 basis functions,  1000 primitive gaussians,   531 cartesian basis functions
   117 alpha electrons      117 beta electrons
       nuclear repulsion energy      3302.3970728855 Hartrees.
 NAtoms=   64 NActive=   64 NUniq=   64 SFac= 1.00D+00 NAtFMM=   60 NAOKFM=T Big=T
 Integral buffers will be    131072 words long.
 Raffenetti 2 integral format.
 Two-electron integral symmetry is turned off.
 Nuclear repulsion after empirical dispersion term =     3302.3157764277 Hartrees.
 One-electron integrals computed using PRISM.
 NBasis=   531 RedAO= T EigKep=  4.32D-04  NBF=   531
 NBsUse=   531 1.00D-06 EigRej= -1.00D+00 NBFU=   531
 Initial guess from the checkpoint file:  "conf-879.chk"
 B after Tr=     0.000000    0.000000    0.000000
         Rot=    1.000000    0.000000    0.000000    0.000000 Ang=   0.00 deg.
 Requested convergence on RMS density matrix=1.00D-08 within 128 cycles.
 Requested convergence on MAX density matrix=1.00D-06.
 Requested convergence on             energy=1.00D-06.
 No special actions if energy rises.
 SCF Done:  E(RB3LYP) =  -1486.57830618     A.U. after    1 cycles
            NFock=  1  Conv=0.79D-08     -V/T= 2.0094

 **********************************************************************

            Population analysis using the SCF Density.

 **********************************************************************

 Alpha  occ. eigenvalues --  -19.30996 -19.24952 -19.24842 -19.23165 -19.22057
 Alpha  occ. eigenvalues --  -14.52112 -14.50727 -14.50401 -14.48317 -14.46805
 Alpha  occ. eigenvalues --  -14.39323 -10.47688 -10.43156 -10.41610 -10.38233
 Alpha  occ. eigenvalues --  -10.36248 -10.35841 -10.34209 -10.31755 -10.31367
 Alpha  occ. eigenvalues --  -10.31035 -10.30709 -10.30483 -10.27804 -10.27194
 Alpha  occ. eigenvalues --  -10.27138 -10.25242 -10.25038 -10.24653 -10.24350
 Alpha  occ. eigenvalues --  -10.23817  -1.21623  -1.16662  -1.15927  -1.13759
 Alpha  occ. eigenvalues --   -1.12803  -1.11252  -1.05547  -1.05453  -1.04317
 Alpha  occ. eigenvalues --   -1.02793  -0.97071  -0.92743  -0.91041  -0.90940
 Alpha  occ. eigenvalues --   -0.88060  -0.84560  -0.82556  -0.81097  -0.80340
 Alpha  occ. eigenvalues --   -0.78679  -0.78198  -0.77656  -0.74424  -0.73671
 Alpha  occ. eigenvalues --   -0.72858  -0.71592  -0.70934  -0.69874  -0.69239
 Alpha  occ. eigenvalues --   -0.67899  -0.66298  -0.65096  -0.64876  -0.64669
 Alpha  occ. eigenvalues --   -0.64114  -0.62470  -0.61378  -0.60472  -0.59879
 Alpha  occ. eigenvalues --   -0.59404  -0.58882  -0.58595  -0.57367  -0.56914
 Alpha  occ. eigenvalues --   -0.56473  -0.55437  -0.55096  -0.54147  -0.53963
 Alpha  occ. eigenvalues --   -0.53713  -0.53516  -0.53038  -0.51577  -0.51442
 Alpha  occ. eigenvalues --   -0.50923  -0.50542  -0.50362  -0.49556  -0.48992
 Alpha  occ. eigenvalues --   -0.48589  -0.47903  -0.47788  -0.47721  -0.47085
 Alpha  occ. eigenvalues --   -0.46930  -0.45994  -0.45608  -0.44550  -0.44400
 Alpha  occ. eigenvalues --   -0.44029  -0.43517  -0.43059  -0.42763  -0.42636
 Alpha  occ. eigenvalues --   -0.41500  -0.40564  -0.40137  -0.39283  -0.38775
 Alpha  occ. eigenvalues --   -0.38321  -0.37065  -0.36649  -0.35621  -0.31917
 Alpha  occ. eigenvalues --   -0.30595  -0.27336
 Alpha virt. eigenvalues --   -0.11901  -0.11246  -0.09815  -0.08425  -0.07340
 Alpha virt. eigenvalues --   -0.05803  -0.04855  -0.04125  -0.03779  -0.03050
 Alpha virt. eigenvalues --   -0.02816  -0.01785  -0.00825   0.00575   0.01172
 Alpha virt. eigenvalues --    0.01405   0.01700   0.01878   0.02452   0.02864
 Alpha virt. eigenvalues --    0.03455   0.03716   0.04176   0.04351   0.05358
 Alpha virt. eigenvalues --    0.05585   0.05846   0.06846   0.07014   0.07416
 Alpha virt. eigenvalues --    0.07620   0.07829   0.08441   0.08887   0.09534
 Alpha virt. eigenvalues --    0.09748   0.10261   0.10671   0.10937   0.11351
 Alpha virt. eigenvalues --    0.11513   0.11994   0.12412   0.12659   0.12806
 Alpha virt. eigenvalues --    0.13491   0.14013   0.14435   0.14908   0.16097
 Alpha virt. eigenvalues --    0.16497   0.16720   0.17032   0.18358   0.19577
 Alpha virt. eigenvalues --    0.19726   0.20437   0.21675   0.23360   0.24398
 Alpha virt. eigenvalues --    0.25448   0.25809   0.27348   0.27861   0.28376
 Alpha virt. eigenvalues --    0.29948   0.30190   0.31008   0.32502   0.36557
 Alpha virt. eigenvalues --    0.38383   0.39043   0.39601   0.40355   0.40756
 Alpha virt. eigenvalues --    0.41490   0.41844   0.42320   0.42806   0.43500
 Alpha virt. eigenvalues --    0.44127   0.44758   0.45095   0.45401   0.45961
 Alpha virt. eigenvalues --    0.46057   0.47025   0.47613   0.48184   0.48484
 Alpha virt. eigenvalues --    0.48719   0.49077   0.49960   0.50352   0.51242
 Alpha virt. eigenvalues --    0.52303   0.52588   0.53256   0.53434   0.54063
 Alpha virt. eigenvalues --    0.54533   0.54791   0.54929   0.55454   0.55804
 Alpha virt. eigenvalues --    0.55955   0.56719   0.56870   0.57421   0.57808
 Alpha virt. eigenvalues --    0.58714   0.59251   0.59805   0.60317   0.61033
 Alpha virt. eigenvalues --    0.61483   0.61798   0.62181   0.63000   0.63827
 Alpha virt. eigenvalues --    0.65659   0.66321   0.66498   0.67195   0.67881
 Alpha virt. eigenvalues --    0.68373   0.69742   0.70190   0.70411   0.70819
 Alpha virt. eigenvalues --    0.71424   0.71924   0.72472   0.72735   0.73156
 Alpha virt. eigenvalues --    0.73826   0.74018   0.74201   0.74950   0.75751
 Alpha virt. eigenvalues --    0.76522   0.76825   0.77091   0.77318   0.77680
 Alpha virt. eigenvalues --    0.78928   0.79145   0.79256   0.80074   0.80267
 Alpha virt. eigenvalues --    0.80893   0.81110   0.82010   0.82184   0.82470
 Alpha virt. eigenvalues --    0.82814   0.83768   0.83984   0.84153   0.84405
 Alpha virt. eigenvalues --    0.84750   0.85149   0.85804   0.86012   0.86597
 Alpha virt. eigenvalues --    0.87067   0.87353   0.88351   0.89524   0.90491
 Alpha virt. eigenvalues --    0.90657   0.91395   0.91566   0.93004   0.93500
 Alpha virt. eigenvalues --    0.94164   0.94788   0.95866   0.96426   0.97284
 Alpha virt. eigenvalues --    0.97749   0.98745   0.99253   1.00256   1.01149
 Alpha virt. eigenvalues --    1.01788   1.02443   1.03527   1.04110   1.04607
 Alpha virt. eigenvalues --    1.06529   1.08217   1.08801   1.09028   1.11127
 Alpha virt. eigenvalues --    1.12392   1.12893   1.14284   1.15320   1.16295
 Alpha virt. eigenvalues --    1.16685   1.18372   1.18603   1.19418   1.20689
 Alpha virt. eigenvalues --    1.21327   1.22199   1.23371   1.24263   1.24912
 Alpha virt. eigenvalues --    1.26381   1.26786   1.28150   1.29061   1.30053
 Alpha virt. eigenvalues --    1.31055   1.31644   1.32016   1.35058   1.36099
 Alpha virt. eigenvalues --    1.36951   1.38000   1.38932   1.39176   1.39484
 Alpha virt. eigenvalues --    1.39991   1.40735   1.41870   1.42673   1.44200
 Alpha virt. eigenvalues --    1.44349   1.45832   1.46789   1.48104   1.49890
 Alpha virt. eigenvalues --    1.52020   1.53478   1.55052   1.55957   1.56642
 Alpha virt. eigenvalues --    1.56914   1.57481   1.59409   1.60161   1.61406
 Alpha virt. eigenvalues --    1.62043   1.64761   1.65559   1.65782   1.66840
 Alpha virt. eigenvalues --    1.67081   1.67804   1.68132   1.68446   1.69480
 Alpha virt. eigenvalues --    1.70815   1.71249   1.72295   1.72825   1.73313
 Alpha virt. eigenvalues --    1.73571   1.73695   1.74841   1.76051   1.76764
 Alpha virt. eigenvalues --    1.77502   1.78823   1.79021   1.79334   1.80095
 Alpha virt. eigenvalues --    1.80605   1.81213   1.82218   1.82830   1.83429
 Alpha virt. eigenvalues --    1.84480   1.85433   1.86527   1.87240   1.87862
 Alpha virt. eigenvalues --    1.88694   1.89126   1.89423   1.89616   1.90158
 Alpha virt. eigenvalues --    1.91729   1.92207   1.92789   1.93234   1.94674
 Alpha virt. eigenvalues --    1.96432   1.96575   1.97458   1.98748   1.98930
 Alpha virt. eigenvalues --    1.99755   2.00774   2.01067   2.01849   2.03285
 Alpha virt. eigenvalues --    2.04767   2.05469   2.05775   2.07174   2.07939
 Alpha virt. eigenvalues --    2.08016   2.08615   2.09034   2.11007   2.11417
 Alpha virt. eigenvalues --    2.13522   2.15460   2.16213   2.16801   2.19994
 Alpha virt. eigenvalues --    2.20176   2.20578   2.21782   2.22174   2.23269
 Alpha virt. eigenvalues --    2.23814   2.24554   2.25797   2.26061   2.26261
 Alpha virt. eigenvalues --    2.28554   2.29629   2.30922   2.31730   2.32613
 Alpha virt. eigenvalues --    2.33038   2.33398   2.34108   2.34366   2.35356
 Alpha virt. eigenvalues --    2.36353   2.39972   2.40515   2.41067   2.43308
 Alpha virt. eigenvalues --    2.43678   2.44568   2.45342   2.46306   2.47395
 Alpha virt. eigenvalues --    2.48661   2.51151   2.52526   2.52588   2.53763
 Alpha virt. eigenvalues --    2.54723   2.55991   2.57134   2.57800   2.59173
 Alpha virt. eigenvalues --    2.59405   2.59618   2.60249   2.61382   2.63174
 Alpha virt. eigenvalues --    2.64776   2.67426   2.69183   2.70970   2.72440
 Alpha virt. eigenvalues --    2.73425   2.74478   2.76008   2.80755   2.83427
 Alpha virt. eigenvalues --    2.84008   2.86249   2.89280   2.89653   2.91317
 Alpha virt. eigenvalues --    2.92841   2.95432   2.97008   3.00025   3.05318
 Alpha virt. eigenvalues --    3.06809   3.08724   3.36185   3.66053   3.74163
 Alpha virt. eigenvalues --    3.75662   3.77579   3.88265   3.88742   3.91305
 Alpha virt. eigenvalues --    3.95505   4.01986   4.03233   4.04938   4.06576
 Alpha virt. eigenvalues --    4.08733   4.10940   4.14813   4.17084   4.18020
 Alpha virt. eigenvalues --    4.20010   4.21608   4.25970   4.27479   4.31861
 Alpha virt. eigenvalues --    4.32261   4.35163   4.40580   4.43131   4.50110
 Alpha virt. eigenvalues --    4.57293   4.59710   4.63207   4.69991
          Condensed to atoms (all electrons):
 Mulliken charges:
               1
     1  N   -0.687149
     2  C   -0.076923
     3  C    0.596456
     4  O   -0.527295
     5  C   -0.355139
     6  C    0.166042
     7  C   -0.161550
     8  C   -0.197144
     9  C   -0.161241
    10  C   -0.192223
    11  C    0.353697
    12  O   -0.634229
    13  H    0.147679
    14  H    0.137165
    15  H    0.138635
    16  H    0.146779
    17  H    0.110372
    18  H    0.151132
    19  H    0.124849
    20  H    0.411584
    21  H    0.316683
    22  H    0.311313
    23  N   -0.649410
    24  C   -0.005992
    25  C    0.651845
    26  O   -0.599676
    27  C   -0.127994
    28  C   -0.464180
    29  C   -0.447226
    30  H    0.341705
    31  H    0.187349
    32  H    0.154926
    33  H    0.176168
    34  H    0.150060
    35  H    0.146208
    36  H    0.163729
    37  H    0.168052
    38  H    0.145602
    39  N   -0.577228
    40  C   -0.062619
    41  C    0.605429
    42  O   -0.437807
    43  C   -0.274793
    44  C   -0.312944
    45  C   -0.150131
    46  N   -0.611871
    47  C    0.787657
    48  N   -0.758542
    49  N   -0.774021
    50  O   -0.577827
    51  H    0.437540
    52  H    0.377908
    53  H    0.181027
    54  H    0.175179
    55  H    0.175420
    56  H    0.172001
    57  H    0.184506
    58  H    0.191100
    59  H    0.171563
    60  H    0.408907
    61  H    0.382471
    62  H    0.384844
    63  H    0.371366
    64  H    0.420203
 Sum of Mulliken charges =   1.00000
 Mulliken charges with hydrogens summed into heavy atoms:
               1
     1  N   -0.059153
     2  C    0.070756
     3  C    0.596456
     4  O   -0.527295
     5  C   -0.079340
     6  C    0.166042
     7  C   -0.014770
     8  C   -0.086772
     9  C   -0.010109
    10  C   -0.067374
    11  C    0.353697
    12  O   -0.222645
    23  N   -0.307705
    24  C    0.181358
    25  C    0.651845
    26  O   -0.599676
    27  C    0.026933
    28  C    0.008256
    29  C    0.030157
    39  N   -0.199319
    40  C    0.118409
    41  C    0.605429
    42  O   -0.437807
    43  C    0.075806
    44  C    0.043563
    45  C    0.212531
    46  N   -0.202964
    47  C    0.787657
    48  N    0.008773
    49  N    0.017548
    50  O   -0.140287
 Electronic spatial extent (au):  <R**2>=        3295572.8956
 Charge=              1.0000 electrons
 Dipole moment (field-independent basis, Debye):
    X=            176.1331    Y=           -153.2188    Z=            213.5474  Tot=            316.3879
 Quadrupole moment (field-independent basis, Debye-Ang):
   XX=           6365.0925   YY=           4734.6043   ZZ=           9312.1705
   XY=          -5644.4807   XZ=           7826.6335   YZ=          -6802.3659
 Traceless Quadrupole moment (field-independent basis, Debye-Ang):
   XX=           -438.8632   YY=          -2069.3515   ZZ=           2508.2147
   XY=          -5644.4807   XZ=           7826.6335   YZ=          -6802.3659
 Octapole moment (field-independent basis, Debye-Ang**2):
  XXX=         227719.4151  YYY=        -141842.5090  ZZZ=         398886.4799  XYY=         175632.6924
  XXY=        -205041.0440  XXZ=         282988.8073  XZZ=         341647.0730  YZZ=        -296468.3448
  YYZ=         210167.8497  XYZ=        -250420.0063
 Hexadecapole moment (field-independent basis, Debye-Ang**3):
 XXXX=        8086982.7866 YYYY=        4106772.7050 ZZZZ=       16785659.3164 XXXY=       -7377352.2506
 XXXZ=       10135801.3301 YYYX=       -5311991.1254 YYYZ=       -6301358.8525 ZZZX=       14668493.7077
 ZZZY=      -12700279.0677 XXYY=        6422227.7746 XXZZ=       12370914.6974 YYZZ=        9158808.6144
 XXYZ=       -9098984.7345 YYXZ=        7787865.4645 ZZXY=      -10922750.1935
 N-N= 3.302315776428D+03 E-N=-1.004270916168D+04  KE= 1.472679416374D+03
 Unable to Open any file for archive entry.
 1\1\GINC-AMR-087\SP\RB3LYP\6-31G(d)\C20H33N6O5(1+)\KENGMITH\31-May-202
 2\0\\# B3LYP/6-31G* empiricaldispersion=gd3 guess=read geom=check nosy
 mm integral(ultrafinegrid)\\Candidate Structure: Conf:879 Charge calc 
 in gas phase\\1,1\N,0,31.8546574072,-31.6905312381,39.537388457\C,0,31
 .8271795305,-31.1299271103,40.8807960359\C,0,32.8453401831,-31.8050474
 536,41.8115488444\O,0,33.919292135,-32.2392813163,41.4024898357\C,0,32
 .1400047912,-29.6062713525,40.8284183377\C,0,31.0198932951,-28.7821021
 071,40.241283416\C,0,30.7626209652,-28.7724602595,38.8608660382\C,0,30
 .1902476598,-28.0211965443,41.0713831647\C,0,29.7152006301,-28.0296104
 276,38.3297570755\C,0,29.1342211458,-27.2704224894,40.5535760825\C,0,2
 8.8939190087,-27.2732990611,39.1758265118\O,0,27.8853286957,-26.563018
 8991,38.5933956713\H,0,30.8155655876,-31.2518604104,41.2879483637\H,0,
 32.3656001662,-29.254044899,41.8425501637\H,0,33.0636141367,-29.497067
 4612,40.243823722\H,0,31.3830488285,-29.3712779324,38.2029707255\H,0,3
 0.3692895441,-28.0045241456,42.1451672924\H,0,29.5151036706,-28.019228
 6464,37.2632101447\H,0,28.5040772212,-26.680907583,41.2167036045\H,0,2
 7.3917200862,-26.0808351854,39.2748835999\H,0,32.8294973511,-31.832220
 6612,39.2711266287\H,0,31.4205610107,-32.611532397,39.5268782517\N,0,3
 2.5424185736,-31.8312566731,43.1548989261\C,0,33.3514256669,-32.646352
 3717,44.0586109053\C,0,34.8209552874,-32.2276808985,43.99849692\O,0,35
 .7103169467,-33.0889596078,44.1330259485\C,0,32.7779136884,-32.6104282
 577,45.501519805\C,0,32.7451070529,-31.1998607788,46.1092494885\C,0,33
 .5225301834,-33.5919216537,46.4166038496\H,0,31.5875362327,-31.6404414
 29,43.4322695339\H,0,33.3618458857,-33.6871398134,43.7134797931\H,0,31
 .7414871361,-32.9667547917,45.4048929921\H,0,32.2325622438,-31.2207181
 108,47.0759140876\H,0,33.7587142454,-30.8188250684,46.2784743871\H,0,3
 2.2190974142,-30.4804360639,45.4714213488\H,0,33.5328540437,-34.604185
 4486,45.9995376038\H,0,33.0378193073,-33.6312603475,47.3970238455\H,0,
 34.5631331412,-33.2842742451,46.5669419697\N,0,35.0778315154,-30.90965
 02784,43.8739459804\C,0,36.3609805406,-30.3908740653,43.4079818862\C,0
 ,36.1869972001,-29.5312335721,42.1567907004\O,0,37.0263638008,-29.4270
 49203,41.2983935942\C,0,37.1045776854,-29.5539822542,44.476291757\C,0,
 37.5312749273,-30.307375975,45.7465327081\C,0,38.7097683,-31.280696693
 4,45.5791441541\N,0,38.2930046835,-32.4780837822,44.8397649785\C,0,38.
 9556536195,-33.0867927714,43.8598903595\N,0,40.2866540995,-32.94690702
 21,43.7206732354\N,0,38.2665335023,-33.8302814194,42.9792169019\O,0,35
 .017878359,-28.8508025197,42.174771009\H,0,34.9630118542,-28.316041715
 3,41.3597447625\H,0,34.2713755155,-30.3195200187,43.6994842479\H,0,36.
 9674223131,-31.2374778785,43.0911143534\H,0,36.4474231092,-28.72526473
 01,44.7650400212\H,0,37.9850856032,-29.1068759697,43.9980026756\H,0,36
 .6731901862,-30.8401321716,46.1780412029\H,0,37.8342745796,-29.5672752
 497,46.495545928\H,0,39.0892111819,-31.5749871324,46.5645350705\H,0,39
 .5249839111,-30.7883160912,45.035907972\H,0,37.289385583,-32.706385517
 ,44.8584935773\H,0,40.7611949211,-33.264422551,42.8880575113\H,0,40.85
 36726681,-32.5838778362,44.4719296105\H,0,38.7227730937,-34.5398666983
 ,42.4243485336\H,0,37.2495339173,-33.8414814337,43.0446489066\\Version
 =ES64L-G16RevC.01\HF=-1486.5783062\RMSD=7.911e-09\Dipole=4.8473977,-2.
 2042843,3.4699546\Quadrupole=-326.2840679,-1538.5121107,1864.7961786,-
 4196.5330869,5818.910157,-5057.39232\PG=C01 [X(C20H33N6O5)]\\@
 The archive entry for this job was punched.


 LIFE IS A CONTINUAL STRUGGLE AGAINST THE TENDENCY TO PRODUCE ENTROPY.
 Job cpu time:       0 days  0 hours  1 minutes  2.9 seconds.
 Elapsed time:       0 days  0 hours  0 minutes 16.2 seconds.
 File lengths (MBytes):  RWF=    264 Int=      0 D2E=      0 Chk=     40 Scr=     16
 Normal termination of Gaussian 16 at Tue May 31 11:31:54 2022.
