 Entering Gaussian System, Link 0=/opt/software/Gaussian/g16-AVX2-C.01/g16/g16
 Input=charge-conf-772.com
 Output=charge-conf-772.log
 Initial command:
 /opt/software/Gaussian/g16-AVX2-C.01/g16/l1.exe "/mnt/gs18/scratch/users/kengmith/Gau-96793.inp" -scrdir="/mnt/gs18/scratch/users/kengmith/"
 Entering Link 1 = /opt/software/Gaussian/g16-AVX2-C.01/g16/l1.exe PID=     96805.
  
 Copyright (c) 1988-2019, Gaussian, Inc.  All Rights Reserved.
  
 This is part of the Gaussian(R) 16 program.  It is based on
 the Gaussian(R) 09 system (copyright 2009, Gaussian, Inc.),
 the Gaussian(R) 03 system (copyright 2003, Gaussian, Inc.),
 the Gaussian(R) 98 system (copyright 1998, Gaussian, Inc.),
 the Gaussian(R) 94 system (copyright 1995, Gaussian, Inc.),
 the Gaussian 92(TM) system (copyright 1992, Gaussian, Inc.),
 the Gaussian 90(TM) system (copyright 1990, Gaussian, Inc.),
 the Gaussian 88(TM) system (copyright 1988, Gaussian, Inc.),
 the Gaussian 86(TM) system (copyright 1986, Carnegie Mellon
 University), and the Gaussian 82(TM) system (copyright 1983,
 Carnegie Mellon University). Gaussian is a federally registered
 trademark of Gaussian, Inc.
  
 This software contains proprietary and confidential information,
 including trade secrets, belonging to Gaussian, Inc.
  
 This software is provided under written license and may be
 used, copied, transmitted, or stored only in accord with that
 written license.
  
 The following legend is applicable only to US Government
 contracts under FAR:
  
                    RESTRICTED RIGHTS LEGEND
  
 Use, reproduction and disclosure by the US Government is
 subject to restrictions as set forth in subparagraphs (a)
 and (c) of the Commercial Computer Software - Restricted
 Rights clause in FAR 52.227-19.
  
 Gaussian, Inc.
 340 Quinnipiac St., Bldg. 40, Wallingford CT 06492
  
  
 ---------------------------------------------------------------
 Warning -- This program may not be used in any manner that
 competes with the business of Gaussian, Inc. or will provide
 assistance to any competitor of Gaussian, Inc.  The licensee
 of this program is prohibited from giving any competitor of
 Gaussian, Inc. access to this program.  By using this program,
 the user acknowledges that Gaussian, Inc. is engaged in the
 business of creating and licensing software in the field of
 computational chemistry and represents and warrants to the
 licensee that it is not a competitor of Gaussian, Inc. and that
 it will not use this program in any manner prohibited above.
 ---------------------------------------------------------------
  

 Cite this work as:
 Gaussian 16, Revision C.01,
 M. J. Frisch, G. W. Trucks, H. B. Schlegel, G. E. Scuseria, 
 M. A. Robb, J. R. Cheeseman, G. Scalmani, V. Barone, 
 G. A. Petersson, H. Nakatsuji, X. Li, M. Caricato, A. V. Marenich, 
 J. Bloino, B. G. Janesko, R. Gomperts, B. Mennucci, H. P. Hratchian, 
 J. V. Ortiz, A. F. Izmaylov, J. L. Sonnenberg, D. Williams-Young, 
 F. Ding, F. Lipparini, F. Egidi, J. Goings, B. Peng, A. Petrone, 
 T. Henderson, D. Ranasinghe, V. G. Zakrzewski, J. Gao, N. Rega, 
 G. Zheng, W. Liang, M. Hada, M. Ehara, K. Toyota, R. Fukuda, 
 J. Hasegawa, M. Ishida, T. Nakajima, Y. Honda, O. Kitao, H. Nakai, 
 T. Vreven, K. Throssell, J. A. Montgomery, Jr., J. E. Peralta, 
 F. Ogliaro, M. J. Bearpark, J. J. Heyd, E. N. Brothers, K. N. Kudin, 
 V. N. Staroverov, T. A. Keith, R. Kobayashi, J. Normand, 
 K. Raghavachari, A. P. Rendell, J. C. Burant, S. S. Iyengar, 
 J. Tomasi, M. Cossi, J. M. Millam, M. Klene, C. Adamo, R. Cammi, 
 J. W. Ochterski, R. L. Martin, K. Morokuma, O. Farkas, 
 J. B. Foresman, and D. J. Fox, Gaussian, Inc., Wallingford CT, 2019.
 
 ******************************************
 Gaussian 16:  ES64L-G16RevC.01  3-Jul-2019
                31-May-2022 
 ******************************************
 %mem=8gb
 %nproc=4
 Will use up to    4 processors via shared memory.
 %chk=conf-772.chk
 ----------------------------------------------------------------------
 # B3LYP/6-31G* empiricaldispersion=gd3 guess=read geom=check nosymm in
 tegral(ultrafinegrid)
 ----------------------------------------------------------------------
 1/29=2,38=1,172=1/1;
 2/12=2,15=1,40=1/2;
 3/5=1,6=6,7=1,11=2,14=-4,25=1,30=1,74=-5,75=-5,116=-2,124=31/1,2,3;
 4/5=1/1;
 5/5=2,38=6/2;
 6/7=2,8=2,9=2,10=2,28=1/1;
 99/5=1,9=1/99;
 ------------------------------------------------------
 Candidate Structure: Conf:772 Charge calc in gas phase
 ------------------------------------------------------
 Structure from the checkpoint file:  "conf-772.chk"
 Charge =  1 Multiplicity = 1
 Redundant internal coordinates found in file.  (old form).
 N,0,34.29429506,-28.9312591698,44.4646044393
 C,0,35.5098295477,-29.1376940841,43.6489051138
 C,0,35.4926407085,-30.6184748805,43.227418768
 O,0,35.0968306648,-31.4835345549,44.0057877646
 C,0,35.5359421228,-28.1183041686,42.4894585752
 C,0,35.4679268204,-26.6889544325,42.9811273572
 C,0,34.2578548442,-25.9859219729,42.993072724
 C,0,36.6109396072,-26.0495613884,43.486417781
 C,0,34.1837242188,-24.6845498904,43.4906092031
 C,0,36.5539414796,-24.7539703043,43.9850374865
 C,0,35.3343232547,-24.0630078563,43.9888344223
 O,0,35.3422483135,-22.7969525512,44.4879534668
 H,0,36.4209790999,-28.9998371217,44.2530165315
 H,0,36.4640851628,-28.2565034911,41.9184126245
 H,0,34.6946944713,-28.3293516016,41.8188416428
 H,0,33.3578207571,-26.4575947251,42.6054740259
 H,0,37.5652891366,-26.5724452408,43.4827656432
 H,0,33.2350217564,-24.1521099778,43.4854388631
 H,0,37.4379125724,-24.2553841957,44.3687201641
 H,0,34.4540573888,-22.4119816497,44.4249867135
 H,0,34.2649836042,-29.624780397,45.2120074332
 H,0,34.3074685535,-28.0005040787,44.8778915018
 N,0,35.8825939916,-30.9407611372,41.9596585877
 C,0,35.8602590311,-32.3325362504,41.5133991749
 C,0,34.4623807241,-32.9393176451,41.7195305303
 O,0,34.3482940549,-34.1426103832,42.0153723496
 C,0,36.3658853974,-32.4530949663,40.0517103767
 C,0,35.4825440259,-31.7028836151,39.0419575597
 C,0,36.5308485241,-33.9258434765,39.6525258359
 H,0,36.2549913438,-30.2340958563,41.342445161
 H,0,36.5069537923,-32.9316297785,42.1630794222
 H,0,37.3634155897,-31.9900647654,40.0508384124
 H,0,35.3548652836,-30.642507032,39.2915438003
 H,0,35.9312764762,-31.7495008368,38.0450592925
 H,0,34.484882729,-32.1520754711,38.9810591115
 H,0,35.5663580054,-34.4443656349,39.6403798975
 H,0,37.1866740731,-34.459461023,40.3482561444
 H,0,36.9665742683,-33.996300151,38.6510588651
 N,0,33.4057032739,-32.1220845151,41.5225297709
 C,0,32.1629893208,-32.2397277755,42.2982280296
 C,0,32.0886345388,-31.0493384242,43.272291779
 O,0,31.6332070343,-31.1621945265,44.3871504942
 C,0,30.9104318429,-32.3353800284,41.4108941947
 C,0,30.8598899384,-33.5614104928,40.4839069763
 C,0,30.6350758374,-34.9150137549,41.1768483521
 N,0,31.8302014375,-35.341005681,41.9186815543
 C,0,31.8525393455,-35.9190128903,43.1175803347
 N,0,30.7741146128,-36.5621756913,43.6028199239
 N,0,32.9661026351,-35.8330194646,43.8606930277
 O,0,32.5999214405,-29.9309733601,42.743245217
 H,0,33.0349059949,-29.3635164095,43.4933371963
 H,0,33.6440653474,-31.1523321957,41.3390284466
 H,0,32.2494520193,-33.116608206,42.9367472961
 H,0,30.8556531701,-31.4288635856,40.7963949754
 H,0,30.0311910119,-32.3239159317,42.067494824
 H,0,31.7740602172,-33.6096603159,39.8771166234
 H,0,30.0333254851,-33.4283476836,39.7768826215
 H,0,30.3830145355,-35.6751690467,40.4279056654
 H,0,29.7939382841,-34.8364949602,41.8760153692
 H,0,32.7344416067,-34.9375816627,41.6412089835
 H,0,30.7216808025,-36.8347941219,44.5732855159
 H,0,30.0034998538,-36.8151805768,43.003354983
 H,0,33.1393298751,-36.4778224393,44.6177904325
 H,0,33.7352472626,-35.2567359435,43.5194087658
 Recover connectivity data from disk.
                           ----------------------------
                           !    Current Parameters    !
                           ! (Angstroms and Degrees)  !
 --------------------------                            --------------------------
 ! Name  Definition              Value                                          !
 --------------------------------------------------------------------------------
 ! R1    R(1,2)                  1.4783                                         !
 ! R2    R(1,21)                 1.02                                           !
 ! R3    R(1,22)                 1.0185                                         !
 ! R4    R(2,3)                  1.5397                                         !
 ! R5    R(2,5)                  1.5441                                         !
 ! R6    R(2,13)                 1.1019                                         !
 ! R7    R(3,4)                  1.2292                                         !
 ! R8    R(3,23)                 1.365                                          !
 ! R9    R(5,6)                  1.5131                                         !
 ! R10   R(5,14)                 1.0985                                         !
 ! R11   R(5,15)                 1.0963                                         !
 ! R12   R(6,7)                  1.3995                                         !
 ! R13   R(6,8)                  1.4038                                         !
 ! R14   R(7,9)                  1.3952                                         !
 ! R15   R(7,16)                 1.0876                                         !
 ! R16   R(8,10)                 1.3894                                         !
 ! R17   R(8,17)                 1.0882                                         !
 ! R18   R(9,11)                 1.3994                                         !
 ! R19   R(9,18)                 1.0879                                         !
 ! R20   R(10,11)                1.4018                                         !
 ! R21   R(10,19)                1.085                                          !
 ! R22   R(11,12)                1.3609                                         !
 ! R23   R(12,20)                0.9701                                         !
 ! R24   R(23,24)                1.4617                                         !
 ! R25   R(23,30)                1.0095                                         !
 ! R26   R(24,25)                1.5378                                         !
 ! R27   R(24,27)                1.5514                                         !
 ! R28   R(24,31)                1.0951                                         !
 ! R29   R(25,26)                1.2444                                         !
 ! R30   R(25,39)                1.3503                                         !
 ! R31   R(27,28)                1.5371                                         !
 ! R32   R(27,29)                1.5348                                         !
 ! R33   R(27,32)                1.0998                                         !
 ! R34   R(28,33)                1.0968                                         !
 ! R35   R(28,34)                1.0942                                         !
 ! R36   R(28,35)                1.0958                                         !
 ! R37   R(29,36)                1.0951                                         !
 ! R38   R(29,37)                1.0949                                         !
 ! R39   R(29,38)                1.0944                                         !
 ! R40   R(39,40)                1.4697                                         !
 ! R41   R(39,52)                1.0153                                         !
 ! R42   R(40,41)                1.5399                                         !
 ! R43   R(40,43)                1.538                                          !
 ! R44   R(40,53)                1.0882                                         !
 ! R45   R(41,42)                1.2096                                         !
 ! R46   R(41,50)                1.3387                                         !
 ! R47   R(43,44)                1.5379                                         !
 ! R48   R(43,54)                1.0965                                         !
 ! R49   R(43,55)                1.0974                                         !
 ! R50   R(44,45)                1.5372                                         !
 ! R51   R(44,56)                1.0983                                         !
 ! R52   R(44,57)                1.0958                                         !
 ! R53   R(45,46)                1.4697                                         !
 ! R54   R(45,58)                1.0965                                         !
 ! R55   R(45,59)                1.0966                                         !
 ! R56   R(46,47)                1.3311                                         !
 ! R57   R(46,60)                1.0283                                         !
 ! R58   R(47,48)                1.3461                                         !
 ! R59   R(47,49)                1.3415                                         !
 ! R60   R(48,61)                1.0094                                         !
 ! R61   R(48,62)                1.0086                                         !
 ! R62   R(49,63)                1.0094                                         !
 ! R63   R(49,64)                1.0199                                         !
 ! R64   R(50,51)                1.0363                                         !
 ! A1    A(2,1,21)             109.4499                                         !
 ! A2    A(2,1,22)             109.9304                                         !
 ! A3    A(21,1,22)            108.9284                                         !
 ! A4    A(1,2,3)              106.0312                                         !
 ! A5    A(1,2,5)              109.6356                                         !
 ! A6    A(1,2,13)             111.0955                                         !
 ! A7    A(3,2,5)              115.4401                                         !
 ! A8    A(3,2,13)             106.2385                                         !
 ! A9    A(5,2,13)             108.367                                          !
 ! A10   A(2,3,4)              120.4704                                         !
 ! A11   A(2,3,23)             118.5639                                         !
 ! A12   A(4,3,23)             120.9289                                         !
 ! A13   A(2,5,6)              112.2656                                         !
 ! A14   A(2,5,14)             108.7591                                         !
 ! A15   A(2,5,15)             108.6176                                         !
 ! A16   A(6,5,14)             109.0113                                         !
 ! A17   A(6,5,15)             110.2503                                         !
 ! A18   A(14,5,15)            107.8264                                         !
 ! A19   A(5,6,7)              121.0763                                         !
 ! A20   A(5,6,8)              120.7061                                         !
 ! A21   A(7,6,8)              118.1731                                         !
 ! A22   A(6,7,9)              121.167                                          !
 ! A23   A(6,7,16)             119.6462                                         !
 ! A24   A(9,7,16)             119.1864                                         !
 ! A25   A(6,8,10)             121.3657                                         !
 ! A26   A(6,8,17)             119.6046                                         !
 ! A27   A(10,8,17)            119.0281                                         !
 ! A28   A(7,9,11)             119.8373                                         !
 ! A29   A(7,9,18)             120.0752                                         !
 ! A30   A(11,9,18)            120.0863                                         !
 ! A31   A(8,10,11)            119.7563                                         !
 ! A32   A(8,10,19)            121.4658                                         !
 ! A33   A(11,10,19)           118.7764                                         !
 ! A34   A(9,11,10)            119.7005                                         !
 ! A35   A(9,11,12)            123.2669                                         !
 ! A36   A(10,11,12)           117.0326                                         !
 ! A37   A(11,12,20)           109.8798                                         !
 ! A38   A(3,23,24)            120.2647                                         !
 ! A39   A(3,23,30)            120.5299                                         !
 ! A40   A(24,23,30)           119.0457                                         !
 ! A41   A(23,24,25)           110.4057                                         !
 ! A42   A(23,24,27)           110.8951                                         !
 ! A43   A(23,24,31)           109.314                                          !
 ! A44   A(25,24,27)           113.0733                                         !
 ! A45   A(25,24,31)           103.9708                                         !
 ! A46   A(27,24,31)           108.9044                                         !
 ! A47   A(24,25,26)           119.7866                                         !
 ! A48   A(24,25,39)           116.9363                                         !
 ! A49   A(26,25,39)           123.2432                                         !
 ! A50   A(24,27,28)           113.1859                                         !
 ! A51   A(24,27,29)           110.7726                                         !
 ! A52   A(24,27,32)           105.2871                                         !
 ! A53   A(28,27,29)           111.0541                                         !
 ! A54   A(28,27,32)           108.3757                                         !
 ! A55   A(29,27,32)           107.8373                                         !
 ! A56   A(27,28,33)           112.9088                                         !
 ! A57   A(27,28,34)           110.0001                                         !
 ! A58   A(27,28,35)           111.0783                                         !
 ! A59   A(33,28,34)           107.232                                          !
 ! A60   A(33,28,35)           107.6357                                         !
 ! A61   A(34,28,35)           107.774                                          !
 ! A62   A(27,29,36)           111.2584                                         !
 ! A63   A(27,29,37)           111.5163                                         !
 ! A64   A(27,29,38)           110.0336                                         !
 ! A65   A(36,29,37)           107.6868                                         !
 ! A66   A(36,29,38)           108.0602                                         !
 ! A67   A(37,29,38)           108.1555                                         !
 ! A68   A(25,39,40)           122.43                                           !
 ! A69   A(25,39,52)           114.8796                                         !
 ! A70   A(40,39,52)           111.7375                                         !
 ! A71   A(39,40,41)           108.2287                                         !
 ! A72   A(39,40,43)           112.8994                                         !
 ! A73   A(39,40,53)           107.8803                                         !
 ! A74   A(41,40,43)           111.9436                                         !
 ! A75   A(41,40,53)           104.8089                                         !
 ! A76   A(43,40,53)           110.6793                                         !
 ! A77   A(40,41,42)           121.9425                                         !
 ! A78   A(40,41,50)           112.1714                                         !
 ! A79   A(42,41,50)           125.8745                                         !
 ! A80   A(40,43,44)           115.0948                                         !
 ! A81   A(40,43,54)           108.2154                                         !
 ! A82   A(40,43,55)           107.8579                                         !
 ! A83   A(44,43,54)           108.6413                                         !
 ! A84   A(44,43,55)           110.0383                                         !
 ! A85   A(54,43,55)           106.6567                                         !
 ! A86   A(43,44,45)           115.7918                                         !
 ! A87   A(43,44,56)           109.9193                                         !
 ! A88   A(43,44,57)           108.4755                                         !
 ! A89   A(45,44,56)           109.3964                                         !
 ! A90   A(45,44,57)           106.706                                          !
 ! A91   A(56,44,57)           106.064                                          !
 ! A92   A(44,45,46)           111.3357                                         !
 ! A93   A(44,45,58)           109.6446                                         !
 ! A94   A(44,45,59)           109.6663                                         !
 ! A95   A(46,45,58)           109.3142                                         !
 ! A96   A(46,45,59)           108.8246                                         !
 ! A97   A(58,45,59)           107.9871                                         !
 ! A98   A(45,46,47)           126.4482                                         !
 ! A99   A(45,46,60)           117.7198                                         !
 ! A100  A(47,46,60)           113.4923                                         !
 ! A101  A(46,47,48)           121.2431                                         !
 ! A102  A(46,47,49)           119.0126                                         !
 ! A103  A(48,47,49)           119.7323                                         !
 ! A104  A(47,48,61)           121.1458                                         !
 ! A105  A(47,48,62)           121.1788                                         !
 ! A106  A(61,48,62)           117.646                                          !
 ! A107  A(47,49,63)           121.1289                                         !
 ! A108  A(47,49,64)           118.4808                                         !
 ! A109  A(63,49,64)           118.8487                                         !
 ! A110  A(41,50,51)           109.3741                                         !
 ! D1    D(21,1,2,3)            52.9854                                         !
 ! D2    D(21,1,2,5)           178.2294                                         !
 ! D3    D(21,1,2,13)          -62.0197                                         !
 ! D4    D(22,1,2,3)           172.5879                                         !
 ! D5    D(22,1,2,5)           -62.168                                          !
 ! D6    D(22,1,2,13)           57.5828                                         !
 ! D7    D(1,2,3,4)            -37.6423                                         !
 ! D8    D(1,2,3,23)           140.175                                          !
 ! D9    D(5,2,3,4)           -159.2338                                         !
 ! D10   D(5,2,3,23)            18.5835                                         !
 ! D11   D(13,2,3,4)            80.6347                                         !
 ! D12   D(13,2,3,23)         -101.548                                          !
 ! D13   D(1,2,5,6)             56.9395                                         !
 ! D14   D(1,2,5,14)           177.6568                                         !
 ! D15   D(1,2,5,15)           -65.2411                                         !
 ! D16   D(3,2,5,6)            176.5707                                         !
 ! D17   D(3,2,5,14)           -62.712                                          !
 ! D18   D(3,2,5,15)            54.3901                                         !
 ! D19   D(13,2,5,6)           -64.4677                                         !
 ! D20   D(13,2,5,14)           56.2496                                         !
 ! D21   D(13,2,5,15)          173.3517                                         !
 ! D22   D(2,3,23,24)         -179.0172                                         !
 ! D23   D(2,3,23,30)            5.6187                                         !
 ! D24   D(4,3,23,24)           -1.2103                                         !
 ! D25   D(4,3,23,30)         -176.5744                                         !
 ! D26   D(2,5,6,7)            -98.3445                                         !
 ! D27   D(2,5,6,8)             79.1858                                         !
 ! D28   D(14,5,6,7)           141.0838                                         !
 ! D29   D(14,5,6,8)           -41.3859                                         !
 ! D30   D(15,5,6,7)            22.9039                                         !
 ! D31   D(15,5,6,8)          -159.5658                                         !
 ! D32   D(5,6,7,9)            177.673                                          !
 ! D33   D(5,6,7,16)            -2.5371                                         !
 ! D34   D(8,6,7,9)              0.0818                                         !
 ! D35   D(8,6,7,16)           179.8717                                         !
 ! D36   D(5,6,8,10)          -177.7004                                         !
 ! D37   D(5,6,8,17)             2.7716                                         !
 ! D38   D(7,6,8,10)            -0.1                                            !
 ! D39   D(7,6,8,17)          -179.628                                          !
 ! D40   D(6,7,9,11)            -0.011                                          !
 ! D41   D(6,7,9,18)           179.6042                                         !
 ! D42   D(16,7,9,11)         -179.8019                                         !
 ! D43   D(16,7,9,18)           -0.1867                                         !
 ! D44   D(6,8,10,11)            0.0467                                         !
 ! D45   D(6,8,10,19)         -179.5086                                         !
 ! D46   D(17,8,10,11)         179.5774                                         !
 ! D47   D(17,8,10,19)           0.022                                          !
 ! D48   D(7,9,11,10)           -0.0443                                         !
 ! D49   D(7,9,11,12)          179.8851                                         !
 ! D50   D(18,9,11,10)        -179.6595                                         !
 ! D51   D(18,9,11,12)           0.27                                           !
 ! D52   D(8,10,11,9)            0.0267                                         !
 ! D53   D(8,10,11,12)        -179.9071                                         !
 ! D54   D(19,10,11,9)         179.594                                          !
 ! D55   D(19,10,11,12)         -0.3398                                         !
 ! D56   D(9,11,12,20)          -1.0359                                         !
 ! D57   D(10,11,12,20)        178.8953                                         !
 ! D58   D(3,23,24,25)          54.7887                                         !
 ! D59   D(3,23,24,27)        -179.0824                                         !
 ! D60   D(3,23,24,31)         -58.998                                          !
 ! D61   D(30,23,24,25)       -129.7788                                         !
 ! D62   D(30,23,24,27)         -3.6499                                         !
 ! D63   D(30,23,24,31)        116.4346                                         !
 ! D64   D(23,24,25,26)       -146.2481                                         !
 ! D65   D(23,24,25,39)         35.7983                                         !
 ! D66   D(27,24,25,26)         88.8553                                         !
 ! D67   D(27,24,25,39)        -89.0983                                         !
 ! D68   D(31,24,25,26)        -29.1061                                         !
 ! D69   D(31,24,25,39)        152.9404                                         !
 ! D70   D(23,24,27,28)        -62.5561                                         !
 ! D71   D(23,24,27,29)        171.9617                                         !
 ! D72   D(23,24,27,32)         55.6467                                         !
 ! D73   D(25,24,27,28)         62.0747                                         !
 ! D74   D(25,24,27,29)        -63.4075                                         !
 ! D75   D(25,24,27,32)       -179.7225                                         !
 ! D76   D(31,24,27,28)        177.1157                                         !
 ! D77   D(31,24,27,29)         51.6335                                         !
 ! D78   D(31,24,27,32)        -64.6815                                         !
 ! D79   D(24,25,39,40)       -146.5809                                         !
 ! D80   D(24,25,39,52)         -5.4739                                         !
 ! D81   D(26,25,39,40)         35.5427                                         !
 ! D82   D(26,25,39,52)        176.6497                                         !
 ! D83   D(24,27,28,33)         55.4063                                         !
 ! D84   D(24,27,28,34)        175.1461                                         !
 ! D85   D(24,27,28,35)        -65.6161                                         !
 ! D86   D(29,27,28,33)       -179.2628                                         !
 ! D87   D(29,27,28,34)        -59.5231                                         !
 ! D88   D(29,27,28,35)         59.7148                                         !
 ! D89   D(32,27,28,33)        -60.9858                                         !
 ! D90   D(32,27,28,34)         58.754                                          !
 ! D91   D(32,27,28,35)        177.9918                                         !
 ! D92   D(24,27,29,36)         64.99                                           !
 ! D93   D(24,27,29,37)        -55.2612                                         !
 ! D94   D(24,27,29,38)       -175.2785                                         !
 ! D95   D(28,27,29,36)        -61.6815                                         !
 ! D96   D(28,27,29,37)        178.0672                                         !
 ! D97   D(28,27,29,38)         58.05                                           !
 ! D98   D(32,27,29,36)        179.7163                                         !
 ! D99   D(32,27,29,37)         59.4651                                         !
 ! D100  D(32,27,29,38)        -60.5522                                         !
 ! D101  D(25,39,40,41)        107.8401                                         !
 ! D102  D(25,39,40,43)       -127.6733                                         !
 ! D103  D(25,39,40,53)         -5.0526                                         !
 ! D104  D(52,39,40,41)        -34.3384                                         !
 ! D105  D(52,39,40,43)         90.1481                                         !
 ! D106  D(52,39,40,53)       -147.2311                                         !
 ! D107  D(39,40,41,42)       -143.3719                                         !
 ! D108  D(39,40,41,50)         35.4563                                         !
 ! D109  D(43,40,41,42)         91.5735                                         !
 ! D110  D(43,40,41,50)        -89.5983                                         !
 ! D111  D(53,40,41,42)        -28.4471                                         !
 ! D112  D(53,40,41,50)        150.3811                                         !
 ! D113  D(39,40,43,44)         62.0059                                         !
 ! D114  D(39,40,43,54)        -59.7092                                         !
 ! D115  D(39,40,43,55)       -174.7369                                         !
 ! D116  D(41,40,43,44)       -175.5637                                         !
 ! D117  D(41,40,43,54)         62.7212                                         !
 ! D118  D(41,40,43,55)        -52.3064                                         !
 ! D119  D(53,40,43,44)        -59.0376                                         !
 ! D120  D(53,40,43,54)        179.2474                                         !
 ! D121  D(53,40,43,55)         64.2197                                         !
 ! D122  D(40,41,50,51)       -147.3659                                         !
 ! D123  D(42,41,50,51)         31.407                                          !
 ! D124  D(40,43,44,45)         70.6077                                         !
 ! D125  D(40,43,44,56)        -53.9637                                         !
 ! D126  D(40,43,44,57)       -169.5196                                         !
 ! D127  D(54,43,44,45)       -167.9079                                         !
 ! D128  D(54,43,44,56)         67.5207                                         !
 ! D129  D(54,43,44,57)        -48.0352                                         !
 ! D130  D(55,43,44,45)        -51.4823                                         !
 ! D131  D(55,43,44,56)       -176.0536                                         !
 ! D132  D(55,43,44,57)         68.3905                                         !
 ! D133  D(43,44,45,46)        -72.069                                          !
 ! D134  D(43,44,45,58)        166.836                                          !
 ! D135  D(43,44,45,59)         48.4263                                         !
 ! D136  D(56,44,45,46)         52.772                                          !
 ! D137  D(56,44,45,58)        -68.323                                          !
 ! D138  D(56,44,45,59)        173.2674                                         !
 ! D139  D(57,44,45,46)        167.1                                            !
 ! D140  D(57,44,45,58)         46.005                                          !
 ! D141  D(57,44,45,59)        -72.4046                                         !
 ! D142  D(44,45,46,47)        139.501                                          !
 ! D143  D(44,45,46,60)        -21.9207                                         !
 ! D144  D(58,45,46,47)        -99.211                                          !
 ! D145  D(58,45,46,60)         99.3673                                         !
 ! D146  D(59,45,46,47)         18.5115                                         !
 ! D147  D(59,45,46,60)       -142.9102                                         !
 ! D148  D(45,46,47,48)         21.6647                                         !
 ! D149  D(45,46,47,49)       -157.0705                                         !
 ! D150  D(60,46,47,48)       -176.2454                                         !
 ! D151  D(60,46,47,49)          5.0193                                         !
 ! D152  D(46,47,48,61)       -167.3801                                         !
 ! D153  D(46,47,48,62)         14.6373                                         !
 ! D154  D(49,47,48,61)         11.3462                                         !
 ! D155  D(49,47,48,62)       -166.6364                                         !
 ! D156  D(46,47,49,63)       -160.3555                                         !
 ! D157  D(46,47,49,64)          5.3206                                         !
 ! D158  D(48,47,49,63)         20.8897                                         !
 ! D159  D(48,47,49,64)       -173.4342                                         !
 --------------------------------------------------------------------------------
 Symmetry turned off by external request.
 Stoichiometry    C20H33N6O5(1+)
 Framework group  C1[X(C20H33N6O5)]
 Deg. of freedom   186
 Full point group                 C1      NOp   1
                          Input orientation:                          
 ---------------------------------------------------------------------
 Center     Atomic      Atomic             Coordinates (Angstroms)
 Number     Number       Type             X           Y           Z
 ---------------------------------------------------------------------
      1          7           0       34.294295  -28.931259   44.464604
      2          6           0       35.509830  -29.137694   43.648905
      3          6           0       35.492641  -30.618475   43.227419
      4          8           0       35.096831  -31.483535   44.005788
      5          6           0       35.535942  -28.118304   42.489459
      6          6           0       35.467927  -26.688954   42.981127
      7          6           0       34.257855  -25.985922   42.993073
      8          6           0       36.610940  -26.049561   43.486418
      9          6           0       34.183724  -24.684550   43.490609
     10          6           0       36.553941  -24.753970   43.985037
     11          6           0       35.334323  -24.063008   43.988834
     12          8           0       35.342248  -22.796953   44.487953
     13          1           0       36.420979  -28.999837   44.253017
     14          1           0       36.464085  -28.256503   41.918413
     15          1           0       34.694694  -28.329352   41.818842
     16          1           0       33.357821  -26.457595   42.605474
     17          1           0       37.565289  -26.572445   43.482766
     18          1           0       33.235022  -24.152110   43.485439
     19          1           0       37.437913  -24.255384   44.368720
     20          1           0       34.454057  -22.411982   44.424987
     21          1           0       34.264984  -29.624780   45.212007
     22          1           0       34.307469  -28.000504   44.877892
     23          7           0       35.882594  -30.940761   41.959659
     24          6           0       35.860259  -32.332536   41.513399
     25          6           0       34.462381  -32.939318   41.719531
     26          8           0       34.348294  -34.142610   42.015372
     27          6           0       36.365885  -32.453095   40.051710
     28          6           0       35.482544  -31.702884   39.041958
     29          6           0       36.530849  -33.925843   39.652526
     30          1           0       36.254991  -30.234096   41.342445
     31          1           0       36.506954  -32.931630   42.163079
     32          1           0       37.363416  -31.990065   40.050838
     33          1           0       35.354865  -30.642507   39.291544
     34          1           0       35.931276  -31.749501   38.045059
     35          1           0       34.484883  -32.152075   38.981059
     36          1           0       35.566358  -34.444366   39.640380
     37          1           0       37.186674  -34.459461   40.348256
     38          1           0       36.966574  -33.996300   38.651059
     39          7           0       33.405703  -32.122085   41.522530
     40          6           0       32.162989  -32.239728   42.298228
     41          6           0       32.088635  -31.049338   43.272292
     42          8           0       31.633207  -31.162195   44.387150
     43          6           0       30.910432  -32.335380   41.410894
     44          6           0       30.859890  -33.561410   40.483907
     45          6           0       30.635076  -34.915014   41.176848
     46          7           0       31.830201  -35.341006   41.918682
     47          6           0       31.852539  -35.919013   43.117580
     48          7           0       30.774115  -36.562176   43.602820
     49          7           0       32.966103  -35.833019   43.860693
     50          8           0       32.599921  -29.930973   42.743245
     51          1           0       33.034906  -29.363516   43.493337
     52          1           0       33.644065  -31.152332   41.339028
     53          1           0       32.249452  -33.116608   42.936747
     54          1           0       30.855653  -31.428864   40.796395
     55          1           0       30.031191  -32.323916   42.067495
     56          1           0       31.774060  -33.609660   39.877117
     57          1           0       30.033325  -33.428348   39.776883
     58          1           0       30.383015  -35.675169   40.427906
     59          1           0       29.793938  -34.836495   41.876015
     60          1           0       32.734442  -34.937582   41.641209
     61          1           0       30.721681  -36.834794   44.573286
     62          1           0       30.003500  -36.815181   43.003355
     63          1           0       33.139330  -36.477822   44.617790
     64          1           0       33.735247  -35.256736   43.519409
 ---------------------------------------------------------------------
 Rotational constants (GHZ):           0.2669765           0.0685536           0.0619643
 Standard basis: 6-31G(d) (6D, 7F)
   531 basis functions,  1000 primitive gaussians,   531 cartesian basis functions
   117 alpha electrons      117 beta electrons
       nuclear repulsion energy      3350.0712583270 Hartrees.
 NAtoms=   64 NActive=   64 NUniq=   64 SFac= 1.00D+00 NAtFMM=   60 NAOKFM=T Big=T
 Integral buffers will be    131072 words long.
 Raffenetti 2 integral format.
 Two-electron integral symmetry is turned off.
 Nuclear repulsion after empirical dispersion term =     3349.9856060433 Hartrees.
 One-electron integrals computed using PRISM.
 NBasis=   531 RedAO= T EigKep=  4.33D-04  NBF=   531
 NBsUse=   531 1.00D-06 EigRej= -1.00D+00 NBFU=   531
 Initial guess from the checkpoint file:  "conf-772.chk"
 B after Tr=     0.000000    0.000000    0.000000
         Rot=    1.000000    0.000000    0.000000    0.000000 Ang=   0.00 deg.
 Requested convergence on RMS density matrix=1.00D-08 within 128 cycles.
 Requested convergence on MAX density matrix=1.00D-06.
 Requested convergence on             energy=1.00D-06.
 No special actions if energy rises.
 SCF Done:  E(RB3LYP) =  -1486.59696340     A.U. after    1 cycles
            NFock=  1  Conv=0.72D-08     -V/T= 2.0094

 **********************************************************************

            Population analysis using the SCF Density.

 **********************************************************************

 Alpha  occ. eigenvalues --  -19.25542 -19.24720 -19.24485 -19.22257 -19.21749
 Alpha  occ. eigenvalues --  -14.51496 -14.49975 -14.49863 -14.47292 -14.46949
 Alpha  occ. eigenvalues --  -14.43645 -10.47022 -10.40941 -10.40033 -10.39397
 Alpha  occ. eigenvalues --  -10.35541 -10.34092 -10.33838 -10.33175 -10.32319
 Alpha  occ. eigenvalues --  -10.30752 -10.30431 -10.29979 -10.29048 -10.27649
 Alpha  occ. eigenvalues --  -10.27167 -10.26942 -10.26790 -10.26760 -10.26406
 Alpha  occ. eigenvalues --  -10.25845  -1.17334  -1.15978  -1.15311  -1.14246
 Alpha  occ. eigenvalues --   -1.12899  -1.08923  -1.04861  -1.04651  -1.03655
 Alpha  occ. eigenvalues --   -1.02797  -1.00070  -0.92985  -0.91726  -0.90821
 Alpha  occ. eigenvalues --   -0.86756  -0.86316  -0.82526  -0.82285  -0.80362
 Alpha  occ. eigenvalues --   -0.79177  -0.78058  -0.77291  -0.74255  -0.73158
 Alpha  occ. eigenvalues --   -0.72004  -0.71011  -0.69755  -0.69683  -0.68993
 Alpha  occ. eigenvalues --   -0.68656  -0.66845  -0.66254  -0.64462  -0.64250
 Alpha  occ. eigenvalues --   -0.63726  -0.62090  -0.61769  -0.61000  -0.60413
 Alpha  occ. eigenvalues --   -0.59573  -0.58489  -0.58077  -0.56570  -0.56257
 Alpha  occ. eigenvalues --   -0.55772  -0.55551  -0.54898  -0.54406  -0.54273
 Alpha  occ. eigenvalues --   -0.53854  -0.52989  -0.52721  -0.51582  -0.51208
 Alpha  occ. eigenvalues --   -0.50885  -0.50051  -0.50006  -0.49669  -0.49314
 Alpha  occ. eigenvalues --   -0.48615  -0.48474  -0.48330  -0.47572  -0.47235
 Alpha  occ. eigenvalues --   -0.46706  -0.46199  -0.45857  -0.45023  -0.44294
 Alpha  occ. eigenvalues --   -0.44157  -0.43964  -0.43628  -0.43246  -0.42062
 Alpha  occ. eigenvalues --   -0.41093  -0.40391  -0.39841  -0.39321  -0.38895
 Alpha  occ. eigenvalues --   -0.38453  -0.37216  -0.36106  -0.35677  -0.34106
 Alpha  occ. eigenvalues --   -0.32768  -0.29216
 Alpha virt. eigenvalues --   -0.11220  -0.10965  -0.09048  -0.07902  -0.07097
 Alpha virt. eigenvalues --   -0.06722  -0.06573  -0.03497  -0.03220  -0.01808
 Alpha virt. eigenvalues --   -0.01292  -0.00075   0.00384   0.00476   0.00989
 Alpha virt. eigenvalues --    0.01385   0.01989   0.02414   0.02913   0.03328
 Alpha virt. eigenvalues --    0.04269   0.04450   0.04674   0.05033   0.05627
 Alpha virt. eigenvalues --    0.06079   0.06543   0.07015   0.07258   0.07467
 Alpha virt. eigenvalues --    0.07598   0.08377   0.08440   0.08546   0.09175
 Alpha virt. eigenvalues --    0.09235   0.09700   0.10046   0.10543   0.10650
 Alpha virt. eigenvalues --    0.11412   0.12281   0.12592   0.12831   0.13125
 Alpha virt. eigenvalues --    0.13371   0.14089   0.14579   0.15124   0.15431
 Alpha virt. eigenvalues --    0.16562   0.17213   0.17568   0.17884   0.18259
 Alpha virt. eigenvalues --    0.19106   0.21056   0.23371   0.24069   0.24595
 Alpha virt. eigenvalues --    0.25556   0.26192   0.26517   0.27015   0.27903
 Alpha virt. eigenvalues --    0.28839   0.29220   0.31780   0.33243   0.37531
 Alpha virt. eigenvalues --    0.39407   0.39670   0.39872   0.40237   0.40731
 Alpha virt. eigenvalues --    0.41014   0.42239   0.42347   0.42601   0.43645
 Alpha virt. eigenvalues --    0.44252   0.44410   0.44764   0.45264   0.45791
 Alpha virt. eigenvalues --    0.46257   0.46643   0.47172   0.48137   0.48672
 Alpha virt. eigenvalues --    0.49210   0.49691   0.50058   0.50890   0.50983
 Alpha virt. eigenvalues --    0.51650   0.51884   0.52427   0.53108   0.53582
 Alpha virt. eigenvalues --    0.54114   0.54278   0.54931   0.55416   0.55745
 Alpha virt. eigenvalues --    0.56230   0.57149   0.57199   0.57540   0.58015
 Alpha virt. eigenvalues --    0.58244   0.59174   0.59459   0.60582   0.61601
 Alpha virt. eigenvalues --    0.61757   0.62165   0.62822   0.63256   0.64315
 Alpha virt. eigenvalues --    0.65266   0.65810   0.66580   0.67334   0.67840
 Alpha virt. eigenvalues --    0.68625   0.68907   0.69938   0.70207   0.71565
 Alpha virt. eigenvalues --    0.72019   0.72398   0.73178   0.73514   0.74007
 Alpha virt. eigenvalues --    0.74300   0.74719   0.75039   0.75580   0.76060
 Alpha virt. eigenvalues --    0.76375   0.76588   0.77227   0.77522   0.78149
 Alpha virt. eigenvalues --    0.78532   0.78801   0.79867   0.80431   0.81302
 Alpha virt. eigenvalues --    0.81382   0.81599   0.81790   0.82380   0.82985
 Alpha virt. eigenvalues --    0.83399   0.83757   0.83884   0.84383   0.84758
 Alpha virt. eigenvalues --    0.85316   0.85776   0.86210   0.86392   0.86712
 Alpha virt. eigenvalues --    0.88290   0.88525   0.88998   0.89779   0.90287
 Alpha virt. eigenvalues --    0.90524   0.91819   0.92242   0.92750   0.93965
 Alpha virt. eigenvalues --    0.94692   0.95538   0.96399   0.96552   0.98534
 Alpha virt. eigenvalues --    0.99283   0.99904   1.00285   1.00925   1.00974
 Alpha virt. eigenvalues --    1.02214   1.03888   1.05023   1.05927   1.06680
 Alpha virt. eigenvalues --    1.06893   1.08315   1.09989   1.11205   1.11593
 Alpha virt. eigenvalues --    1.12814   1.13225   1.13959   1.14934   1.16550
 Alpha virt. eigenvalues --    1.17165   1.17583   1.17871   1.19061   1.19874
 Alpha virt. eigenvalues --    1.21827   1.22436   1.23012   1.23913   1.25424
 Alpha virt. eigenvalues --    1.26984   1.27831   1.29045   1.29932   1.31881
 Alpha virt. eigenvalues --    1.32255   1.34172   1.35058   1.36153   1.36355
 Alpha virt. eigenvalues --    1.36623   1.37314   1.37707   1.39021   1.39745
 Alpha virt. eigenvalues --    1.40590   1.41749   1.43622   1.43839   1.44542
 Alpha virt. eigenvalues --    1.45665   1.46714   1.47219   1.49258   1.51176
 Alpha virt. eigenvalues --    1.52405   1.53006   1.54379   1.55693   1.57124
 Alpha virt. eigenvalues --    1.57491   1.57734   1.59629   1.60807   1.62217
 Alpha virt. eigenvalues --    1.63493   1.65159   1.65470   1.65916   1.66546
 Alpha virt. eigenvalues --    1.67277   1.68698   1.68985   1.69799   1.71116
 Alpha virt. eigenvalues --    1.71173   1.71865   1.72686   1.73100   1.73565
 Alpha virt. eigenvalues --    1.73913   1.75057   1.75235   1.75690   1.77424
 Alpha virt. eigenvalues --    1.77734   1.78157   1.79267   1.80213   1.80537
 Alpha virt. eigenvalues --    1.81700   1.82029   1.82654   1.83614   1.83776
 Alpha virt. eigenvalues --    1.84946   1.86008   1.86765   1.86945   1.87651
 Alpha virt. eigenvalues --    1.88704   1.88824   1.89995   1.90427   1.90910
 Alpha virt. eigenvalues --    1.91420   1.92194   1.92421   1.94065   1.94803
 Alpha virt. eigenvalues --    1.95953   1.96398   1.97340   1.98390   1.99001
 Alpha virt. eigenvalues --    1.99124   2.00872   2.02095   2.02743   2.03431
 Alpha virt. eigenvalues --    2.04177   2.05784   2.06192   2.06848   2.07211
 Alpha virt. eigenvalues --    2.07564   2.09103   2.10490   2.11815   2.12466
 Alpha virt. eigenvalues --    2.13623   2.15423   2.16531   2.17368   2.18170
 Alpha virt. eigenvalues --    2.19346   2.19570   2.21407   2.22159   2.22781
 Alpha virt. eigenvalues --    2.23796   2.24118   2.26066   2.26647   2.27038
 Alpha virt. eigenvalues --    2.28197   2.28991   2.31393   2.31789   2.32901
 Alpha virt. eigenvalues --    2.33155   2.33502   2.34464   2.36363   2.36930
 Alpha virt. eigenvalues --    2.38035   2.39739   2.41570   2.42358   2.43095
 Alpha virt. eigenvalues --    2.44013   2.45117   2.46086   2.47242   2.48458
 Alpha virt. eigenvalues --    2.50081   2.50878   2.51920   2.52549   2.54004
 Alpha virt. eigenvalues --    2.54432   2.54620   2.56079   2.57914   2.58937
 Alpha virt. eigenvalues --    2.59183   2.59609   2.60965   2.61398   2.61815
 Alpha virt. eigenvalues --    2.66637   2.67637   2.69203   2.70071   2.71370
 Alpha virt. eigenvalues --    2.72770   2.76512   2.78170   2.79509   2.81875
 Alpha virt. eigenvalues --    2.83039   2.86139   2.88888   2.90539   2.91971
 Alpha virt. eigenvalues --    2.93744   2.94914   2.97395   3.02009   3.04625
 Alpha virt. eigenvalues --    3.06800   3.09620   3.34164   3.66722   3.75116
 Alpha virt. eigenvalues --    3.78548   3.87192   3.88151   3.89549   3.93602
 Alpha virt. eigenvalues --    3.98336   4.03488   4.04138   4.04632   4.04986
 Alpha virt. eigenvalues --    4.11764   4.14487   4.15665   4.17962   4.17998
 Alpha virt. eigenvalues --    4.20649   4.23102   4.26228   4.26694   4.29643
 Alpha virt. eigenvalues --    4.35295   4.37856   4.40764   4.41408   4.52102
 Alpha virt. eigenvalues --    4.58879   4.61086   4.65314   4.68102
          Condensed to atoms (all electrons):
 Mulliken charges:
               1
     1  N   -0.786897
     2  C   -0.061481
     3  C    0.638777
     4  O   -0.530802
     5  C   -0.384013
     6  C    0.140819
     7  C   -0.196905
     8  C   -0.186815
     9  C   -0.191061
    10  C   -0.154785
    11  C    0.356043
    12  O   -0.628946
    13  H    0.181297
    14  H    0.149489
    15  H    0.165133
    16  H    0.140550
    17  H    0.132054
    18  H    0.137191
    19  H    0.159832
    20  H    0.416315
    21  H    0.361372
    22  H    0.350595
    23  N   -0.663707
    24  C    0.005780
    25  C    0.635167
    26  O   -0.590421
    27  C   -0.130275
    28  C   -0.468040
    29  C   -0.447840
    30  H    0.351717
    31  H    0.194248
    32  H    0.156227
    33  H    0.139992
    34  H    0.177785
    35  H    0.156719
    36  H    0.153645
    37  H    0.162131
    38  H    0.166774
    39  N   -0.574199
    40  C   -0.070936
    41  C    0.609347
    42  O   -0.459878
    43  C   -0.271857
    44  C   -0.308759
    45  C   -0.149901
    46  N   -0.612367
    47  C    0.793068
    48  N   -0.760879
    49  N   -0.775592
    50  O   -0.641632
    51  H    0.465478
    52  H    0.366410
    53  H    0.172907
    54  H    0.172465
    55  H    0.171092
    56  H    0.169276
    57  H    0.180310
    58  H    0.187351
    59  H    0.170855
    60  H    0.402301
    61  H    0.381104
    62  H    0.384017
    63  H    0.369084
    64  H    0.423272
 Sum of Mulliken charges =   1.00000
 Mulliken charges with hydrogens summed into heavy atoms:
               1
     1  N   -0.074930
     2  C    0.119816
     3  C    0.638777
     4  O   -0.530802
     5  C   -0.069391
     6  C    0.140819
     7  C   -0.056355
     8  C   -0.054761
     9  C   -0.053869
    10  C    0.005046
    11  C    0.356043
    12  O   -0.212631
    23  N   -0.311990
    24  C    0.200028
    25  C    0.635167
    26  O   -0.590421
    27  C    0.025952
    28  C    0.006456
    29  C    0.034710
    39  N   -0.207789
    40  C    0.101971
    41  C    0.609347
    42  O   -0.459878
    43  C    0.071701
    44  C    0.040827
    45  C    0.208304
    46  N   -0.210066
    47  C    0.793068
    48  N    0.004242
    49  N    0.016764
    50  O   -0.176154
 Electronic spatial extent (au):  <R**2>=        3287307.1034
 Charge=              1.0000 electrons
 Dipole moment (field-independent basis, Debye):
    X=            158.3442    Y=           -159.3342    Z=            202.9683  Tot=            302.7481
 Quadrupole moment (field-independent basis, Debye-Ang):
   XX=           5077.0999   YY=           5198.2251   ZZ=           8411.9104
   XY=          -5221.8766   XZ=           6687.5304   YZ=          -6739.1212
 Traceless Quadrupole moment (field-independent basis, Debye-Ang):
   XX=          -1151.9786   YY=          -1030.8533   ZZ=           2182.8319
   XY=          -5221.8766   XZ=           6687.5304   YZ=          -6739.1212
 Octapole moment (field-independent basis, Debye-Ang**2):
  XXX=         157429.6790  YYY=        -167506.0279  ZZZ=         341407.5388  XYY=         169066.7085
  XXY=        -166825.7655  XXZ=         214241.0084  XZZ=         276830.7068  YZZ=        -280020.5031
  YYZ=         220201.4933  XYZ=        -220723.7951
 Hexadecapole moment (field-independent basis, Debye-Ang**3):
 XXXX=        4667363.3986 YYYY=        5338124.0177 ZZZZ=       13526002.6542 XXXY=       -5168043.1847
 XXXZ=        6634291.9048 YYYX=       -5398746.5855 YYYZ=       -7112578.6631 ZZZX=       11213320.3818
 ZZZY=      -11417887.0743 XXYY=        5365021.6633 XXZZ=        8848360.5917 YYZZ=        9172939.5051
 XXYZ=       -7045516.3678 YYXZ=        7156625.1267 ZZXY=       -9159764.6700
 N-N= 3.349985606043D+03 E-N=-1.013808987498D+04  KE= 1.472680979697D+03
 Unable to Open any file for archive entry.
 1\1\GINC-AMR-086\SP\RB3LYP\6-31G(d)\C20H33N6O5(1+)\KENGMITH\31-May-202
 2\0\\# B3LYP/6-31G* empiricaldispersion=gd3 guess=read geom=check nosy
 mm integral(ultrafinegrid)\\Candidate Structure: Conf:772 Charge calc 
 in gas phase\\1,1\N,0,34.29429506,-28.9312591698,44.4646044393\C,0,35.
 5098295477,-29.1376940841,43.6489051138\C,0,35.4926407085,-30.61847488
 05,43.227418768\O,0,35.0968306648,-31.4835345549,44.0057877646\C,0,35.
 5359421228,-28.1183041686,42.4894585752\C,0,35.4679268204,-26.68895443
 25,42.9811273572\C,0,34.2578548442,-25.9859219729,42.993072724\C,0,36.
 6109396072,-26.0495613884,43.486417781\C,0,34.1837242188,-24.684549890
 4,43.4906092031\C,0,36.5539414796,-24.7539703043,43.9850374865\C,0,35.
 3343232547,-24.0630078563,43.9888344223\O,0,35.3422483135,-22.79695255
 12,44.4879534668\H,0,36.4209790999,-28.9998371217,44.2530165315\H,0,36
 .4640851628,-28.2565034911,41.9184126245\H,0,34.6946944713,-28.3293516
 016,41.8188416428\H,0,33.3578207571,-26.4575947251,42.6054740259\H,0,3
 7.5652891366,-26.5724452408,43.4827656432\H,0,33.2350217564,-24.152109
 9778,43.4854388631\H,0,37.4379125724,-24.2553841957,44.3687201641\H,0,
 34.4540573888,-22.4119816497,44.4249867135\H,0,34.2649836042,-29.62478
 0397,45.2120074332\H,0,34.3074685535,-28.0005040787,44.8778915018\N,0,
 35.8825939916,-30.9407611372,41.9596585877\C,0,35.8602590311,-32.33253
 62504,41.5133991749\C,0,34.4623807241,-32.9393176451,41.7195305303\O,0
 ,34.3482940549,-34.1426103832,42.0153723496\C,0,36.3658853974,-32.4530
 949663,40.0517103767\C,0,35.4825440259,-31.7028836151,39.0419575597\C,
 0,36.5308485241,-33.9258434765,39.6525258359\H,0,36.2549913438,-30.234
 0958563,41.342445161\H,0,36.5069537923,-32.9316297785,42.1630794222\H,
 0,37.3634155897,-31.9900647654,40.0508384124\H,0,35.3548652836,-30.642
 507032,39.2915438003\H,0,35.9312764762,-31.7495008368,38.0450592925\H,
 0,34.484882729,-32.1520754711,38.9810591115\H,0,35.5663580054,-34.4443
 656349,39.6403798975\H,0,37.1866740731,-34.459461023,40.3482561444\H,0
 ,36.9665742683,-33.996300151,38.6510588651\N,0,33.4057032739,-32.12208
 45151,41.5225297709\C,0,32.1629893208,-32.2397277755,42.2982280296\C,0
 ,32.0886345388,-31.0493384242,43.272291779\O,0,31.6332070343,-31.16219
 45265,44.3871504942\C,0,30.9104318429,-32.3353800284,41.4108941947\C,0
 ,30.8598899384,-33.5614104928,40.4839069763\C,0,30.6350758374,-34.9150
 137549,41.1768483521\N,0,31.8302014375,-35.341005681,41.9186815543\C,0
 ,31.8525393455,-35.9190128903,43.1175803347\N,0,30.7741146128,-36.5621
 756913,43.6028199239\N,0,32.9661026351,-35.8330194646,43.8606930277\O,
 0,32.5999214405,-29.9309733601,42.743245217\H,0,33.0349059949,-29.3635
 164095,43.4933371963\H,0,33.6440653474,-31.1523321957,41.3390284466\H,
 0,32.2494520193,-33.116608206,42.9367472961\H,0,30.8556531701,-31.4288
 635856,40.7963949754\H,0,30.0311910119,-32.3239159317,42.067494824\H,0
 ,31.7740602172,-33.6096603159,39.8771166234\H,0,30.0333254851,-33.4283
 476836,39.7768826215\H,0,30.3830145355,-35.6751690467,40.4279056654\H,
 0,29.7939382841,-34.8364949602,41.8760153692\H,0,32.7344416067,-34.937
 5816627,41.6412089835\H,0,30.7216808025,-36.8347941219,44.5732855159\H
 ,0,30.0034998538,-36.8151805768,43.003354983\H,0,33.1393298751,-36.477
 8224393,44.6177904325\H,0,33.7352472626,-35.2567359435,43.5194087658\\
 Version=ES64L-G16RevC.01\HF=-1486.5969634\RMSD=7.156e-09\Dipole=-1.898
 1069,-4.386803,-0.4916721\Quadrupole=-856.467837,-766.4141824,1622.882
 0193,-3882.337242,4972.0149456,-5010.3714191\PG=C01 [X(C20H33N6O5)]\\@
 The archive entry for this job was punched.


 THERE'S SMALL CHOICE IN A BOWL OF ROTTEN APPLES.
                     SHAKESPEARE
 Job cpu time:       0 days  0 hours  1 minutes  3.2 seconds.
 Elapsed time:       0 days  0 hours  0 minutes 16.3 seconds.
 File lengths (MBytes):  RWF=    264 Int=      0 D2E=      0 Chk=     40 Scr=     16
 Normal termination of Gaussian 16 at Tue May 31 11:32:00 2022.
