 Entering Gaussian System, Link 0=/opt/software/Gaussian/g16-AVX2-C.01/g16/g16
 Input=charge-conf-841.com
 Output=charge-conf-841.log
 Initial command:
 /opt/software/Gaussian/g16-AVX2-C.01/g16/l1.exe "/mnt/gs18/scratch/users/kengmith/Gau-24217.inp" -scrdir="/mnt/gs18/scratch/users/kengmith/"
 Entering Link 1 = /opt/software/Gaussian/g16-AVX2-C.01/g16/l1.exe PID=     24227.
  
 Copyright (c) 1988-2019, Gaussian, Inc.  All Rights Reserved.
  
 This is part of the Gaussian(R) 16 program.  It is based on
 the Gaussian(R) 09 system (copyright 2009, Gaussian, Inc.),
 the Gaussian(R) 03 system (copyright 2003, Gaussian, Inc.),
 the Gaussian(R) 98 system (copyright 1998, Gaussian, Inc.),
 the Gaussian(R) 94 system (copyright 1995, Gaussian, Inc.),
 the Gaussian 92(TM) system (copyright 1992, Gaussian, Inc.),
 the Gaussian 90(TM) system (copyright 1990, Gaussian, Inc.),
 the Gaussian 88(TM) system (copyright 1988, Gaussian, Inc.),
 the Gaussian 86(TM) system (copyright 1986, Carnegie Mellon
 University), and the Gaussian 82(TM) system (copyright 1983,
 Carnegie Mellon University). Gaussian is a federally registered
 trademark of Gaussian, Inc.
  
 This software contains proprietary and confidential information,
 including trade secrets, belonging to Gaussian, Inc.
  
 This software is provided under written license and may be
 used, copied, transmitted, or stored only in accord with that
 written license.
  
 The following legend is applicable only to US Government
 contracts under FAR:
  
                    RESTRICTED RIGHTS LEGEND
  
 Use, reproduction and disclosure by the US Government is
 subject to restrictions as set forth in subparagraphs (a)
 and (c) of the Commercial Computer Software - Restricted
 Rights clause in FAR 52.227-19.
  
 Gaussian, Inc.
 340 Quinnipiac St., Bldg. 40, Wallingford CT 06492
  
  
 ---------------------------------------------------------------
 Warning -- This program may not be used in any manner that
 competes with the business of Gaussian, Inc. or will provide
 assistance to any competitor of Gaussian, Inc.  The licensee
 of this program is prohibited from giving any competitor of
 Gaussian, Inc. access to this program.  By using this program,
 the user acknowledges that Gaussian, Inc. is engaged in the
 business of creating and licensing software in the field of
 computational chemistry and represents and warrants to the
 licensee that it is not a competitor of Gaussian, Inc. and that
 it will not use this program in any manner prohibited above.
 ---------------------------------------------------------------
  

 Cite this work as:
 Gaussian 16, Revision C.01,
 M. J. Frisch, G. W. Trucks, H. B. Schlegel, G. E. Scuseria, 
 M. A. Robb, J. R. Cheeseman, G. Scalmani, V. Barone, 
 G. A. Petersson, H. Nakatsuji, X. Li, M. Caricato, A. V. Marenich, 
 J. Bloino, B. G. Janesko, R. Gomperts, B. Mennucci, H. P. Hratchian, 
 J. V. Ortiz, A. F. Izmaylov, J. L. Sonnenberg, D. Williams-Young, 
 F. Ding, F. Lipparini, F. Egidi, J. Goings, B. Peng, A. Petrone, 
 T. Henderson, D. Ranasinghe, V. G. Zakrzewski, J. Gao, N. Rega, 
 G. Zheng, W. Liang, M. Hada, M. Ehara, K. Toyota, R. Fukuda, 
 J. Hasegawa, M. Ishida, T. Nakajima, Y. Honda, O. Kitao, H. Nakai, 
 T. Vreven, K. Throssell, J. A. Montgomery, Jr., J. E. Peralta, 
 F. Ogliaro, M. J. Bearpark, J. J. Heyd, E. N. Brothers, K. N. Kudin, 
 V. N. Staroverov, T. A. Keith, R. Kobayashi, J. Normand, 
 K. Raghavachari, A. P. Rendell, J. C. Burant, S. S. Iyengar, 
 J. Tomasi, M. Cossi, J. M. Millam, M. Klene, C. Adamo, R. Cammi, 
 J. W. Ochterski, R. L. Martin, K. Morokuma, O. Farkas, 
 J. B. Foresman, and D. J. Fox, Gaussian, Inc., Wallingford CT, 2019.
 
 ******************************************
 Gaussian 16:  ES64L-G16RevC.01  3-Jul-2019
                 3-Jun-2022 
 ******************************************
 %mem=8gb
 %nproc=4
 Will use up to    4 processors via shared memory.
 %chk=conf-841.chk
 ----------------------------------------------------------------------
 # B3LYP/6-31G* empiricaldispersion=gd3 guess=read geom=check nosymm in
 tegral(ultrafinegrid)
 ----------------------------------------------------------------------
 1/29=2,38=1,172=1/1;
 2/12=2,15=1,40=1/2;
 3/5=1,6=6,7=1,11=2,14=-4,25=1,30=1,74=-5,75=-5,116=-2,124=31/1,2,3;
 4/5=1/1;
 5/5=2,38=6/2;
 6/7=2,8=2,9=2,10=2,28=1/1;
 99/5=1,9=1/99;
 ------------------------------------------------------
 Candidate Structure: Conf:841 Charge calc in gas phase
 ------------------------------------------------------
 Structure from the checkpoint file:  "conf-841.chk"
 Charge =  1 Multiplicity = 1
 Redundant internal coordinates found in file.  (old form).
 N,0,-9.6067202199,-3.4799178852,-7.1282198788
 C,0,-9.4247060096,-3.6268498769,-8.6129566419
 C,0,-8.0484200861,-3.1644256219,-9.1213840658
 O,0,-7.3773243345,-3.9124350352,-9.8218153559
 C,0,-10.5403389839,-2.8618119423,-9.329863686
 C,0,-11.9216095546,-3.4149550866,-8.99516799
 N,0,-12.8870805242,-3.1133035394,-9.8884196464
 O,0,-12.1330504886,-4.0687529543,-7.9686190629
 H,0,-10.5413928555,-3.878361365,-6.9248885585
 H,0,-9.4829684356,-4.693532891,-8.8338751579
 H,0,-10.5132420927,-1.8037851505,-9.0439708709
 H,0,-10.3550304607,-2.8915770934,-10.4070940654
 H,0,-13.8383907097,-3.399062378,-9.6981720902
 H,0,-12.6910640345,-2.5663278688,-10.7157537593
 H,0,-8.834591772,-3.945172954,-6.6239990132
 H,0,-9.5852783713,-2.4522236468,-6.8387390534
 N,0,-7.6830295493,-1.8897058953,-8.8081578194
 C,0,-6.6785407941,-1.1937209638,-9.602384102
 C,0,-5.518281549,-0.657148188,-8.7505823446
 O,0,-5.175095491,0.5248555401,-8.8721354212
 C,0,-7.3342314162,-0.0320378814,-10.3824539465
 C,0,-8.5828730319,-0.4455205444,-11.1347154204
 C,0,-8.554182407,-1.4592349281,-12.1052061935
 C,0,-9.8026630333,0.1913063923,-10.8720082161
 C,0,-9.7106936186,-1.8191877675,-12.7984201462
 C,0,-10.9632088194,-0.1594150425,-11.5684538181
 C,0,-10.9209276492,-1.1664358272,-12.5356260612
 H,0,-8.3451033085,-1.2992305002,-8.2991641735
 H,0,-6.2648327306,-1.9404985421,-10.2888522598
 H,0,-7.5725582497,0.7594861669,-9.6651434738
 H,0,-6.5876758813,0.3872440925,-11.0651497391
 H,0,-7.622301044,-1.9753578018,-12.321112858
 H,0,-9.8435714177,0.9731082125,-10.1175688889
 H,0,-9.6656118231,-2.6004715569,-13.5520004203
 H,0,-11.8930202184,0.3643612756,-11.3624094036
 H,0,-11.8136598408,-1.4258607542,-13.0997308378
 N,0,-4.8311748416,-1.4855995914,-7.9142289546
 C,0,-5.1357410601,-2.8426867146,-7.4688196742
 C,0,-6.2544844115,-2.9002919591,-6.4018329676
 O,0,-6.9962303459,-3.8873886698,-6.3573967521
 C,0,-3.8573620533,-3.5298767602,-6.9464381454
 C,0,-3.2438934607,-2.8300531839,-5.7320238265
 N,0,-2.7151504477,-3.6412767195,-4.7915316686
 O,0,-3.2121790013,-1.5969705133,-5.6266157754
 H,0,-4.08504899,-1.0356409592,-7.3893375836
 H,0,-5.5135326799,-3.4333034804,-8.3069964444
 H,0,-3.1048416514,-3.533680751,-7.7447166435
 H,0,-4.1026975146,-4.5721753132,-6.720940564
 H,0,-2.2463718793,-3.2276401385,-3.9965705656
 H,0,-2.7385130577,-4.6481066755,-4.8619607065
 N,0,-6.3397088323,-1.8370337754,-5.566567471
 C,0,-7.6359995254,-1.391072454,-5.0302266922
 C,0,-8.2241309178,-0.4609887453,-6.1344550953
 O,0,-7.5410355947,0.5361847352,-6.4692438661
 C,0,-7.5551379646,-0.7782260499,-3.6244417912
 C,0,-6.9928729735,0.6417929652,-3.4446645967
 C,0,-5.4910317038,0.8304879677,-3.693831214
 N,0,-5.1783467298,1.0130451559,-5.1181139038
 C,0,-3.9599494208,1.3502555411,-5.5401604329
 N,0,-2.9510639201,1.4975819852,-4.6450118202
 N,0,-3.7232693236,1.6117890447,-6.8278013221
 O,0,-9.287520376,-0.8508479019,-6.7124003071
 H,0,-5.6813274357,-1.0909266224,-5.7539133411
 H,0,-8.247006347,-2.2900385914,-4.9476543158
 H,0,-8.5817326337,-0.7643375368,-3.2385230691
 H,0,-6.9945914454,-1.4770125455,-2.9893773931
 H,0,-7.5530008881,1.358235989,-4.0538035269
 H,0,-7.1672741087,0.9194982204,-2.3990722888
 H,0,-5.1540211701,1.7206802668,-3.1477042399
 H,0,-4.9373259361,-0.0387993713,-3.3087607144
 H,0,-5.9918095386,1.0018706431,-5.7684007686
 H,0,-2.0038763721,1.4800553637,-4.996740621
 H,0,-3.0556622032,1.0804709157,-3.7321858977
 H,0,-2.7846111578,1.8402704634,-7.1222521669
 H,0,-4.3769750095,1.3313376687,-7.5802814418
 Recover connectivity data from disk.
                           ----------------------------
                           !    Current Parameters    !
                           ! (Angstroms and Degrees)  !
 --------------------------                            --------------------------
 ! Name  Definition              Value                                          !
 --------------------------------------------------------------------------------
 ! R1    R(1,2)                  1.5031                                         !
 ! R2    R(1,9)                  1.0362                                         !
 ! R3    R(1,15)                 1.0329                                         !
 ! R4    R(1,16)                 1.0679                                         !
 ! R5    R(2,3)                  1.5383                                         !
 ! R6    R(2,5)                  1.531                                          !
 ! R7    R(2,10)                 1.0909                                         !
 ! R8    R(3,4)                  1.2249                                         !
 ! R9    R(3,17)                 1.3625                                         !
 ! R10   R(5,6)                  1.5251                                         !
 ! R11   R(5,11)                 1.0963                                         !
 ! R12   R(5,12)                 1.0935                                         !
 ! R13   R(6,7)                  1.3495                                         !
 ! R14   R(6,8)                  1.2353                                         !
 ! R15   R(7,13)                 1.0114                                         !
 ! R16   R(7,14)                 1.011                                          !
 ! R17   R(17,18)                1.4575                                         !
 ! R18   R(17,28)                1.0228                                         !
 ! R19   R(18,19)                1.5361                                         !
 ! R20   R(18,21)                1.5453                                         !
 ! R21   R(18,29)                1.0955                                         !
 ! R22   R(19,20)                1.2368                                         !
 ! R23   R(19,37)                1.3631                                         !
 ! R24   R(21,22)                1.5152                                         !
 ! R25   R(21,30)                1.0945                                         !
 ! R26   R(21,31)                1.0951                                         !
 ! R27   R(22,23)                1.4037                                         !
 ! R28   R(22,24)                1.4009                                         !
 ! R29   R(23,25)                1.3956                                         !
 ! R30   R(23,32)                1.0869                                         !
 ! R31   R(24,26)                1.3982                                         !
 ! R32   R(24,33)                1.0872                                         !
 ! R33   R(25,27)                1.3999                                         !
 ! R34   R(25,34)                1.0864                                         !
 ! R35   R(26,27)                1.3969                                         !
 ! R36   R(26,35)                1.0869                                         !
 ! R37   R(27,36)                1.0874                                         !
 ! R38   R(37,38)                1.4604                                         !
 ! R39   R(37,45)                1.0172                                         !
 ! R40   R(38,39)                1.5471                                         !
 ! R41   R(38,41)                1.5425                                         !
 ! R42   R(38,46)                1.0927                                         !
 ! R43   R(39,40)                1.2355                                         !
 ! R44   R(39,51)                1.3548                                         !
 ! R45   R(41,42)                1.53                                           !
 ! R46   R(41,47)                1.0971                                         !
 ! R47   R(41,48)                1.0943                                         !
 ! R48   R(42,43)                1.3499                                         !
 ! R49   R(42,44)                1.238                                          !
 ! R50   R(43,49)                1.0113                                         !
 ! R51   R(43,50)                1.0096                                         !
 ! R52   R(51,52)                1.472                                          !
 ! R53   R(51,63)                1.0125                                         !
 ! R54   R(52,53)                1.5589                                         !
 ! R55   R(52,55)                1.5357                                         !
 ! R56   R(52,64)                1.0901                                         !
 ! R57   R(53,54)                1.2542                                         !
 ! R58   R(53,62)                1.2715                                         !
 ! R59   R(55,56)                1.5378                                         !
 ! R60   R(55,65)                1.0968                                         !
 ! R61   R(55,66)                1.0981                                         !
 ! R62   R(56,57)                1.534                                          !
 ! R63   R(56,67)                1.0946                                         !
 ! R64   R(56,68)                1.0958                                         !
 ! R65   R(57,58)                1.4696                                         !
 ! R66   R(57,69)                1.0974                                         !
 ! R67   R(57,70)                1.1002                                         !
 ! R68   R(58,59)                1.3328                                         !
 ! R69   R(58,71)                1.0415                                         !
 ! R70   R(59,60)                1.3568                                         !
 ! R71   R(59,61)                1.3351                                         !
 ! R72   R(60,72)                1.0105                                         !
 ! R73   R(60,73)                1.009                                          !
 ! R74   R(61,74)                1.0099                                         !
 ! R75   R(61,75)                1.0355                                         !
 ! A1    A(2,1,9)              105.3954                                         !
 ! A2    A(2,1,15)             110.344                                          !
 ! A3    A(2,1,16)             111.0643                                         !
 ! A4    A(9,1,15)             113.9097                                         !
 ! A5    A(9,1,16)             109.5704                                         !
 ! A6    A(15,1,16)            106.627                                          !
 ! A7    A(1,2,3)              113.9181                                         !
 ! A8    A(1,2,5)              108.9941                                         !
 ! A9    A(1,2,10)             106.8081                                         !
 ! A10   A(3,2,5)              110.3019                                         !
 ! A11   A(3,2,10)             105.9491                                         !
 ! A12   A(5,2,10)             110.7857                                         !
 ! A13   A(2,3,4)              119.7072                                         !
 ! A14   A(2,3,17)             116.4338                                         !
 ! A15   A(4,3,17)             123.767                                          !
 ! A16   A(2,5,6)              112.085                                          !
 ! A17   A(2,5,11)             110.0069                                         !
 ! A18   A(2,5,12)             108.9185                                         !
 ! A19   A(6,5,11)             108.3721                                         !
 ! A20   A(6,5,12)             111.0891                                         !
 ! A21   A(11,5,12)            106.1999                                         !
 ! A22   A(5,6,7)              114.9382                                         !
 ! A23   A(5,6,8)              121.9622                                         !
 ! A24   A(7,6,8)              123.0879                                         !
 ! A25   A(6,7,13)             119.0319                                         !
 ! A26   A(6,7,14)             121.5953                                         !
 ! A27   A(13,7,14)            119.287                                          !
 ! A28   A(3,17,18)            120.4179                                         !
 ! A29   A(3,17,28)            118.7456                                         !
 ! A30   A(18,17,28)           116.2088                                         !
 ! A31   A(17,18,19)           112.6559                                         !
 ! A32   A(17,18,21)           109.9765                                         !
 ! A33   A(17,18,29)           106.0352                                         !
 ! A34   A(19,18,21)           109.7441                                         !
 ! A35   A(19,18,29)           107.4787                                         !
 ! A36   A(21,18,29)           110.8779                                         !
 ! A37   A(18,19,20)           119.2691                                         !
 ! A38   A(18,19,37)           120.5764                                         !
 ! A39   A(20,19,37)           120.0852                                         !
 ! A40   A(18,21,22)           113.2742                                         !
 ! A41   A(18,21,30)           107.7717                                         !
 ! A42   A(18,21,31)           108.2559                                         !
 ! A43   A(22,21,30)           110.0773                                         !
 ! A44   A(22,21,31)           110.9013                                         !
 ! A45   A(30,21,31)           106.2686                                         !
 ! A46   A(21,22,23)           121.5659                                         !
 ! A47   A(21,22,24)           120.0251                                         !
 ! A48   A(23,22,24)           118.4086                                         !
 ! A49   A(22,23,25)           120.8481                                         !
 ! A50   A(22,23,32)           119.854                                          !
 ! A51   A(25,23,32)           119.2977                                         !
 ! A52   A(22,24,26)           121.0177                                         !
 ! A53   A(22,24,33)           119.3261                                         !
 ! A54   A(26,24,33)           119.6556                                         !
 ! A55   A(23,25,27)           120.1919                                         !
 ! A56   A(23,25,34)           119.7118                                         !
 ! A57   A(27,25,34)           120.0922                                         !
 ! A58   A(24,26,27)           120.0388                                         !
 ! A59   A(24,26,35)           119.6546                                         !
 ! A60   A(27,26,35)           120.3016                                         !
 ! A61   A(25,27,26)           119.4903                                         !
 ! A62   A(25,27,36)           120.0727                                         !
 ! A63   A(26,27,36)           120.4183                                         !
 ! A64   A(19,37,38)           130.3001                                         !
 ! A65   A(19,37,45)           114.6784                                         !
 ! A66   A(38,37,45)           113.9944                                         !
 ! A67   A(37,38,39)           113.3132                                         !
 ! A68   A(37,38,41)           110.1468                                         !
 ! A69   A(37,38,46)           109.9018                                         !
 ! A70   A(39,38,41)           110.4359                                         !
 ! A71   A(39,38,46)           105.0037                                         !
 ! A72   A(41,38,46)           107.7882                                         !
 ! A73   A(38,39,40)           119.2547                                         !
 ! A74   A(38,39,51)           116.1984                                         !
 ! A75   A(40,39,51)           124.5463                                         !
 ! A76   A(38,41,42)           113.4114                                         !
 ! A77   A(38,41,47)           108.8809                                         !
 ! A78   A(38,41,48)           107.958                                          !
 ! A79   A(42,41,47)           107.7048                                         !
 ! A80   A(42,41,48)           111.2235                                         !
 ! A81   A(47,41,48)           107.4836                                         !
 ! A82   A(41,42,43)           115.7972                                         !
 ! A83   A(41,42,44)           122.2384                                         !
 ! A84   A(43,42,44)           121.9529                                         !
 ! A85   A(42,43,49)           118.9093                                         !
 ! A86   A(42,43,50)           122.797                                          !
 ! A87   A(49,43,50)           118.2588                                         !
 ! A88   A(39,51,52)           121.1842                                         !
 ! A89   A(39,51,63)           115.0448                                         !
 ! A90   A(52,51,63)           114.6309                                         !
 ! A91   A(51,52,53)           104.7671                                         !
 ! A92   A(51,52,55)           114.0831                                         !
 ! A93   A(51,52,64)           105.7447                                         !
 ! A94   A(53,52,55)           115.4789                                         !
 ! A95   A(53,52,64)           109.5243                                         !
 ! A96   A(55,52,64)           106.8145                                         !
 ! A97   A(52,53,54)           117.2545                                         !
 ! A98   A(52,53,62)           117.0349                                         !
 ! A99   A(54,53,62)           125.3047                                         !
 ! A100  A(52,55,56)           119.6541                                         !
 ! A101  A(52,55,65)           106.1324                                         !
 ! A102  A(52,55,66)           107.598                                          !
 ! A103  A(56,55,65)           106.8213                                         !
 ! A104  A(56,55,66)           109.473                                          !
 ! A105  A(65,55,66)           106.4009                                         !
 ! A106  A(55,56,57)           116.9073                                         !
 ! A107  A(55,56,67)           110.6244                                         !
 ! A108  A(55,56,68)           106.7004                                         !
 ! A109  A(57,56,67)           109.2744                                         !
 ! A110  A(57,56,68)           106.2378                                         !
 ! A111  A(67,56,68)           106.4803                                         !
 ! A112  A(56,57,58)           112.3961                                         !
 ! A113  A(56,57,69)           108.6392                                         !
 ! A114  A(56,57,70)           109.7958                                         !
 ! A115  A(58,57,69)           108.4336                                         !
 ! A116  A(58,57,70)           109.285                                          !
 ! A117  A(69,57,70)           108.1909                                         !
 ! A118  A(57,58,59)           122.1976                                         !
 ! A119  A(57,58,71)           115.9516                                         !
 ! A120  A(59,58,71)           121.2659                                         !
 ! A121  A(58,59,60)           119.8888                                         !
 ! A122  A(58,59,61)           121.1338                                         !
 ! A123  A(60,59,61)           118.8962                                         !
 ! A124  A(59,60,72)           117.7396                                         !
 ! A125  A(59,60,73)           118.3516                                         !
 ! A126  A(72,60,73)           113.8826                                         !
 ! A127  A(59,61,74)           119.3587                                         !
 ! A128  A(59,61,75)           122.4053                                         !
 ! A129  A(74,61,75)           115.8586                                         !
 ! D1    D(9,1,2,3)           -176.6335                                         !
 ! D2    D(9,1,2,5)             59.719                                          !
 ! D3    D(9,1,2,10)           -60.019                                          !
 ! D4    D(15,1,2,3)           -53.2358                                         !
 ! D5    D(15,1,2,5)          -176.8833                                         !
 ! D6    D(15,1,2,10)           63.3787                                         !
 ! D7    D(16,1,2,3)            64.7878                                         !
 ! D8    D(16,1,2,5)           -58.8597                                         !
 ! D9    D(16,1,2,10)         -178.5976                                         !
 ! D10   D(1,2,3,4)            128.104                                          !
 ! D11   D(1,2,3,17)           -55.2523                                         !
 ! D12   D(5,2,3,4)           -108.9596                                         !
 ! D13   D(5,2,3,17)            67.6841                                         !
 ! D14   D(10,2,3,4)            10.991                                          !
 ! D15   D(10,2,3,17)         -172.3653                                         !
 ! D16   D(1,2,5,6)            -61.8489                                         !
 ! D17   D(1,2,5,11)            58.7968                                         !
 ! D18   D(1,2,5,12)           174.8149                                         !
 ! D19   D(3,2,5,6)            172.3822                                         !
 ! D20   D(3,2,5,11)           -66.9722                                         !
 ! D21   D(3,2,5,12)            49.0459                                         !
 ! D22   D(10,2,5,6)            55.3941                                         !
 ! D23   D(10,2,5,11)          176.0397                                         !
 ! D24   D(10,2,5,12)          -67.9422                                         !
 ! D25   D(2,3,17,18)         -157.7824                                         !
 ! D26   D(2,3,17,28)           -2.8016                                         !
 ! D27   D(4,3,17,18)           18.7107                                         !
 ! D28   D(4,3,17,28)          173.6915                                         !
 ! D29   D(2,5,6,7)           -159.0135                                         !
 ! D30   D(2,5,6,8)             22.1916                                         !
 ! D31   D(11,5,6,7)            79.3982                                         !
 ! D32   D(11,5,6,8)           -99.3966                                         !
 ! D33   D(12,5,6,7)           -36.9072                                         !
 ! D34   D(12,5,6,8)           144.2979                                         !
 ! D35   D(5,6,7,13)          -176.1798                                         !
 ! D36   D(5,6,7,14)             0.4276                                         !
 ! D37   D(8,6,7,13)             2.5999                                         !
 ! D38   D(8,6,7,14)           179.2073                                         !
 ! D39   D(3,17,18,19)        -125.4696                                         !
 ! D40   D(3,17,18,21)         111.7628                                         !
 ! D41   D(3,17,18,29)          -8.1723                                         !
 ! D42   D(28,17,18,19)         78.9423                                         !
 ! D43   D(28,17,18,21)        -43.8253                                         !
 ! D44   D(28,17,18,29)       -163.7604                                         !
 ! D45   D(17,18,19,20)       -129.5727                                         !
 ! D46   D(17,18,19,37)         53.4524                                         !
 ! D47   D(21,18,19,20)         -6.6751                                         !
 ! D48   D(21,18,19,37)        176.35                                           !
 ! D49   D(29,18,19,20)        113.9878                                         !
 ! D50   D(29,18,19,37)        -62.987                                          !
 ! D51   D(17,18,21,22)        -49.3255                                         !
 ! D52   D(17,18,21,30)         72.6996                                         !
 ! D53   D(17,18,21,31)       -172.7496                                         !
 ! D54   D(19,18,21,22)       -173.7921                                         !
 ! D55   D(19,18,21,30)        -51.767                                          !
 ! D56   D(19,18,21,31)         62.7838                                         !
 ! D57   D(29,18,21,22)         67.6246                                         !
 ! D58   D(29,18,21,30)       -170.3503                                         !
 ! D59   D(29,18,21,31)        -55.7995                                         !
 ! D60   D(18,19,37,38)        -12.1129                                         !
 ! D61   D(18,19,37,45)       -179.6569                                         !
 ! D62   D(20,19,37,38)        170.9369                                         !
 ! D63   D(20,19,37,45)          3.393                                          !
 ! D64   D(18,21,22,23)        -58.4619                                         !
 ! D65   D(18,21,22,24)        121.7753                                         !
 ! D66   D(30,21,22,23)       -179.1906                                         !
 ! D67   D(30,21,22,24)          1.0466                                         !
 ! D68   D(31,21,22,23)         63.4961                                         !
 ! D69   D(31,21,22,24)       -116.2667                                         !
 ! D70   D(21,22,23,25)       -179.3702                                         !
 ! D71   D(21,22,23,32)          0.8063                                         !
 ! D72   D(24,22,23,25)          0.3964                                         !
 ! D73   D(24,22,23,32)       -179.4272                                         !
 ! D74   D(21,22,24,26)        179.0041                                         !
 ! D75   D(21,22,24,33)         -0.7149                                         !
 ! D76   D(23,22,24,26)         -0.7662                                         !
 ! D77   D(23,22,24,33)        179.5148                                         !
 ! D78   D(22,23,25,27)          0.2007                                         !
 ! D79   D(22,23,25,34)        179.4674                                         !
 ! D80   D(32,23,25,27)       -179.9748                                         !
 ! D81   D(32,23,25,34)         -0.7081                                         !
 ! D82   D(22,24,26,27)          0.5386                                         !
 ! D83   D(22,24,26,35)       -178.6446                                         !
 ! D84   D(33,24,26,27)       -179.7433                                         !
 ! D85   D(33,24,26,35)          1.0735                                         !
 ! D86   D(23,25,27,26)         -0.4379                                         !
 ! D87   D(23,25,27,36)        177.9954                                         !
 ! D88   D(34,25,27,26)       -179.7018                                         !
 ! D89   D(34,25,27,36)         -1.2685                                         !
 ! D90   D(24,26,27,25)          0.0729                                         !
 ! D91   D(24,26,27,36)       -178.3549                                         !
 ! D92   D(35,26,27,25)        179.2507                                         !
 ! D93   D(35,26,27,36)          0.823                                          !
 ! D94   D(19,37,38,39)        -75.5573                                         !
 ! D95   D(19,37,38,41)        160.1736                                         !
 ! D96   D(19,37,38,46)         41.5602                                         !
 ! D97   D(45,37,38,39)         92.0548                                         !
 ! D98   D(45,37,38,41)        -32.2143                                         !
 ! D99   D(45,37,38,46)       -150.8278                                         !
 ! D100  D(37,38,39,40)        148.776                                          !
 ! D101  D(37,38,39,51)        -31.4648                                         !
 ! D102  D(41,38,39,40)        -87.1122                                         !
 ! D103  D(41,38,39,51)         92.647                                          !
 ! D104  D(46,38,39,40)         28.8253                                         !
 ! D105  D(46,38,39,51)       -151.4155                                         !
 ! D106  D(37,38,41,42)         62.0779                                         !
 ! D107  D(37,38,41,47)        -57.811                                          !
 ! D108  D(37,38,41,48)       -174.2104                                         !
 ! D109  D(39,38,41,42)        -63.8357                                         !
 ! D110  D(39,38,41,47)        176.2755                                         !
 ! D111  D(39,38,41,48)         59.8761                                         !
 ! D112  D(46,38,41,42)       -178.0209                                         !
 ! D113  D(46,38,41,47)         62.0903                                         !
 ! D114  D(46,38,41,48)        -54.3091                                         !
 ! D115  D(38,39,51,52)        147.6135                                         !
 ! D116  D(38,39,51,63)          2.4758                                         !
 ! D117  D(40,39,51,52)        -32.6416                                         !
 ! D118  D(40,39,51,63)       -177.7793                                         !
 ! D119  D(38,41,42,43)        142.4886                                         !
 ! D120  D(38,41,42,44)        -38.7178                                         !
 ! D121  D(47,41,42,43)        -96.9551                                         !
 ! D122  D(47,41,42,44)         81.8386                                         !
 ! D123  D(48,41,42,43)         20.5798                                         !
 ! D124  D(48,41,42,44)       -160.6265                                         !
 ! D125  D(41,42,43,49)        176.2547                                         !
 ! D126  D(41,42,43,50)         -1.557                                          !
 ! D127  D(44,42,43,49)         -2.5427                                         !
 ! D128  D(44,42,43,50)        179.6455                                         !
 ! D129  D(39,51,52,53)        -84.6789                                         !
 ! D130  D(39,51,52,55)        148.0844                                         !
 ! D131  D(39,51,52,64)         31.0053                                         !
 ! D132  D(63,51,52,53)         60.5919                                         !
 ! D133  D(63,51,52,55)        -66.6448                                         !
 ! D134  D(63,51,52,64)        176.2761                                         !
 ! D135  D(51,52,53,54)        -58.2198                                         !
 ! D136  D(51,52,53,62)        114.8605                                         !
 ! D137  D(55,52,53,54)         68.1557                                         !
 ! D138  D(55,52,53,62)       -118.7641                                         !
 ! D139  D(64,52,53,54)       -171.2496                                         !
 ! D140  D(64,52,53,62)          1.8306                                         !
 ! D141  D(51,52,55,56)         75.2853                                         !
 ! D142  D(51,52,55,65)       -163.9624                                         !
 ! D143  D(51,52,55,66)        -50.3777                                         !
 ! D144  D(53,52,55,56)        -46.1988                                         !
 ! D145  D(53,52,55,65)         74.5535                                         !
 ! D146  D(53,52,55,66)       -171.8618                                         !
 ! D147  D(64,52,55,56)       -168.2549                                         !
 ! D148  D(64,52,55,65)        -47.5026                                         !
 ! D149  D(64,52,55,66)         66.0821                                         !
 ! D150  D(52,55,56,57)        -69.4557                                         !
 ! D151  D(52,55,56,67)         56.4544                                         !
 ! D152  D(52,55,56,68)        171.8825                                         !
 ! D153  D(65,55,56,57)        170.1368                                         !
 ! D154  D(65,55,56,67)        -63.9531                                         !
 ! D155  D(65,55,56,68)         51.475                                          !
 ! D156  D(66,55,56,57)         55.3166                                         !
 ! D157  D(66,55,56,67)       -178.7732                                         !
 ! D158  D(66,55,56,68)        -63.3452                                         !
 ! D159  D(55,56,57,58)         83.5077                                         !
 ! D160  D(55,56,57,69)       -156.4968                                         !
 ! D161  D(55,56,57,70)        -38.3609                                         !
 ! D162  D(67,56,57,58)        -43.0709                                         !
 ! D163  D(67,56,57,69)         76.9246                                         !
 ! D164  D(67,56,57,70)       -164.9396                                         !
 ! D165  D(68,56,57,58)       -157.5816                                         !
 ! D166  D(68,56,57,69)        -37.5861                                         !
 ! D167  D(68,56,57,70)         80.5497                                         !
 ! D168  D(56,57,58,59)        171.8761                                         !
 ! D169  D(56,57,58,71)          0.5479                                         !
 ! D170  D(69,57,58,59)         51.7615                                         !
 ! D171  D(69,57,58,71)       -119.5667                                         !
 ! D172  D(70,57,58,59)        -65.9653                                         !
 ! D173  D(70,57,58,71)        122.7065                                         !
 ! D174  D(57,58,59,60)          1.9364                                         !
 ! D175  D(57,58,59,61)       -174.7515                                         !
 ! D176  D(71,58,59,60)        172.8104                                         !
 ! D177  D(71,58,59,61)         -3.8775                                         !
 ! D178  D(58,59,60,72)        162.2319                                         !
 ! D179  D(58,59,60,73)         18.7605                                         !
 ! D180  D(61,59,60,72)        -21.0062                                         !
 ! D181  D(61,59,60,73)       -164.4776                                         !
 ! D182  D(58,59,61,74)       -178.3477                                         !
 ! D183  D(58,59,61,75)        -16.5824                                         !
 ! D184  D(60,59,61,74)          4.9322                                         !
 ! D185  D(60,59,61,75)        166.6975                                         !
 --------------------------------------------------------------------------------
 Symmetry turned off by external request.
 Stoichiometry    C23H36N9O7(1+)
 Framework group  C1[X(C23H36N9O7)]
 Deg. of freedom   219
 Full point group                 C1      NOp   1
                          Input orientation:                          
 ---------------------------------------------------------------------
 Center     Atomic      Atomic             Coordinates (Angstroms)
 Number     Number       Type             X           Y           Z
 ---------------------------------------------------------------------
      1          7           0       -9.606720   -3.479918   -7.128220
      2          6           0       -9.424706   -3.626850   -8.612957
      3          6           0       -8.048420   -3.164426   -9.121384
      4          8           0       -7.377324   -3.912435   -9.821815
      5          6           0      -10.540339   -2.861812   -9.329864
      6          6           0      -11.921610   -3.414955   -8.995168
      7          7           0      -12.887081   -3.113304   -9.888420
      8          8           0      -12.133050   -4.068753   -7.968619
      9          1           0      -10.541393   -3.878361   -6.924889
     10          1           0       -9.482968   -4.693533   -8.833875
     11          1           0      -10.513242   -1.803785   -9.043971
     12          1           0      -10.355030   -2.891577  -10.407094
     13          1           0      -13.838391   -3.399062   -9.698172
     14          1           0      -12.691064   -2.566328  -10.715754
     15          1           0       -8.834592   -3.945173   -6.623999
     16          1           0       -9.585278   -2.452224   -6.838739
     17          7           0       -7.683030   -1.889706   -8.808158
     18          6           0       -6.678541   -1.193721   -9.602384
     19          6           0       -5.518282   -0.657148   -8.750582
     20          8           0       -5.175095    0.524856   -8.872135
     21          6           0       -7.334231   -0.032038  -10.382454
     22          6           0       -8.582873   -0.445521  -11.134715
     23          6           0       -8.554182   -1.459235  -12.105206
     24          6           0       -9.802663    0.191306  -10.872008
     25          6           0       -9.710694   -1.819188  -12.798420
     26          6           0      -10.963209   -0.159415  -11.568454
     27          6           0      -10.920928   -1.166436  -12.535626
     28          1           0       -8.345103   -1.299231   -8.299164
     29          1           0       -6.264833   -1.940499  -10.288852
     30          1           0       -7.572558    0.759486   -9.665143
     31          1           0       -6.587676    0.387244  -11.065150
     32          1           0       -7.622301   -1.975358  -12.321113
     33          1           0       -9.843571    0.973108  -10.117569
     34          1           0       -9.665612   -2.600472  -13.552000
     35          1           0      -11.893020    0.364361  -11.362409
     36          1           0      -11.813660   -1.425861  -13.099731
     37          7           0       -4.831175   -1.485600   -7.914229
     38          6           0       -5.135741   -2.842687   -7.468820
     39          6           0       -6.254484   -2.900292   -6.401833
     40          8           0       -6.996230   -3.887389   -6.357397
     41          6           0       -3.857362   -3.529877   -6.946438
     42          6           0       -3.243893   -2.830053   -5.732024
     43          7           0       -2.715150   -3.641277   -4.791532
     44          8           0       -3.212179   -1.596971   -5.626616
     45          1           0       -4.085049   -1.035641   -7.389338
     46          1           0       -5.513533   -3.433303   -8.306996
     47          1           0       -3.104842   -3.533681   -7.744717
     48          1           0       -4.102698   -4.572175   -6.720941
     49          1           0       -2.246372   -3.227640   -3.996571
     50          1           0       -2.738513   -4.648107   -4.861961
     51          7           0       -6.339709   -1.837034   -5.566567
     52          6           0       -7.636000   -1.391072   -5.030227
     53          6           0       -8.224131   -0.460989   -6.134455
     54          8           0       -7.541036    0.536185   -6.469244
     55          6           0       -7.555138   -0.778226   -3.624442
     56          6           0       -6.992873    0.641793   -3.444665
     57          6           0       -5.491032    0.830488   -3.693831
     58          7           0       -5.178347    1.013045   -5.118114
     59          6           0       -3.959949    1.350256   -5.540160
     60          7           0       -2.951064    1.497582   -4.645012
     61          7           0       -3.723269    1.611789   -6.827801
     62          8           0       -9.287520   -0.850848   -6.712400
     63          1           0       -5.681327   -1.090927   -5.753913
     64          1           0       -8.247006   -2.290039   -4.947654
     65          1           0       -8.581733   -0.764338   -3.238523
     66          1           0       -6.994591   -1.477013   -2.989377
     67          1           0       -7.553001    1.358236   -4.053804
     68          1           0       -7.167274    0.919498   -2.399072
     69          1           0       -5.154021    1.720680   -3.147704
     70          1           0       -4.937326   -0.038799   -3.308761
     71          1           0       -5.991810    1.001871   -5.768401
     72          1           0       -2.003876    1.480055   -4.996741
     73          1           0       -3.055662    1.080471   -3.732186
     74          1           0       -2.784611    1.840270   -7.122252
     75          1           0       -4.376975    1.331338   -7.580281
 ---------------------------------------------------------------------
 Rotational constants (GHZ):           0.1609975           0.0673874           0.0641655
 Standard basis: 6-31G(d) (6D, 7F)
   657 basis functions,  1236 primitive gaussians,   657 cartesian basis functions
   146 alpha electrons      146 beta electrons
       nuclear repulsion energy      5167.0855208367 Hartrees.
 NAtoms=   75 NActive=   75 NUniq=   75 SFac= 1.00D+00 NAtFMM=   60 NAOKFM=T Big=T
 Integral buffers will be    131072 words long.
 Raffenetti 2 integral format.
 Two-electron integral symmetry is turned off.
 Nuclear repulsion after empirical dispersion term =     5166.9598433881 Hartrees.
 One-electron integrals computed using PRISM.
 NBasis=   657 RedAO= T EigKep=  4.65D-04  NBF=   657
 NBsUse=   657 1.00D-06 EigRej= -1.00D+00 NBFU=   657
 Initial guess from the checkpoint file:  "conf-841.chk"
 B after Tr=     0.000000    0.000000    0.000000
         Rot=    1.000000    0.000000    0.000000    0.000000 Ang=   0.00 deg.
 Requested convergence on RMS density matrix=1.00D-08 within 128 cycles.
 Requested convergence on MAX density matrix=1.00D-06.
 Requested convergence on             energy=1.00D-06.
 No special actions if energy rises.
 SCF Done:  E(RB3LYP) =  -1917.53627234     A.U. after    1 cycles
            NFock=  1  Conv=0.18D-08     -V/T= 2.0093

 **********************************************************************

            Population analysis using the SCF Density.

 **********************************************************************

 Alpha  occ. eigenvalues --  -19.23904 -19.22911 -19.22813 -19.21772 -19.21665
 Alpha  occ. eigenvalues --  -19.20148 -19.19804 -14.50741 -14.49335 -14.47942
 Alpha  occ. eigenvalues --  -14.47892 -14.47453 -14.46555 -14.46104 -14.45323
 Alpha  occ. eigenvalues --  -14.45290 -10.44958 -10.41572 -10.39945 -10.39738
 Alpha  occ. eigenvalues --  -10.39218 -10.39036 -10.37741 -10.35081 -10.34817
 Alpha  occ. eigenvalues --  -10.34033 -10.33083 -10.32386 -10.31845 -10.29880
 Alpha  occ. eigenvalues --  -10.29078 -10.28822 -10.28043 -10.27374 -10.27354
 Alpha  occ. eigenvalues --  -10.27305 -10.27262 -10.27048 -10.26946  -1.15567
 Alpha  occ. eigenvalues --   -1.14862  -1.14363  -1.13743  -1.13527  -1.13216
 Alpha  occ. eigenvalues --   -1.13043  -1.06929  -1.04463  -1.04042  -1.02768
 Alpha  occ. eigenvalues --   -1.02589  -1.02427  -1.01735  -1.01591  -1.00250
 Alpha  occ. eigenvalues --   -0.93748  -0.90262  -0.89450  -0.88960  -0.86874
 Alpha  occ. eigenvalues --   -0.84637  -0.82697  -0.82495  -0.79716  -0.78012
 Alpha  occ. eigenvalues --   -0.77500  -0.75342  -0.75091  -0.71734  -0.71054
 Alpha  occ. eigenvalues --   -0.69994  -0.69801  -0.69263  -0.68908  -0.68469
 Alpha  occ. eigenvalues --   -0.67766  -0.67454  -0.67133  -0.65955  -0.65850
 Alpha  occ. eigenvalues --   -0.65318  -0.64282  -0.62966  -0.62810  -0.62201
 Alpha  occ. eigenvalues --   -0.61218  -0.61110  -0.59928  -0.59794  -0.58725
 Alpha  occ. eigenvalues --   -0.58626  -0.58052  -0.57483  -0.57030  -0.56786
 Alpha  occ. eigenvalues --   -0.56229  -0.55425  -0.55148  -0.54605  -0.54323
 Alpha  occ. eigenvalues --   -0.53821  -0.53496  -0.53006  -0.52982  -0.52355
 Alpha  occ. eigenvalues --   -0.51539  -0.51444  -0.51134  -0.50965  -0.50221
 Alpha  occ. eigenvalues --   -0.50060  -0.50036  -0.49731  -0.49609  -0.49452
 Alpha  occ. eigenvalues --   -0.48716  -0.48287  -0.48016  -0.47288  -0.46742
 Alpha  occ. eigenvalues --   -0.46674  -0.45644  -0.45120  -0.44882  -0.44385
 Alpha  occ. eigenvalues --   -0.43717  -0.43434  -0.42050  -0.41780  -0.40529
 Alpha  occ. eigenvalues --   -0.39280  -0.39006  -0.38393  -0.37931  -0.37756
 Alpha  occ. eigenvalues --   -0.37267  -0.36569  -0.36302  -0.35572  -0.35200
 Alpha  occ. eigenvalues --   -0.34896  -0.34540  -0.34128  -0.33261  -0.32962
 Alpha  occ. eigenvalues --   -0.32748
 Alpha virt. eigenvalues --   -0.10503  -0.09834  -0.09490  -0.09245  -0.08973
 Alpha virt. eigenvalues --   -0.08712  -0.08336  -0.06582  -0.05354  -0.05143
 Alpha virt. eigenvalues --   -0.03350  -0.02324  -0.01050  -0.00603   0.00160
 Alpha virt. eigenvalues --    0.00598   0.01008   0.01679   0.02330   0.02798
 Alpha virt. eigenvalues --    0.02983   0.03176   0.03678   0.04065   0.04436
 Alpha virt. eigenvalues --    0.04848   0.05292   0.05382   0.05761   0.06005
 Alpha virt. eigenvalues --    0.06243   0.06669   0.06770   0.07528   0.07979
 Alpha virt. eigenvalues --    0.08324   0.08396   0.08502   0.08765   0.08973
 Alpha virt. eigenvalues --    0.09538   0.09736   0.10036   0.10544   0.10875
 Alpha virt. eigenvalues --    0.11180   0.11484   0.11669   0.11817   0.12813
 Alpha virt. eigenvalues --    0.13121   0.13721   0.13999   0.14061   0.14911
 Alpha virt. eigenvalues --    0.15091   0.15542   0.16096   0.16646   0.17063
 Alpha virt. eigenvalues --    0.17679   0.18486   0.18753   0.19214   0.21544
 Alpha virt. eigenvalues --    0.22404   0.22748   0.22929   0.23772   0.24646
 Alpha virt. eigenvalues --    0.25108   0.25202   0.25742   0.26880   0.27328
 Alpha virt. eigenvalues --    0.27822   0.28799   0.30142   0.30491   0.31768
 Alpha virt. eigenvalues --    0.32903   0.33929   0.34548   0.36647   0.37520
 Alpha virt. eigenvalues --    0.38459   0.39196   0.40225   0.40488   0.41328
 Alpha virt. eigenvalues --    0.41618   0.42131   0.42391   0.42607   0.43660
 Alpha virt. eigenvalues --    0.44267   0.44518   0.44935   0.45430   0.46254
 Alpha virt. eigenvalues --    0.47029   0.47445   0.47791   0.48067   0.48256
 Alpha virt. eigenvalues --    0.48619   0.49393   0.49739   0.50073   0.50254
 Alpha virt. eigenvalues --    0.50878   0.50921   0.52127   0.52650   0.52830
 Alpha virt. eigenvalues --    0.52933   0.53196   0.53435   0.53641   0.54133
 Alpha virt. eigenvalues --    0.54285   0.54861   0.55261   0.55354   0.55877
 Alpha virt. eigenvalues --    0.56233   0.56303   0.56718   0.56966   0.57672
 Alpha virt. eigenvalues --    0.58249   0.58617   0.59014   0.59362   0.60279
 Alpha virt. eigenvalues --    0.60635   0.60783   0.62062   0.62493   0.62638
 Alpha virt. eigenvalues --    0.63373   0.63744   0.64575   0.64944   0.65237
 Alpha virt. eigenvalues --    0.66180   0.66324   0.67018   0.67651   0.68307
 Alpha virt. eigenvalues --    0.68864   0.69737   0.70315   0.70833   0.71345
 Alpha virt. eigenvalues --    0.71767   0.72610   0.73277   0.73836   0.74015
 Alpha virt. eigenvalues --    0.74528   0.75050   0.75235   0.75555   0.75705
 Alpha virt. eigenvalues --    0.75973   0.76190   0.76550   0.77027   0.77388
 Alpha virt. eigenvalues --    0.77496   0.77941   0.78223   0.78564   0.78934
 Alpha virt. eigenvalues --    0.79266   0.79416   0.79651   0.80465   0.80682
 Alpha virt. eigenvalues --    0.81140   0.81940   0.82328   0.82752   0.82975
 Alpha virt. eigenvalues --    0.83325   0.83846   0.84455   0.85141   0.85241
 Alpha virt. eigenvalues --    0.85613   0.85940   0.86218   0.86991   0.87103
 Alpha virt. eigenvalues --    0.87476   0.87860   0.88421   0.88834   0.89406
 Alpha virt. eigenvalues --    0.90682   0.91435   0.92116   0.92690   0.92883
 Alpha virt. eigenvalues --    0.93072   0.94574   0.95285   0.96293   0.96603
 Alpha virt. eigenvalues --    0.97804   0.98119   0.99067   0.99557   1.00304
 Alpha virt. eigenvalues --    1.00629   1.01325   1.01880   1.02687   1.03220
 Alpha virt. eigenvalues --    1.04421   1.04641   1.05540   1.06748   1.07003
 Alpha virt. eigenvalues --    1.07491   1.08220   1.09071   1.09522   1.10312
 Alpha virt. eigenvalues --    1.11019   1.12076   1.13084   1.13391   1.13536
 Alpha virt. eigenvalues --    1.14184   1.15067   1.15558   1.16309   1.17900
 Alpha virt. eigenvalues --    1.18262   1.18549   1.19563   1.19888   1.20234
 Alpha virt. eigenvalues --    1.22072   1.23244   1.24779   1.25265   1.25786
 Alpha virt. eigenvalues --    1.26410   1.27365   1.28329   1.28500   1.29167
 Alpha virt. eigenvalues --    1.29785   1.30285   1.31218   1.32290   1.32668
 Alpha virt. eigenvalues --    1.34241   1.35129   1.35951   1.36887   1.36941
 Alpha virt. eigenvalues --    1.37578   1.38377   1.38798   1.39336   1.40134
 Alpha virt. eigenvalues --    1.40302   1.40867   1.42149   1.42366   1.43412
 Alpha virt. eigenvalues --    1.43732   1.44492   1.44954   1.45889   1.47612
 Alpha virt. eigenvalues --    1.49081   1.49529   1.50041   1.50941   1.52184
 Alpha virt. eigenvalues --    1.52913   1.54470   1.55630   1.56033   1.56527
 Alpha virt. eigenvalues --    1.57061   1.57258   1.57704   1.58919   1.60397
 Alpha virt. eigenvalues --    1.61724   1.62201   1.62687   1.63098   1.63350
 Alpha virt. eigenvalues --    1.63374   1.64770   1.64873   1.65782   1.66888
 Alpha virt. eigenvalues --    1.67711   1.68605   1.68975   1.70000   1.70200
 Alpha virt. eigenvalues --    1.71291   1.71629   1.72079   1.72690   1.72921
 Alpha virt. eigenvalues --    1.73340   1.74082   1.74430   1.74964   1.75887
 Alpha virt. eigenvalues --    1.76384   1.77152   1.77635   1.78510   1.78954
 Alpha virt. eigenvalues --    1.79666   1.79838   1.80231   1.81103   1.81183
 Alpha virt. eigenvalues --    1.81803   1.82168   1.82817   1.83348   1.83573
 Alpha virt. eigenvalues --    1.84585   1.85321   1.85457   1.86764   1.87119
 Alpha virt. eigenvalues --    1.87389   1.87821   1.88660   1.89580   1.90191
 Alpha virt. eigenvalues --    1.90389   1.90690   1.91430   1.92535   1.92695
 Alpha virt. eigenvalues --    1.93394   1.94258   1.94789   1.94855   1.95314
 Alpha virt. eigenvalues --    1.96652   1.97886   1.98538   1.98868   1.99975
 Alpha virt. eigenvalues --    2.00353   2.01266   2.01562   2.02474   2.02742
 Alpha virt. eigenvalues --    2.03201   2.03840   2.04540   2.05474   2.05995
 Alpha virt. eigenvalues --    2.06841   2.07904   2.08470   2.09468   2.10309
 Alpha virt. eigenvalues --    2.10743   2.11313   2.12639   2.13018   2.14533
 Alpha virt. eigenvalues --    2.14817   2.16078   2.16344   2.17395   2.17500
 Alpha virt. eigenvalues --    2.18946   2.19508   2.20467   2.20851   2.21665
 Alpha virt. eigenvalues --    2.22390   2.23561   2.24085   2.24496   2.26620
 Alpha virt. eigenvalues --    2.26853   2.27867   2.28007   2.29173   2.29936
 Alpha virt. eigenvalues --    2.30605   2.31360   2.32283   2.32798   2.35027
 Alpha virt. eigenvalues --    2.36048   2.37665   2.38957   2.39455   2.39665
 Alpha virt. eigenvalues --    2.40393   2.41771   2.42528   2.42989   2.43447
 Alpha virt. eigenvalues --    2.44929   2.45134   2.46748   2.48253   2.49332
 Alpha virt. eigenvalues --    2.49718   2.49878   2.50684   2.51498   2.52033
 Alpha virt. eigenvalues --    2.53048   2.53926   2.54643   2.55882   2.56065
 Alpha virt. eigenvalues --    2.56521   2.57692   2.57964   2.58941   2.59301
 Alpha virt. eigenvalues --    2.59808   2.61702   2.62290   2.63418   2.64267
 Alpha virt. eigenvalues --    2.64545   2.65373   2.66913   2.67617   2.68278
 Alpha virt. eigenvalues --    2.69349   2.71102   2.73568   2.73968   2.75767
 Alpha virt. eigenvalues --    2.78062   2.80774   2.84111   2.86490   2.89136
 Alpha virt. eigenvalues --    2.90917   2.90934   2.91424   2.92734   2.93054
 Alpha virt. eigenvalues --    2.93739   2.94923   2.95337   2.97821   2.99344
 Alpha virt. eigenvalues --    2.99873   3.00854   3.04022   3.04379   3.06271
 Alpha virt. eigenvalues --    3.09710   3.32556   3.68964   3.70996   3.74446
 Alpha virt. eigenvalues --    3.79749   3.82958   3.88830   3.93963   3.98109
 Alpha virt. eigenvalues --    3.98943   4.00873   4.02170   4.03781   4.06002
 Alpha virt. eigenvalues --    4.07775   4.09549   4.10494   4.11143   4.13184
 Alpha virt. eigenvalues --    4.16362   4.19842   4.21397   4.23146   4.24649
 Alpha virt. eigenvalues --    4.27464   4.29593   4.33359   4.35423   4.37808
 Alpha virt. eigenvalues --    4.39525   4.41050   4.42668   4.44009   4.48519
 Alpha virt. eigenvalues --    4.55926   4.57219   4.60434   4.64935   4.65890
 Alpha virt. eigenvalues --    4.67155
          Condensed to atoms (all electrons):
 Mulliken charges:
               1
     1  N   -0.814679
     2  C   -0.109653
     3  C    0.639152
     4  O   -0.517185
     5  C   -0.418372
     6  C    0.635136
     7  N   -0.742814
     8  O   -0.535399
     9  H    0.415805
    10  H    0.214785
    11  H    0.220968
    12  H    0.211914
    13  H    0.363468
    14  H    0.357711
    15  H    0.428542
    16  H    0.430627
    17  N   -0.651397
    18  C   -0.082538
    19  C    0.663281
    20  O   -0.548041
    21  C   -0.370534
    22  C    0.168333
    23  C   -0.179564
    24  C   -0.200691
    25  C   -0.138968
    26  C   -0.136528
    27  C   -0.160599
    28  H    0.395018
    29  H    0.208607
    30  H    0.189588
    31  H    0.185131
    32  H    0.147787
    33  H    0.155080
    34  H    0.153772
    35  H    0.148962
    36  H    0.145851
    37  N   -0.644750
    38  C   -0.072557
    39  C    0.638969
    40  O   -0.573980
    41  C   -0.391865
    42  C    0.616890
    43  N   -0.727928
    44  O   -0.558576
    45  H    0.363506
    46  H    0.222482
    47  H    0.211371
    48  H    0.190838
    49  H    0.356604
    50  H    0.365411
    51  N   -0.599305
    52  C   -0.069402
    53  C    0.631399
    54  O   -0.572291
    55  C   -0.288177
    56  C   -0.308997
    57  C   -0.159027
    58  N   -0.657755
    59  C    0.806222
    60  N   -0.747607
    61  N   -0.794894
    62  O   -0.613996
    63  H    0.369471
    64  H    0.150596
    65  H    0.173194
    66  H    0.155228
    67  H    0.191353
    68  H    0.169411
    69  H    0.181395
    70  H    0.165161
    71  H    0.423877
    72  H    0.363715
    73  H    0.373156
    74  H    0.356852
    75  H    0.431450
 Sum of Mulliken charges =   1.00000
 Mulliken charges with hydrogens summed into heavy atoms:
               1
     1  N    0.460295
     2  C    0.105132
     3  C    0.639152
     4  O   -0.517185
     5  C    0.014510
     6  C    0.635136
     7  N   -0.021635
     8  O   -0.535399
    17  N   -0.256379
    18  C    0.126069
    19  C    0.663281
    20  O   -0.548041
    21  C    0.004186
    22  C    0.168333
    23  C   -0.031777
    24  C   -0.045610
    25  C    0.014803
    26  C    0.012433
    27  C   -0.014748
    37  N   -0.281244
    38  C    0.149925
    39  C    0.638969
    40  O   -0.573980
    41  C    0.010345
    42  C    0.616890
    43  N   -0.005913
    44  O   -0.558576
    51  N   -0.229834
    52  C    0.081194
    53  C    0.631399
    54  O   -0.572291
    55  C    0.040244
    56  C    0.051766
    57  C    0.187529
    58  N   -0.233878
    59  C    0.806222
    60  N   -0.010736
    61  N   -0.006593
    62  O   -0.613996
 Electronic spatial extent (au):  <R**2>=         136685.0006
 Charge=              1.0000 electrons
 Dipole moment (field-independent basis, Debye):
    X=            -27.1577    Y=             -7.2801    Z=            -30.7026  Tot=             41.6317
 Quadrupole moment (field-independent basis, Debye-Ang):
   XX=             23.1285   YY=           -196.4591   ZZ=             25.4979
   XY=             54.9304   XZ=            225.5320   YZ=             56.5089
 Traceless Quadrupole moment (field-independent basis, Debye-Ang):
   XX=             72.4061   YY=           -147.1815   ZZ=             74.7755
   XY=             54.9304   XZ=            225.5320   YZ=             56.5089
 Octapole moment (field-independent basis, Debye-Ang**2):
  XXX=           2091.9468  YYY=            880.1556  ZZZ=           2811.7055  XYY=           1529.2767
  XXY=           -238.7746  XXZ=           -712.4723  XZZ=           -634.5990  YZZ=           -188.5253
  YYZ=           1580.8553  XYZ=           -528.3659
 Hexadecapole moment (field-independent basis, Debye-Ang**3):
 XXXX=         -46886.6744 YYYY=          -6808.0990 ZZZZ=         -64461.3886 XXXY=          -1425.8485
 XXXZ=         -10388.6457 YYYX=          -7864.3852 YYYZ=          -7724.6005 ZZZX=         -15884.2042
 ZZZY=          -2775.7735 XXYY=         -13926.7196 XXZZ=          -1767.2153 YYZZ=         -15126.4953
 XXYZ=           3259.2441 YYXZ=         -12682.0117 ZZXY=           2814.7378
 N-N= 5.166959843388D+03 E-N=-1.477573838371D+04  KE= 1.899808263324D+03
 Unable to Open any file for archive entry.
 1\1\GINC-AMR-243\SP\RB3LYP\6-31G(d)\C23H36N9O7(1+)\KENGMITH\03-Jun-202
 2\0\\# B3LYP/6-31G* empiricaldispersion=gd3 guess=read geom=check nosy
 mm integral(ultrafinegrid)\\Candidate Structure: Conf:841 Charge calc 
 in gas phase\\1,1\N,0,-9.6067202199,-3.4799178852,-7.1282198788\C,0,-9
 .4247060096,-3.6268498769,-8.6129566419\C,0,-8.0484200861,-3.164425621
 9,-9.1213840658\O,0,-7.3773243345,-3.9124350352,-9.8218153559\C,0,-10.
 5403389839,-2.8618119423,-9.329863686\C,0,-11.9216095546,-3.4149550866
 ,-8.99516799\N,0,-12.8870805242,-3.1133035394,-9.8884196464\O,0,-12.13
 30504886,-4.0687529543,-7.9686190629\H,0,-10.5413928555,-3.878361365,-
 6.9248885585\H,0,-9.4829684356,-4.693532891,-8.8338751579\H,0,-10.5132
 420927,-1.8037851505,-9.0439708709\H,0,-10.3550304607,-2.8915770934,-1
 0.4070940654\H,0,-13.8383907097,-3.399062378,-9.6981720902\H,0,-12.691
 0640345,-2.5663278688,-10.7157537593\H,0,-8.834591772,-3.945172954,-6.
 6239990132\H,0,-9.5852783713,-2.4522236468,-6.8387390534\N,0,-7.683029
 5493,-1.8897058953,-8.8081578194\C,0,-6.6785407941,-1.1937209638,-9.60
 2384102\C,0,-5.518281549,-0.657148188,-8.7505823446\O,0,-5.175095491,0
 .5248555401,-8.8721354212\C,0,-7.3342314162,-0.0320378814,-10.38245394
 65\C,0,-8.5828730319,-0.4455205444,-11.1347154204\C,0,-8.554182407,-1.
 4592349281,-12.1052061935\C,0,-9.8026630333,0.1913063923,-10.872008216
 1\C,0,-9.7106936186,-1.8191877675,-12.7984201462\C,0,-10.9632088194,-0
 .1594150425,-11.5684538181\C,0,-10.9209276492,-1.1664358272,-12.535626
 0612\H,0,-8.3451033085,-1.2992305002,-8.2991641735\H,0,-6.2648327306,-
 1.9404985421,-10.2888522598\H,0,-7.5725582497,0.7594861669,-9.66514347
 38\H,0,-6.5876758813,0.3872440925,-11.0651497391\H,0,-7.622301044,-1.9
 753578018,-12.321112858\H,0,-9.8435714177,0.9731082125,-10.1175688889\
 H,0,-9.6656118231,-2.6004715569,-13.5520004203\H,0,-11.8930202184,0.36
 43612756,-11.3624094036\H,0,-11.8136598408,-1.4258607542,-13.099730837
 8\N,0,-4.8311748416,-1.4855995914,-7.9142289546\C,0,-5.1357410601,-2.8
 426867146,-7.4688196742\C,0,-6.2544844115,-2.9002919591,-6.4018329676\
 O,0,-6.9962303459,-3.8873886698,-6.3573967521\C,0,-3.8573620533,-3.529
 8767602,-6.9464381454\C,0,-3.2438934607,-2.8300531839,-5.7320238265\N,
 0,-2.7151504477,-3.6412767195,-4.7915316686\O,0,-3.2121790013,-1.59697
 05133,-5.6266157754\H,0,-4.08504899,-1.0356409592,-7.3893375836\H,0,-5
 .5135326799,-3.4333034804,-8.3069964444\H,0,-3.1048416514,-3.533680751
 ,-7.7447166435\H,0,-4.1026975146,-4.5721753132,-6.720940564\H,0,-2.246
 3718793,-3.2276401385,-3.9965705656\H,0,-2.7385130577,-4.6481066755,-4
 .8619607065\N,0,-6.3397088323,-1.8370337754,-5.566567471\C,0,-7.635999
 5254,-1.391072454,-5.0302266922\C,0,-8.2241309178,-0.4609887453,-6.134
 4550953\O,0,-7.5410355947,0.5361847352,-6.4692438661\C,0,-7.5551379646
 ,-0.7782260499,-3.6244417912\C,0,-6.9928729735,0.6417929652,-3.4446645
 967\C,0,-5.4910317038,0.8304879677,-3.693831214\N,0,-5.1783467298,1.01
 30451559,-5.1181139038\C,0,-3.9599494208,1.3502555411,-5.5401604329\N,
 0,-2.9510639201,1.4975819852,-4.6450118202\N,0,-3.7232693236,1.6117890
 447,-6.8278013221\O,0,-9.287520376,-0.8508479019,-6.7124003071\H,0,-5.
 6813274357,-1.0909266224,-5.7539133411\H,0,-8.247006347,-2.2900385914,
 -4.9476543158\H,0,-8.5817326337,-0.7643375368,-3.2385230691\H,0,-6.994
 5914454,-1.4770125455,-2.9893773931\H,0,-7.5530008881,1.358235989,-4.0
 538035269\H,0,-7.1672741087,0.9194982204,-2.3990722888\H,0,-5.15402117
 01,1.7206802668,-3.1477042399\H,0,-4.9373259361,-0.0387993713,-3.30876
 07144\H,0,-5.9918095386,1.0018706431,-5.7684007686\H,0,-2.0038763721,1
 .4800553637,-4.996740621\H,0,-3.0556622032,1.0804709157,-3.7321858977\
 H,0,-2.7846111578,1.8402704634,-7.1222521669\H,0,-4.3769750095,1.33133
 76687,-7.5802814418\\Version=ES64L-G16RevC.01\HF=-1917.5362723\RMSD=1.
 791e-09\Dipole=3.0082083,-0.1334552,2.4019856\Quadrupole=53.8321336,-1
 09.4258611,55.5937275,40.8393775,167.6774929,42.0129935\PG=C01 [X(C23H
 36N9O7)]\\@
 The archive entry for this job was punched.


 IF THERE IS ONE WAY BETTER THAN ANOTHER IT IS THE WAY OF NATURE.

                          -- ARISTOTLE
 Job cpu time:       0 days  0 hours  2 minutes  9.7 seconds.
 Elapsed time:       0 days  0 hours  0 minutes 33.1 seconds.
 File lengths (MBytes):  RWF=    344 Int=      0 D2E=      0 Chk=     48 Scr=     16
 Normal termination of Gaussian 16 at Fri Jun  3 06:00:34 2022.
