 Entering Gaussian System, Link 0=/opt/software/Gaussian/g16-AVX2-C.01/g16/g16
 Input=charge-conf-879.com
 Output=charge-conf-879.log
 Initial command:
 /opt/software/Gaussian/g16-AVX2-C.01/g16/l1.exe "/mnt/gs18/scratch/users/kengmith/Gau-24229.inp" -scrdir="/mnt/gs18/scratch/users/kengmith/"
 Entering Link 1 = /opt/software/Gaussian/g16-AVX2-C.01/g16/l1.exe PID=     24244.
  
 Copyright (c) 1988-2019, Gaussian, Inc.  All Rights Reserved.
  
 This is part of the Gaussian(R) 16 program.  It is based on
 the Gaussian(R) 09 system (copyright 2009, Gaussian, Inc.),
 the Gaussian(R) 03 system (copyright 2003, Gaussian, Inc.),
 the Gaussian(R) 98 system (copyright 1998, Gaussian, Inc.),
 the Gaussian(R) 94 system (copyright 1995, Gaussian, Inc.),
 the Gaussian 92(TM) system (copyright 1992, Gaussian, Inc.),
 the Gaussian 90(TM) system (copyright 1990, Gaussian, Inc.),
 the Gaussian 88(TM) system (copyright 1988, Gaussian, Inc.),
 the Gaussian 86(TM) system (copyright 1986, Carnegie Mellon
 University), and the Gaussian 82(TM) system (copyright 1983,
 Carnegie Mellon University). Gaussian is a federally registered
 trademark of Gaussian, Inc.
  
 This software contains proprietary and confidential information,
 including trade secrets, belonging to Gaussian, Inc.
  
 This software is provided under written license and may be
 used, copied, transmitted, or stored only in accord with that
 written license.
  
 The following legend is applicable only to US Government
 contracts under FAR:
  
                    RESTRICTED RIGHTS LEGEND
  
 Use, reproduction and disclosure by the US Government is
 subject to restrictions as set forth in subparagraphs (a)
 and (c) of the Commercial Computer Software - Restricted
 Rights clause in FAR 52.227-19.
  
 Gaussian, Inc.
 340 Quinnipiac St., Bldg. 40, Wallingford CT 06492
  
  
 ---------------------------------------------------------------
 Warning -- This program may not be used in any manner that
 competes with the business of Gaussian, Inc. or will provide
 assistance to any competitor of Gaussian, Inc.  The licensee
 of this program is prohibited from giving any competitor of
 Gaussian, Inc. access to this program.  By using this program,
 the user acknowledges that Gaussian, Inc. is engaged in the
 business of creating and licensing software in the field of
 computational chemistry and represents and warrants to the
 licensee that it is not a competitor of Gaussian, Inc. and that
 it will not use this program in any manner prohibited above.
 ---------------------------------------------------------------
  

 Cite this work as:
 Gaussian 16, Revision C.01,
 M. J. Frisch, G. W. Trucks, H. B. Schlegel, G. E. Scuseria, 
 M. A. Robb, J. R. Cheeseman, G. Scalmani, V. Barone, 
 G. A. Petersson, H. Nakatsuji, X. Li, M. Caricato, A. V. Marenich, 
 J. Bloino, B. G. Janesko, R. Gomperts, B. Mennucci, H. P. Hratchian, 
 J. V. Ortiz, A. F. Izmaylov, J. L. Sonnenberg, D. Williams-Young, 
 F. Ding, F. Lipparini, F. Egidi, J. Goings, B. Peng, A. Petrone, 
 T. Henderson, D. Ranasinghe, V. G. Zakrzewski, J. Gao, N. Rega, 
 G. Zheng, W. Liang, M. Hada, M. Ehara, K. Toyota, R. Fukuda, 
 J. Hasegawa, M. Ishida, T. Nakajima, Y. Honda, O. Kitao, H. Nakai, 
 T. Vreven, K. Throssell, J. A. Montgomery, Jr., J. E. Peralta, 
 F. Ogliaro, M. J. Bearpark, J. J. Heyd, E. N. Brothers, K. N. Kudin, 
 V. N. Staroverov, T. A. Keith, R. Kobayashi, J. Normand, 
 K. Raghavachari, A. P. Rendell, J. C. Burant, S. S. Iyengar, 
 J. Tomasi, M. Cossi, J. M. Millam, M. Klene, C. Adamo, R. Cammi, 
 J. W. Ochterski, R. L. Martin, K. Morokuma, O. Farkas, 
 J. B. Foresman, and D. J. Fox, Gaussian, Inc., Wallingford CT, 2019.
 
 ******************************************
 Gaussian 16:  ES64L-G16RevC.01  3-Jul-2019
                 3-Jun-2022 
 ******************************************
 %mem=8gb
 %nproc=4
 Will use up to    4 processors via shared memory.
 %chk=conf-879.chk
 ----------------------------------------------------------------------
 # B3LYP/6-31G* empiricaldispersion=gd3 guess=read geom=check nosymm in
 tegral(ultrafinegrid)
 ----------------------------------------------------------------------
 1/29=2,38=1,172=1/1;
 2/12=2,15=1,40=1/2;
 3/5=1,6=6,7=1,11=2,14=-4,25=1,30=1,74=-5,75=-5,116=-2,124=31/1,2,3;
 4/5=1/1;
 5/5=2,38=6/2;
 6/7=2,8=2,9=2,10=2,28=1/1;
 99/5=1,9=1/99;
 ------------------------------------------------------
 Candidate Structure: Conf:879 Charge calc in gas phase
 ------------------------------------------------------
 Structure from the checkpoint file:  "conf-879.chk"
 Charge =  1 Multiplicity = 1
 Redundant internal coordinates found in file.  (old form).
 N,0,-9.5587042368,-3.3732393838,-7.8060519231
 C,0,-9.2359895234,-3.3144672732,-6.3414989842
 C,0,-8.5245689288,-2.0239005369,-5.9018449485
 O,0,-8.9657443889,-1.3873129594,-4.9531141208
 C,0,-8.3860446497,-4.5351178596,-5.9731494526
 C,0,-9.1335504784,-5.8437746812,-6.2120992961
 N,0,-8.6779575757,-6.8989465472,-5.5061991
 O,0,-10.0702217192,-5.9226367414,-7.0137218474
 H,0,-10.060684221,-4.2712782613,-7.9395631094
 H,0,-10.1854266029,-3.3286062429,-5.8044053108
 H,0,-7.4692189648,-4.5459242047,-6.5739990388
 H,0,-8.0711103944,-4.4462821363,-4.9300290316
 H,0,-9.0938817634,-7.8081301379,-5.6597492576
 H,0,-7.9065540769,-6.8116913839,-4.8587810207
 H,0,-10.0995493869,-2.5457997679,-8.1021757174
 H,0,-8.6606800183,-3.3722794962,-8.3850990718
 N,0,-7.3700302005,-1.6950953247,-6.5535060938
 C,0,-6.3943362479,-0.8287365018,-5.9006216327
 C,0,-6.027977776,0.4266244188,-6.7091414914
 O,0,-4.8530007075,0.8166529752,-6.7617437443
 C,0,-5.1193991925,-1.6244713863,-5.53903255
 C,0,-5.4064077384,-2.9122333179,-4.7940093953
 C,0,-6.0884122022,-2.9077551896,-3.5674237515
 C,0,-4.9830764082,-4.1396922493,-5.3184827192
 C,0,-6.3327055194,-4.0984797188,-2.882114238
 C,0,-5.2173215975,-5.3351511443,-4.6325851914
 C,0,-5.8931057726,-5.3180445894,-3.4103438836
 H,0,-7.0452961905,-2.291550986,-7.3200006237
 H,0,-6.8838196109,-0.4732266446,-4.9865083886
 H,0,-4.5768861385,-1.853030036,-6.4636974812
 H,0,-4.4646779233,-0.9693403207,-4.9557560377
 H,0,-6.4331761188,-1.9690649936,-3.1417222965
 H,0,-4.459053497,-4.1632102655,-6.2710715162
 H,0,-6.8543605636,-4.0736168853,-1.9296313665
 H,0,-4.8596975295,-6.2730417943,-5.0490381821
 H,0,-6.0555701467,-6.2407091074,-2.858568855
 N,0,-6.995612474,1.1315280501,-7.3526353305
 C,0,-8.4289535241,0.8989159643,-7.4900586665
 C,0,-8.8008805756,-0.177834704,-8.5305063171
 O,0,-9.9097339946,-0.7203952389,-8.4590136381
 C,0,-9.1342457851,2.219911376,-7.8748608107
 C,0,-8.6539201829,2.7731530752,-9.2181209664
 N,0,-9.6057454458,3.2321617349,-10.0528474733
 O,0,-7.4507602085,2.7977872838,-9.5174252048
 H,0,-6.6518461121,1.9272751134,-7.882547893
 H,0,-8.8499332851,0.553811574,-6.5425975288
 H,0,-8.9256994755,2.9740754947,-7.1066146211
 H,0,-10.2118850486,2.035449872,-7.8791044881
 H,0,-9.3234266921,3.6762277804,-10.91748929
 H,0,-10.5861125663,3.2376976262,-9.8106604906
 N,0,-7.8874924684,-0.4149554733,-9.4916967168
 C,0,-7.954345321,-1.5250454756,-10.4516055811
 C,0,-6.8502180354,-2.5435718139,-9.996165709
 O,0,-5.7382890657,-2.5665387001,-10.5662596388
 C,0,-8.0387793265,-1.0359692762,-11.915606918
 C,0,-6.8509590945,-0.3999706948,-12.6730902081
 C,0,-6.0354953705,0.6814861273,-11.9464913886
 N,0,-5.1685747819,-0.0149629447,-10.9945964584
 C,0,-4.5664644621,0.4446100834,-9.9048485229
 N,0,-4.5820960886,1.7465977461,-9.5615628095
 N,0,-3.8850956202,-0.4370572708,-9.141427584
 O,0,-7.1572054111,-3.2288183432,-8.966178357
 H,0,-7.0188628652,0.0941010375,-9.4218620194
 H,0,-8.9189707269,-1.9984118773,-10.2565340458
 H,0,-8.3678078498,-1.8947184935,-12.5129765388
 H,0,-8.8740912988,-0.3235219937,-11.9227420105
 H,0,-6.1569547574,-1.181898658,-13.0013183389
 H,0,-7.259778731,0.0438552404,-13.5873486318
 H,0,-5.4223834289,1.2385448504,-12.6644780586
 H,0,-6.689044983,1.3971702404,-11.4313432721
 H,0,-5.2278906421,-1.0495172629,-11.0504883861
 H,0,-4.3252049582,1.9626498974,-8.6028073431
 H,0,-5.284825384,2.3513125493,-9.9703560831
 H,0,-3.7305995547,-0.1936090957,-8.1678153349
 H,0,-4.0065657732,-1.4220894749,-9.357143166
 Recover connectivity data from disk.
                           ----------------------------
                           !    Current Parameters    !
                           ! (Angstroms and Degrees)  !
 --------------------------                            --------------------------
 ! Name  Definition              Value                                          !
 --------------------------------------------------------------------------------
 ! R1    R(1,2)                  1.5008                                         !
 ! R2    R(1,9)                  1.0374                                         !
 ! R3    R(1,15)                 1.0319                                         !
 ! R4    R(1,16)                 1.0685                                         !
 ! R5    R(2,3)                  1.5378                                         !
 ! R6    R(2,5)                  1.5323                                         !
 ! R7    R(2,10)                 1.0909                                         !
 ! R8    R(3,4)                  1.2247                                         !
 ! R9    R(3,17)                 1.3659                                         !
 ! R10   R(5,6)                  1.5259                                         !
 ! R11   R(5,11)                 1.0962                                         !
 ! R12   R(5,12)                 1.0932                                         !
 ! R13   R(6,7)                  1.3488                                         !
 ! R14   R(6,8)                  1.2354                                         !
 ! R15   R(7,13)                 1.0115                                         !
 ! R16   R(7,14)                 1.0109                                         !
 ! R17   R(17,18)                1.459                                          !
 ! R18   R(17,28)                1.0241                                         !
 ! R19   R(18,19)                1.5375                                         !
 ! R20   R(18,21)                1.5458                                         !
 ! R21   R(18,29)                1.0962                                         !
 ! R22   R(19,20)                1.2391                                         !
 ! R23   R(19,37)                1.3592                                         !
 ! R24   R(21,22)                1.5152                                         !
 ! R25   R(21,30)                1.0962                                         !
 ! R26   R(21,31)                1.0946                                         !
 ! R27   R(22,23)                1.4034                                         !
 ! R28   R(22,24)                1.4003                                         !
 ! R29   R(23,25)                1.3954                                         !
 ! R30   R(23,32)                1.0868                                         !
 ! R31   R(24,26)                1.398                                          !
 ! R32   R(24,33)                1.0875                                         !
 ! R33   R(25,27)                1.3999                                         !
 ! R34   R(25,34)                1.0863                                         !
 ! R35   R(26,27)                1.3967                                         !
 ! R36   R(26,35)                1.0867                                         !
 ! R37   R(27,36)                1.0873                                         !
 ! R38   R(37,38)                1.4586                                         !
 ! R39   R(37,45)                1.016                                          !
 ! R40   R(38,39)                1.5428                                         !
 ! R41   R(38,41)                1.5461                                         !
 ! R42   R(38,46)                1.0927                                         !
 ! R43   R(39,40)                1.2365                                         !
 ! R44   R(39,51)                1.347                                          !
 ! R45   R(41,42)                1.5301                                         !
 ! R46   R(41,47)                1.0966                                         !
 ! R47   R(41,48)                1.0933                                         !
 ! R48   R(42,43)                1.3466                                         !
 ! R49   R(42,44)                1.2401                                         !
 ! R50   R(43,49)                1.0122                                         !
 ! R51   R(43,50)                1.0099                                         !
 ! R52   R(51,52)                1.4691                                         !
 ! R53   R(51,63)                1.0092                                         !
 ! R54   R(52,53)                1.5697                                         !
 ! R55   R(52,55)                1.5458                                         !
 ! R56   R(52,64)                1.0921                                         !
 ! R57   R(53,54)                1.2498                                         !
 ! R58   R(53,62)                1.2746                                         !
 ! R59   R(55,56)                1.5457                                         !
 ! R60   R(55,65)                1.0966                                         !
 ! R61   R(55,66)                1.0979                                         !
 ! R62   R(56,57)                1.537                                          !
 ! R63   R(56,67)                1.0958                                         !
 ! R64   R(56,68)                1.0954                                         !
 ! R65   R(57,58)                1.4638                                         !
 ! R66   R(57,69)                1.0962                                         !
 ! R67   R(57,70)                1.0976                                         !
 ! R68   R(58,59)                1.3271                                         !
 ! R69   R(58,71)                1.0378                                         !
 ! R70   R(59,60)                1.3466                                         !
 ! R71   R(59,61)                1.3507                                         !
 ! R72   R(60,72)                1.0158                                         !
 ! R73   R(60,73)                1.0132                                         !
 ! R74   R(61,74)                1.0154                                         !
 ! R75   R(61,75)                1.0157                                         !
 ! A1    A(2,1,9)              105.2791                                         !
 ! A2    A(2,1,15)             111.1815                                         !
 ! A3    A(2,1,16)             110.3689                                         !
 ! A4    A(9,1,15)             113.8015                                         !
 ! A5    A(9,1,16)             109.7364                                         !
 ! A6    A(15,1,16)            106.5143                                         !
 ! A7    A(1,2,3)              114.2872                                         !
 ! A8    A(1,2,5)              108.8229                                         !
 ! A9    A(1,2,10)             107.0248                                         !
 ! A10   A(3,2,5)              110.071                                          !
 ! A11   A(3,2,10)             105.8272                                         !
 ! A12   A(5,2,10)             110.736                                          !
 ! A13   A(2,3,4)              119.4076                                         !
 ! A14   A(2,3,17)             117.1704                                         !
 ! A15   A(4,3,17)             123.2934                                         !
 ! A16   A(2,5,6)              111.9508                                         !
 ! A17   A(2,5,11)             109.8765                                         !
 ! A18   A(2,5,12)             108.9303                                         !
 ! A19   A(6,5,11)             108.3861                                         !
 ! A20   A(6,5,12)             111.1139                                         !
 ! A21   A(11,5,12)            106.4304                                         !
 ! A22   A(5,6,7)              115.0556                                         !
 ! A23   A(5,6,8)              121.8556                                         !
 ! A24   A(7,6,8)              123.0768                                         !
 ! A25   A(6,7,13)             119.0008                                         !
 ! A26   A(6,7,14)             121.6972                                         !
 ! A27   A(13,7,14)            119.248                                          !
 ! A28   A(3,17,18)            119.6491                                         !
 ! A29   A(3,17,28)            119.0067                                         !
 ! A30   A(18,17,28)           117.9508                                         !
 ! A31   A(17,18,19)           114.1332                                         !
 ! A32   A(17,18,21)           110.5215                                         !
 ! A33   A(17,18,29)           105.4931                                         !
 ! A34   A(19,18,21)           110.2917                                         !
 ! A35   A(19,18,29)           106.2679                                         !
 ! A36   A(21,18,29)           109.8882                                         !
 ! A37   A(18,19,20)           120.3494                                         !
 ! A38   A(18,19,37)           120.1854                                         !
 ! A39   A(20,19,37)           119.4547                                         !
 ! A40   A(18,21,22)           113.3474                                         !
 ! A41   A(18,21,30)           108.5552                                         !
 ! A42   A(18,21,31)           108.0529                                         !
 ! A43   A(22,21,30)           109.3486                                         !
 ! A44   A(22,21,31)           111.0989                                         !
 ! A45   A(30,21,31)           106.1572                                         !
 ! A46   A(21,22,23)           121.2706                                         !
 ! A47   A(21,22,24)           120.2358                                         !
 ! A48   A(23,22,24)           118.4922                                         !
 ! A49   A(22,23,25)           120.7692                                         !
 ! A50   A(22,23,32)           119.9493                                         !
 ! A51   A(25,23,32)           119.2815                                         !
 ! A52   A(22,24,26)           121.0066                                         !
 ! A53   A(22,24,33)           119.5191                                         !
 ! A54   A(26,24,33)           119.4734                                         !
 ! A55   A(23,25,27)           120.2064                                         !
 ! A56   A(23,25,34)           119.6815                                         !
 ! A57   A(27,25,34)           120.1072                                         !
 ! A58   A(24,26,27)           119.9952                                         !
 ! A59   A(24,26,35)           119.6594                                         !
 ! A60   A(27,26,35)           120.3405                                         !
 ! A61   A(25,27,26)           119.5256                                         !
 ! A62   A(25,27,36)           120.0587                                         !
 ! A63   A(26,27,36)           120.3971                                         !
 ! A64   A(19,37,38)           131.4157                                         !
 ! A65   A(19,37,45)           114.3473                                         !
 ! A66   A(38,37,45)           114.0965                                         !
 ! A67   A(37,38,39)           114.3143                                         !
 ! A68   A(37,38,41)           109.6007                                         !
 ! A69   A(37,38,46)           110.3205                                         !
 ! A70   A(39,38,41)           108.571                                          !
 ! A71   A(39,38,46)           105.7505                                         !
 ! A72   A(41,38,46)           108.0527                                         !
 ! A73   A(38,39,40)           118.9086                                         !
 ! A74   A(38,39,51)           116.1434                                         !
 ! A75   A(40,39,51)           124.896                                          !
 ! A76   A(38,41,42)           112.5952                                         !
 ! A77   A(38,41,47)           109.0557                                         !
 ! A78   A(38,41,48)           107.8447                                         !
 ! A79   A(42,41,47)           107.859                                          !
 ! A80   A(42,41,48)           111.5317                                         !
 ! A81   A(47,41,48)           107.8308                                         !
 ! A82   A(41,42,43)           116.4577                                         !
 ! A83   A(41,42,44)           121.5775                                         !
 ! A84   A(43,42,44)           121.9647                                         !
 ! A85   A(42,43,49)           118.8098                                         !
 ! A86   A(42,43,50)           122.6421                                         !
 ! A87   A(49,43,50)           118.2448                                         !
 ! A88   A(39,51,52)           124.6403                                         !
 ! A89   A(39,51,63)           116.4526                                         !
 ! A90   A(52,51,63)           117.7443                                         !
 ! A91   A(51,52,53)           105.588                                          !
 ! A92   A(51,52,55)           112.472                                          !
 ! A93   A(51,52,64)           104.5376                                         !
 ! A94   A(53,52,55)           121.2315                                         !
 ! A95   A(53,52,64)           106.752                                          !
 ! A96   A(55,52,64)           104.955                                          !
 ! A97   A(52,53,54)           120.3577                                         !
 ! A98   A(52,53,62)           114.449                                          !
 ! A99   A(54,53,62)           124.9604                                         !
 ! A100  A(52,55,56)           123.5263                                         !
 ! A101  A(52,55,65)           106.5309                                         !
 ! A102  A(52,55,66)           104.6562                                         !
 ! A103  A(56,55,65)           106.6085                                         !
 ! A104  A(56,55,66)           108.3295                                         !
 ! A105  A(65,55,66)           106.0421                                         !
 ! A106  A(55,56,57)           117.7456                                         !
 ! A107  A(55,56,67)           109.8692                                         !
 ! A108  A(55,56,68)           106.7933                                         !
 ! A109  A(57,56,67)           107.9178                                         !
 ! A110  A(57,56,68)           107.9069                                         !
 ! A111  A(67,56,68)           105.9904                                         !
 ! A112  A(56,57,58)           106.6701                                         !
 ! A113  A(56,57,69)           110.1604                                         !
 ! A114  A(56,57,70)           111.392                                          !
 ! A115  A(58,57,69)           109.6609                                         !
 ! A116  A(58,57,70)           110.957                                          !
 ! A117  A(69,57,70)           108.0038                                         !
 ! A118  A(57,58,59)           129.636                                          !
 ! A119  A(57,58,71)           113.9186                                         !
 ! A120  A(59,58,71)           114.543                                          !
 ! A121  A(58,59,60)           122.608                                          !
 ! A122  A(58,59,61)           117.8351                                         !
 ! A123  A(60,59,61)           119.5313                                         !
 ! A124  A(59,60,72)           116.3161                                         !
 ! A125  A(59,60,73)           118.833                                          !
 ! A126  A(72,60,73)           115.4201                                         !
 ! A127  A(59,61,74)           117.5285                                         !
 ! A128  A(59,61,75)           116.916                                          !
 ! A129  A(74,61,75)           117.0241                                         !
 ! D1    D(9,1,2,3)           -177.8894                                         !
 ! D2    D(9,1,2,5)             58.6338                                         !
 ! D3    D(9,1,2,10)           -61.0747                                         !
 ! D4    D(15,1,2,3)           -54.2114                                         !
 ! D5    D(15,1,2,5)          -177.6882                                         !
 ! D6    D(15,1,2,10)           62.6033                                         !
 ! D7    D(16,1,2,3)            63.7616                                         !
 ! D8    D(16,1,2,5)           -59.7152                                         !
 ! D9    D(16,1,2,10)         -179.4237                                         !
 ! D10   D(1,2,3,4)            128.7351                                         !
 ! D11   D(1,2,3,17)           -55.2517                                         !
 ! D12   D(5,2,3,4)           -108.4631                                         !
 ! D13   D(5,2,3,17)            67.5501                                         !
 ! D14   D(10,2,3,4)            11.2322                                         !
 ! D15   D(10,2,3,17)         -172.7546                                         !
 ! D16   D(1,2,5,6)            -61.9865                                         !
 ! D17   D(1,2,5,11)            58.499                                          !
 ! D18   D(1,2,5,12)           174.728                                          !
 ! D19   D(3,2,5,6)            172.0553                                         !
 ! D20   D(3,2,5,11)           -67.4592                                         !
 ! D21   D(3,2,5,12)            48.7698                                         !
 ! D22   D(10,2,5,6)            55.3879                                         !
 ! D23   D(10,2,5,11)          175.8735                                         !
 ! D24   D(10,2,5,12)          -67.8975                                         !
 ! D25   D(2,3,17,18)         -156.6213                                         !
 ! D26   D(2,3,17,28)            2.1729                                         !
 ! D27   D(4,3,17,18)           19.2233                                         !
 ! D28   D(4,3,17,28)          178.0175                                         !
 ! D29   D(2,5,6,7)           -157.8168                                         !
 ! D30   D(2,5,6,8)             23.4074                                         !
 ! D31   D(11,5,6,7)            80.8343                                         !
 ! D32   D(11,5,6,8)           -97.9415                                         !
 ! D33   D(12,5,6,7)           -35.7726                                         !
 ! D34   D(12,5,6,8)           145.4516                                         !
 ! D35   D(5,6,7,13)          -176.3734                                         !
 ! D36   D(5,6,7,14)             0.9321                                         !
 ! D37   D(8,6,7,13)             2.3856                                         !
 ! D38   D(8,6,7,14)           179.6912                                         !
 ! D39   D(3,17,18,19)        -124.2693                                         !
 ! D40   D(3,17,18,21)         110.7388                                         !
 ! D41   D(3,17,18,29)          -7.9917                                         !
 ! D42   D(28,17,18,19)         76.7155                                         !
 ! D43   D(28,17,18,21)        -48.2764                                         !
 ! D44   D(28,17,18,29)       -167.0069                                         !
 ! D45   D(17,18,19,20)       -139.1169                                         !
 ! D46   D(17,18,19,37)         42.0724                                         !
 ! D47   D(21,18,19,20)        -14.0031                                         !
 ! D48   D(21,18,19,37)        167.1863                                         !
 ! D49   D(29,18,19,20)        105.0564                                         !
 ! D50   D(29,18,19,37)        -73.7542                                         !
 ! D51   D(17,18,21,22)        -50.2145                                         !
 ! D52   D(17,18,21,30)         71.4902                                         !
 ! D53   D(17,18,21,31)       -173.7927                                         !
 ! D54   D(19,18,21,22)       -177.3606                                         !
 ! D55   D(19,18,21,30)        -55.656                                          !
 ! D56   D(19,18,21,31)         59.0611                                         !
 ! D57   D(29,18,21,22)         65.808                                          !
 ! D58   D(29,18,21,30)       -172.4874                                         !
 ! D59   D(29,18,21,31)        -57.7703                                         !
 ! D60   D(18,19,37,38)         -2.8508                                         !
 ! D61   D(18,19,37,45)       -178.2117                                         !
 ! D62   D(20,19,37,38)        178.3279                                         !
 ! D63   D(20,19,37,45)          2.9671                                         !
 ! D64   D(18,21,22,23)        -59.0384                                         !
 ! D65   D(18,21,22,24)        121.4103                                         !
 ! D66   D(30,21,22,23)        179.7019                                         !
 ! D67   D(30,21,22,24)          0.1505                                         !
 ! D68   D(31,21,22,23)         62.8547                                         !
 ! D69   D(31,21,22,24)       -116.6966                                         !
 ! D70   D(21,22,23,25)       -179.205                                          !
 ! D71   D(21,22,23,32)          0.8302                                         !
 ! D72   D(24,22,23,25)          0.3539                                         !
 ! D73   D(24,22,23,32)       -179.6109                                         !
 ! D74   D(21,22,24,26)        178.7989                                         !
 ! D75   D(21,22,24,33)         -0.8467                                         !
 ! D76   D(23,22,24,26)         -0.7647                                         !
 ! D77   D(23,22,24,33)        179.5896                                         !
 ! D78   D(22,23,25,27)          0.2614                                         !
 ! D79   D(22,23,25,34)        179.4511                                         !
 ! D80   D(32,23,25,27)       -179.7735                                         !
 ! D81   D(32,23,25,34)         -0.5838                                         !
 ! D82   D(22,24,26,27)          0.5595                                         !
 ! D83   D(22,24,26,35)       -178.6362                                         !
 ! D84   D(33,24,26,27)       -179.7947                                         !
 ! D85   D(33,24,26,35)          1.0096                                         !
 ! D86   D(23,25,27,26)         -0.4749                                         !
 ! D87   D(23,25,27,36)        177.9675                                         !
 ! D88   D(34,25,27,26)       -179.6612                                         !
 ! D89   D(34,25,27,36)         -1.2188                                         !
 ! D90   D(24,26,27,25)          0.0693                                         !
 ! D91   D(24,26,27,36)       -178.3677                                         !
 ! D92   D(35,26,27,25)        179.2595                                         !
 ! D93   D(35,26,27,36)          0.8225                                         !
 ! D94   D(19,37,38,39)        -77.886                                          !
 ! D95   D(19,37,38,41)        159.9824                                         !
 ! D96   D(19,37,38,46)         41.1235                                         !
 ! D97   D(45,37,38,39)         97.484                                          !
 ! D98   D(45,37,38,41)        -24.6476                                         !
 ! D99   D(45,37,38,46)       -143.5065                                         !
 ! D100  D(37,38,39,40)        159.3933                                         !
 ! D101  D(37,38,39,51)        -23.1004                                         !
 ! D102  D(41,38,39,40)        -77.9139                                         !
 ! D103  D(41,38,39,51)         99.5924                                         !
 ! D104  D(46,38,39,40)         37.8349                                         !
 ! D105  D(46,38,39,51)       -144.6588                                         !
 ! D106  D(37,38,41,42)         61.7003                                         !
 ! D107  D(37,38,41,47)        -57.9812                                         !
 ! D108  D(37,38,41,48)       -174.8232                                         !
 ! D109  D(39,38,41,42)        -63.8007                                         !
 ! D110  D(39,38,41,47)        176.5178                                         !
 ! D111  D(39,38,41,48)         59.6758                                         !
 ! D112  D(46,38,41,42)       -178.0491                                         !
 ! D113  D(46,38,41,47)         62.2694                                         !
 ! D114  D(46,38,41,48)        -54.5726                                         !
 ! D115  D(38,39,51,52)        170.5454                                         !
 ! D116  D(38,39,51,63)          3.1893                                         !
 ! D117  D(40,39,51,52)        -12.1162                                         !
 ! D118  D(40,39,51,63)       -179.4723                                         !
 ! D119  D(38,41,42,43)        136.2167                                         !
 ! D120  D(38,41,42,44)        -43.9003                                         !
 ! D121  D(47,41,42,43)       -103.4108                                         !
 ! D122  D(47,41,42,44)         76.4723                                         !
 ! D123  D(48,41,42,43)         14.8164                                         !
 ! D124  D(48,41,42,44)       -165.3005                                         !
 ! D125  D(41,42,43,49)        174.966                                          !
 ! D126  D(41,42,43,50)          1.4065                                         !
 ! D127  D(44,42,43,49)         -4.9165                                         !
 ! D128  D(44,42,43,50)       -178.4761                                         !
 ! D129  D(39,51,52,53)       -106.9784                                         !
 ! D130  D(39,51,52,55)        118.7607                                         !
 ! D131  D(39,51,52,64)          5.4469                                         !
 ! D132  D(63,51,52,53)         60.2285                                         !
 ! D133  D(63,51,52,55)        -74.0324                                         !
 ! D134  D(63,51,52,64)        172.6537                                         !
 ! D135  D(51,52,53,54)        -99.393                                          !
 ! D136  D(51,52,53,62)         75.3327                                         !
 ! D137  D(55,52,53,54)         29.8971                                         !
 ! D138  D(55,52,53,62)       -155.3772                                         !
 ! D139  D(64,52,53,54)        149.7446                                         !
 ! D140  D(64,52,53,62)        -35.5297                                         !
 ! D141  D(51,52,55,56)         72.098                                          !
 ! D142  D(51,52,55,65)       -164.2395                                         !
 ! D143  D(51,52,55,66)        -52.1796                                         !
 ! D144  D(53,52,55,56)        -54.1233                                         !
 ! D145  D(53,52,55,65)         69.5393                                         !
 ! D146  D(53,52,55,66)       -178.4008                                         !
 ! D147  D(64,52,55,56)       -174.8447                                         !
 ! D148  D(64,52,55,65)        -51.1821                                         !
 ! D149  D(64,52,55,66)         60.8777                                         !
 ! D150  D(52,55,56,57)        -46.1408                                         !
 ! D151  D(52,55,56,67)         77.8959                                         !
 ! D152  D(52,55,56,68)       -167.5832                                         !
 ! D153  D(65,55,56,57)       -169.7686                                         !
 ! D154  D(65,55,56,67)        -45.7319                                         !
 ! D155  D(65,55,56,68)         68.7889                                         !
 ! D156  D(66,55,56,57)         76.4904                                         !
 ! D157  D(66,55,56,67)       -159.4729                                         !
 ! D158  D(66,55,56,68)        -44.9521                                         !
 ! D159  D(55,56,57,58)         76.8504                                         !
 ! D160  D(55,56,57,69)       -164.1977                                         !
 ! D161  D(55,56,57,70)        -44.3671                                         !
 ! D162  D(67,56,57,58)        -48.1574                                         !
 ! D163  D(67,56,57,69)         70.7946                                         !
 ! D164  D(67,56,57,70)       -169.3748                                         !
 ! D165  D(68,56,57,58)       -162.2827                                         !
 ! D166  D(68,56,57,69)        -43.3308                                         !
 ! D167  D(68,56,57,70)         76.4999                                         !
 ! D168  D(56,57,58,59)       -159.1707                                         !
 ! D169  D(56,57,58,71)          4.0513                                         !
 ! D170  D(69,57,58,59)         81.5525                                         !
 ! D171  D(69,57,58,71)       -115.2255                                         !
 ! D172  D(70,57,58,59)        -37.6767                                         !
 ! D173  D(70,57,58,71)        125.5453                                         !
 ! D174  D(57,58,59,60)         -6.237                                          !
 ! D175  D(57,58,59,61)        175.6127                                         !
 ! D176  D(71,58,59,60)       -169.374                                          !
 ! D177  D(71,58,59,61)         12.4757                                         !
 ! D178  D(58,59,60,72)        163.6355                                         !
 ! D179  D(58,59,60,73)         18.6586                                         !
 ! D180  D(61,59,60,72)        -18.2444                                         !
 ! D181  D(61,59,60,73)       -163.2213                                         !
 ! D182  D(58,59,61,74)       -157.3262                                         !
 ! D183  D(58,59,61,75)        -10.2675                                         !
 ! D184  D(60,59,61,74)         24.4647                                         !
 ! D185  D(60,59,61,75)        171.5233                                         !
 --------------------------------------------------------------------------------
 Symmetry turned off by external request.
 Stoichiometry    C23H36N9O7(1+)
 Framework group  C1[X(C23H36N9O7)]
 Deg. of freedom   219
 Full point group                 C1      NOp   1
                          Input orientation:                          
 ---------------------------------------------------------------------
 Center     Atomic      Atomic             Coordinates (Angstroms)
 Number     Number       Type             X           Y           Z
 ---------------------------------------------------------------------
      1          7           0       -9.558704   -3.373239   -7.806052
      2          6           0       -9.235990   -3.314467   -6.341499
      3          6           0       -8.524569   -2.023901   -5.901845
      4          8           0       -8.965744   -1.387313   -4.953114
      5          6           0       -8.386045   -4.535118   -5.973149
      6          6           0       -9.133550   -5.843775   -6.212099
      7          7           0       -8.677958   -6.898947   -5.506199
      8          8           0      -10.070222   -5.922637   -7.013722
      9          1           0      -10.060684   -4.271278   -7.939563
     10          1           0      -10.185427   -3.328606   -5.804405
     11          1           0       -7.469219   -4.545924   -6.573999
     12          1           0       -8.071110   -4.446282   -4.930029
     13          1           0       -9.093882   -7.808130   -5.659749
     14          1           0       -7.906554   -6.811691   -4.858781
     15          1           0      -10.099549   -2.545800   -8.102176
     16          1           0       -8.660680   -3.372279   -8.385099
     17          7           0       -7.370030   -1.695095   -6.553506
     18          6           0       -6.394336   -0.828737   -5.900622
     19          6           0       -6.027978    0.426624   -6.709141
     20          8           0       -4.853001    0.816653   -6.761744
     21          6           0       -5.119399   -1.624471   -5.539033
     22          6           0       -5.406408   -2.912233   -4.794009
     23          6           0       -6.088412   -2.907755   -3.567424
     24          6           0       -4.983076   -4.139692   -5.318483
     25          6           0       -6.332706   -4.098480   -2.882114
     26          6           0       -5.217322   -5.335151   -4.632585
     27          6           0       -5.893106   -5.318045   -3.410344
     28          1           0       -7.045296   -2.291551   -7.320001
     29          1           0       -6.883820   -0.473227   -4.986508
     30          1           0       -4.576886   -1.853030   -6.463697
     31          1           0       -4.464678   -0.969340   -4.955756
     32          1           0       -6.433176   -1.969065   -3.141722
     33          1           0       -4.459053   -4.163210   -6.271072
     34          1           0       -6.854361   -4.073617   -1.929631
     35          1           0       -4.859698   -6.273042   -5.049038
     36          1           0       -6.055570   -6.240709   -2.858569
     37          7           0       -6.995612    1.131528   -7.352635
     38          6           0       -8.428954    0.898916   -7.490059
     39          6           0       -8.800881   -0.177835   -8.530506
     40          8           0       -9.909734   -0.720395   -8.459014
     41          6           0       -9.134246    2.219911   -7.874861
     42          6           0       -8.653920    2.773153   -9.218121
     43          7           0       -9.605745    3.232162  -10.052847
     44          8           0       -7.450760    2.797787   -9.517425
     45          1           0       -6.651846    1.927275   -7.882548
     46          1           0       -8.849933    0.553812   -6.542598
     47          1           0       -8.925699    2.974075   -7.106615
     48          1           0      -10.211885    2.035450   -7.879104
     49          1           0       -9.323427    3.676228  -10.917489
     50          1           0      -10.586113    3.237698   -9.810660
     51          7           0       -7.887492   -0.414955   -9.491697
     52          6           0       -7.954345   -1.525045  -10.451606
     53          6           0       -6.850218   -2.543572   -9.996166
     54          8           0       -5.738289   -2.566539  -10.566260
     55          6           0       -8.038779   -1.035969  -11.915607
     56          6           0       -6.850959   -0.399971  -12.673090
     57          6           0       -6.035495    0.681486  -11.946491
     58          7           0       -5.168575   -0.014963  -10.994596
     59          6           0       -4.566464    0.444610   -9.904849
     60          7           0       -4.582096    1.746598   -9.561563
     61          7           0       -3.885096   -0.437057   -9.141428
     62          8           0       -7.157205   -3.228818   -8.966178
     63          1           0       -7.018863    0.094101   -9.421862
     64          1           0       -8.918971   -1.998412  -10.256534
     65          1           0       -8.367808   -1.894718  -12.512977
     66          1           0       -8.874091   -0.323522  -11.922742
     67          1           0       -6.156955   -1.181899  -13.001318
     68          1           0       -7.259779    0.043855  -13.587349
     69          1           0       -5.422383    1.238545  -12.664478
     70          1           0       -6.689045    1.397170  -11.431343
     71          1           0       -5.227891   -1.049517  -11.050488
     72          1           0       -4.325205    1.962650   -8.602807
     73          1           0       -5.284825    2.351313   -9.970356
     74          1           0       -3.730600   -0.193609   -8.167815
     75          1           0       -4.006566   -1.422089   -9.357143
 ---------------------------------------------------------------------
 Rotational constants (GHZ):           0.1513754           0.0727768           0.0694138
 Standard basis: 6-31G(d) (6D, 7F)
   657 basis functions,  1236 primitive gaussians,   657 cartesian basis functions
   146 alpha electrons      146 beta electrons
       nuclear repulsion energy      5212.5554487507 Hartrees.
 NAtoms=   75 NActive=   75 NUniq=   75 SFac= 1.00D+00 NAtFMM=   60 NAOKFM=T Big=T
 Integral buffers will be    131072 words long.
 Raffenetti 2 integral format.
 Two-electron integral symmetry is turned off.
 Nuclear repulsion after empirical dispersion term =     5212.4263711806 Hartrees.
 One-electron integrals computed using PRISM.
 NBasis=   657 RedAO= T EigKep=  4.64D-04  NBF=   657
 NBsUse=   657 1.00D-06 EigRej= -1.00D+00 NBFU=   657
 Initial guess from the checkpoint file:  "conf-879.chk"
 B after Tr=     0.000000    0.000000    0.000000
         Rot=    1.000000    0.000000    0.000000    0.000000 Ang=   0.00 deg.
 Requested convergence on RMS density matrix=1.00D-08 within 128 cycles.
 Requested convergence on MAX density matrix=1.00D-06.
 Requested convergence on             energy=1.00D-06.
 No special actions if energy rises.
 SCF Done:  E(RB3LYP) =  -1917.54202114     A.U. after    3 cycles
            NFock=  3  Conv=0.92D-09     -V/T= 2.0093

 **********************************************************************

            Population analysis using the SCF Density.

 **********************************************************************

 Alpha  occ. eigenvalues --  -19.25028 -19.24028 -19.23849 -19.23025 -19.22467
 Alpha  occ. eigenvalues --  -19.21420 -19.21168 -14.51498 -14.48834 -14.48335
 Alpha  occ. eigenvalues --  -14.48127 -14.47933 -14.47666 -14.47606 -14.46777
 Alpha  occ. eigenvalues --  -14.46080 -10.44580 -10.42630 -10.41331 -10.40975
 Alpha  occ. eigenvalues --  -10.40295 -10.40040 -10.39358 -10.36109 -10.36108
 Alpha  occ. eigenvalues --  -10.34711 -10.33749 -10.33738 -10.32768 -10.30819
 Alpha  occ. eigenvalues --  -10.29534 -10.29446 -10.29402 -10.29399 -10.28458
 Alpha  occ. eigenvalues --  -10.28398 -10.28345 -10.28259 -10.28229  -1.16680
 Alpha  occ. eigenvalues --   -1.15998  -1.15533  -1.14990  -1.14522  -1.14067
 Alpha  occ. eigenvalues --   -1.13304  -1.07842  -1.05831  -1.05439  -1.03901
 Alpha  occ. eigenvalues --   -1.03587  -1.03164  -1.02625  -1.01368  -1.01047
 Alpha  occ. eigenvalues --   -0.95007  -0.91080  -0.90178  -0.89812  -0.88246
 Alpha  occ. eigenvalues --   -0.85480  -0.83941  -0.83672  -0.80633  -0.79061
 Alpha  occ. eigenvalues --   -0.78383  -0.76606  -0.74812  -0.72509  -0.71426
 Alpha  occ. eigenvalues --   -0.71146  -0.70599  -0.70445  -0.69769  -0.69513
 Alpha  occ. eigenvalues --   -0.69111  -0.68732  -0.67275  -0.66854  -0.66689
 Alpha  occ. eigenvalues --   -0.66268  -0.65441  -0.63861  -0.63484  -0.62704
 Alpha  occ. eigenvalues --   -0.61858  -0.61364  -0.61025  -0.60384  -0.60003
 Alpha  occ. eigenvalues --   -0.58922  -0.58867  -0.58421  -0.58039  -0.57653
 Alpha  occ. eigenvalues --   -0.56573  -0.56485  -0.56369  -0.55407  -0.55009
 Alpha  occ. eigenvalues --   -0.54854  -0.54456  -0.54278  -0.54016  -0.53214
 Alpha  occ. eigenvalues --   -0.53009  -0.52498  -0.52296  -0.52070  -0.51480
 Alpha  occ. eigenvalues --   -0.51292  -0.51061  -0.50673  -0.50632  -0.49832
 Alpha  occ. eigenvalues --   -0.49731  -0.49387  -0.49084  -0.48545  -0.48375
 Alpha  occ. eigenvalues --   -0.47846  -0.46741  -0.46576  -0.45503  -0.44914
 Alpha  occ. eigenvalues --   -0.44602  -0.44466  -0.43398  -0.43113  -0.40934
 Alpha  occ. eigenvalues --   -0.40096  -0.39816  -0.39103  -0.38947  -0.38781
 Alpha  occ. eigenvalues --   -0.37713  -0.37400  -0.37275  -0.36906  -0.36282
 Alpha  occ. eigenvalues --   -0.36223  -0.35740  -0.35322  -0.34403  -0.34355
 Alpha  occ. eigenvalues --   -0.33937
 Alpha virt. eigenvalues --   -0.11454  -0.10951  -0.10828  -0.10124  -0.09841
 Alpha virt. eigenvalues --   -0.09627  -0.09362  -0.07474  -0.06815  -0.04441
 Alpha virt. eigenvalues --   -0.03311  -0.01854  -0.01567  -0.00896  -0.00270
 Alpha virt. eigenvalues --    0.00223   0.01104   0.01210   0.01707   0.02290
 Alpha virt. eigenvalues --    0.02475   0.02944   0.03124   0.03274   0.03674
 Alpha virt. eigenvalues --    0.04115   0.04263   0.04650   0.05085   0.05305
 Alpha virt. eigenvalues --    0.05535   0.05891   0.06135   0.06438   0.07026
 Alpha virt. eigenvalues --    0.07057   0.07201   0.07569   0.07942   0.08120
 Alpha virt. eigenvalues --    0.08471   0.08726   0.08864   0.09554   0.09773
 Alpha virt. eigenvalues --    0.09942   0.10264   0.10598   0.11270   0.11571
 Alpha virt. eigenvalues --    0.12031   0.12355   0.12775   0.13380   0.13889
 Alpha virt. eigenvalues --    0.14470   0.14759   0.15062   0.15743   0.16450
 Alpha virt. eigenvalues --    0.17039   0.17632   0.17923   0.18582   0.19476
 Alpha virt. eigenvalues --    0.21337   0.21754   0.22854   0.23007   0.23298
 Alpha virt. eigenvalues --    0.24168   0.24375   0.25330   0.25904   0.26807
 Alpha virt. eigenvalues --    0.27403   0.27972   0.29195   0.29508   0.31591
 Alpha virt. eigenvalues --    0.31666   0.31955   0.33189   0.36005   0.36692
 Alpha virt. eigenvalues --    0.37403   0.38080   0.39075   0.39564   0.40077
 Alpha virt. eigenvalues --    0.40592   0.41267   0.41790   0.42861   0.43345
 Alpha virt. eigenvalues --    0.43784   0.43809   0.44565   0.45239   0.45693
 Alpha virt. eigenvalues --    0.46202   0.46442   0.46776   0.47085   0.47146
 Alpha virt. eigenvalues --    0.47424   0.48139   0.48467   0.48838   0.49371
 Alpha virt. eigenvalues --    0.49831   0.50396   0.50957   0.51318   0.51776
 Alpha virt. eigenvalues --    0.51968   0.52346   0.52568   0.53071   0.53203
 Alpha virt. eigenvalues --    0.53454   0.54327   0.54356   0.54756   0.54884
 Alpha virt. eigenvalues --    0.55432   0.55492   0.56178   0.56421   0.56499
 Alpha virt. eigenvalues --    0.56973   0.57705   0.57910   0.58353   0.58977
 Alpha virt. eigenvalues --    0.59470   0.60177   0.60820   0.61277   0.61807
 Alpha virt. eigenvalues --    0.62240   0.62481   0.63111   0.63962   0.64361
 Alpha virt. eigenvalues --    0.64815   0.65395   0.66685   0.67208   0.67629
 Alpha virt. eigenvalues --    0.68780   0.69196   0.69820   0.70522   0.70966
 Alpha virt. eigenvalues --    0.71554   0.72249   0.72764   0.73174   0.73457
 Alpha virt. eigenvalues --    0.73834   0.74208   0.74496   0.74669   0.74832
 Alpha virt. eigenvalues --    0.75542   0.75796   0.76015   0.76345   0.76489
 Alpha virt. eigenvalues --    0.76834   0.77139   0.77203   0.77785   0.78060
 Alpha virt. eigenvalues --    0.78635   0.78929   0.79143   0.79688   0.80136
 Alpha virt. eigenvalues --    0.81036   0.81506   0.81852   0.82309   0.82570
 Alpha virt. eigenvalues --    0.82870   0.83351   0.83796   0.84000   0.84520
 Alpha virt. eigenvalues --    0.84782   0.85146   0.85935   0.86068   0.86475
 Alpha virt. eigenvalues --    0.87266   0.87612   0.88591   0.89142   0.89637
 Alpha virt. eigenvalues --    0.90530   0.90768   0.92178   0.92894   0.93427
 Alpha virt. eigenvalues --    0.93956   0.94468   0.94842   0.95632   0.96435
 Alpha virt. eigenvalues --    0.96886   0.97729   0.98322   0.99683   1.00031
 Alpha virt. eigenvalues --    1.00980   1.01674   1.01715   1.01981   1.03206
 Alpha virt. eigenvalues --    1.04535   1.04926   1.05157   1.06161   1.06568
 Alpha virt. eigenvalues --    1.07031   1.07248   1.08667   1.09048   1.09674
 Alpha virt. eigenvalues --    1.10525   1.11093   1.11651   1.12880   1.13471
 Alpha virt. eigenvalues --    1.13736   1.14022   1.15348   1.15633   1.16972
 Alpha virt. eigenvalues --    1.17329   1.18283   1.18971   1.19074   1.19715
 Alpha virt. eigenvalues --    1.20966   1.22308   1.22530   1.23790   1.24411
 Alpha virt. eigenvalues --    1.25094   1.25639   1.25913   1.26939   1.27718
 Alpha virt. eigenvalues --    1.28827   1.29226   1.30570   1.30844   1.31226
 Alpha virt. eigenvalues --    1.31853   1.33098   1.33923   1.34309   1.34921
 Alpha virt. eigenvalues --    1.35631   1.35716   1.36562   1.37591   1.38526
 Alpha virt. eigenvalues --    1.38762   1.39136   1.39704   1.40632   1.40991
 Alpha virt. eigenvalues --    1.41298   1.42720   1.43138   1.43950   1.45365
 Alpha virt. eigenvalues --    1.47712   1.48436   1.48963   1.49103   1.50463
 Alpha virt. eigenvalues --    1.52251   1.53274   1.54447   1.54668   1.55741
 Alpha virt. eigenvalues --    1.56665   1.56937   1.57396   1.57923   1.60417
 Alpha virt. eigenvalues --    1.60612   1.61412   1.62009   1.62623   1.63518
 Alpha virt. eigenvalues --    1.63691   1.63935   1.64876   1.65557   1.65840
 Alpha virt. eigenvalues --    1.66551   1.68250   1.68788   1.69116   1.69408
 Alpha virt. eigenvalues --    1.70345   1.70735   1.70762   1.71449   1.71662
 Alpha virt. eigenvalues --    1.72267   1.72990   1.73608   1.74151   1.74629
 Alpha virt. eigenvalues --    1.75084   1.75974   1.76372   1.76999   1.77667
 Alpha virt. eigenvalues --    1.78094   1.78840   1.78866   1.79297   1.79523
 Alpha virt. eigenvalues --    1.80473   1.80815   1.81854   1.81984   1.82454
 Alpha virt. eigenvalues --    1.83241   1.83677   1.83779   1.84725   1.85104
 Alpha virt. eigenvalues --    1.86171   1.86436   1.86720   1.87590   1.88871
 Alpha virt. eigenvalues --    1.89115   1.89387   1.90254   1.90677   1.90786
 Alpha virt. eigenvalues --    1.92090   1.92776   1.93042   1.94157   1.94891
 Alpha virt. eigenvalues --    1.95416   1.96619   1.96865   1.97733   1.98763
 Alpha virt. eigenvalues --    1.99500   1.99809   2.01158   2.01411   2.01522
 Alpha virt. eigenvalues --    2.02317   2.03434   2.03775   2.04621   2.05172
 Alpha virt. eigenvalues --    2.05535   2.06468   2.07310   2.08254   2.09607
 Alpha virt. eigenvalues --    2.09914   2.10975   2.11671   2.12630   2.13672
 Alpha virt. eigenvalues --    2.14151   2.14748   2.15709   2.16613   2.17277
 Alpha virt. eigenvalues --    2.18189   2.19162   2.19532   2.20040   2.20566
 Alpha virt. eigenvalues --    2.21210   2.22440   2.23060   2.23200   2.24776
 Alpha virt. eigenvalues --    2.25663   2.26028   2.27845   2.28330   2.28857
 Alpha virt. eigenvalues --    2.29543   2.30642   2.30872   2.31712   2.33205
 Alpha virt. eigenvalues --    2.34518   2.35381   2.36143   2.37300   2.38021
 Alpha virt. eigenvalues --    2.39587   2.40223   2.41000   2.41992   2.42864
 Alpha virt. eigenvalues --    2.44283   2.44962   2.45881   2.46843   2.47337
 Alpha virt. eigenvalues --    2.48679   2.49570   2.49823   2.50480   2.51385
 Alpha virt. eigenvalues --    2.51644   2.52004   2.53109   2.53773   2.54561
 Alpha virt. eigenvalues --    2.54904   2.55608   2.55902   2.56702   2.58143
 Alpha virt. eigenvalues --    2.58611   2.59620   2.61447   2.62980   2.63332
 Alpha virt. eigenvalues --    2.64840   2.65481   2.66184   2.66534   2.67264
 Alpha virt. eigenvalues --    2.67631   2.69798   2.72215   2.72714   2.76576
 Alpha virt. eigenvalues --    2.77768   2.81006   2.83224   2.84324   2.88344
 Alpha virt. eigenvalues --    2.88798   2.89579   2.89905   2.90632   2.91246
 Alpha virt. eigenvalues --    2.91762   2.93336   2.94097   2.96401   2.98342
 Alpha virt. eigenvalues --    2.98867   3.01706   3.03307   3.03959   3.04952
 Alpha virt. eigenvalues --    3.09963   3.31396   3.68113   3.72662   3.73724
 Alpha virt. eigenvalues --    3.80572   3.82208   3.87632   3.91502   3.96129
 Alpha virt. eigenvalues --    3.96470   3.97501   4.00682   4.01996   4.05067
 Alpha virt. eigenvalues --    4.06894   4.08295   4.09868   4.10301   4.13292
 Alpha virt. eigenvalues --    4.14721   4.16456   4.19756   4.21936   4.23526
 Alpha virt. eigenvalues --    4.26335   4.28812   4.30881   4.33746   4.35743
 Alpha virt. eigenvalues --    4.38039   4.40225   4.42519   4.44796   4.45678
 Alpha virt. eigenvalues --    4.50824   4.54756   4.58490   4.62070   4.64874
 Alpha virt. eigenvalues --    4.67292
          Condensed to atoms (all electrons):
 Mulliken charges:
               1
     1  N   -0.814544
     2  C   -0.109372
     3  C    0.628517
     4  O   -0.510963
     5  C   -0.416720
     6  C    0.637516
     7  N   -0.742347
     8  O   -0.534131
     9  H    0.418147
    10  H    0.217284
    11  H    0.220166
    12  H    0.211170
    13  H    0.365702
    14  H    0.357789
    15  H    0.427584
    16  H    0.431706
    17  N   -0.652742
    18  C   -0.085134
    19  C    0.633911
    20  O   -0.556994
    21  C   -0.359860
    22  C    0.174419
    23  C   -0.180097
    24  C   -0.198454
    25  C   -0.137777
    26  C   -0.135824
    27  C   -0.160091
    28  H    0.386449
    29  H    0.222576
    30  H    0.140221
    31  H    0.197852
    32  H    0.151698
    33  H    0.145739
    34  H    0.158637
    35  H    0.153182
    36  H    0.150597
    37  N   -0.639623
    38  C   -0.056514
    39  C    0.643954
    40  O   -0.583637
    41  C   -0.395439
    42  C    0.619935
    43  N   -0.724877
    44  O   -0.557892
    45  H    0.367060
    46  H    0.221461
    47  H    0.216669
    48  H    0.196008
    49  H    0.365905
    50  H    0.368851
    51  N   -0.610556
    52  C   -0.075801
    53  C    0.604826
    54  O   -0.554398
    55  C   -0.267478
    56  C   -0.316677
    57  C   -0.159625
    58  N   -0.630028
    59  C    0.718180
    60  N   -0.753508
    61  N   -0.769498
    62  O   -0.599214
    63  H    0.366276
    64  H    0.164809
    65  H    0.172638
    66  H    0.152491
    67  H    0.185263
    68  H    0.170429
    69  H    0.188076
    70  H    0.175646
    71  H    0.418237
    72  H    0.377962
    73  H    0.392624
    74  H    0.392267
    75  H    0.379389
 Sum of Mulliken charges =   1.00000
 Mulliken charges with hydrogens summed into heavy atoms:
               1
     1  N    0.462892
     2  C    0.107912
     3  C    0.628517
     4  O   -0.510963
     5  C    0.014615
     6  C    0.637516
     7  N   -0.018856
     8  O   -0.534131
    17  N   -0.266293
    18  C    0.137442
    19  C    0.633911
    20  O   -0.556994
    21  C   -0.021787
    22  C    0.174419
    23  C   -0.028398
    24  C   -0.052715
    25  C    0.020860
    26  C    0.017359
    27  C   -0.009494
    37  N   -0.272562
    38  C    0.164947
    39  C    0.643954
    40  O   -0.583637
    41  C    0.017238
    42  C    0.619935
    43  N    0.009879
    44  O   -0.557892
    51  N   -0.244281
    52  C    0.089008
    53  C    0.604826
    54  O   -0.554398
    55  C    0.057651
    56  C    0.039015
    57  C    0.204097
    58  N   -0.211792
    59  C    0.718180
    60  N    0.017077
    61  N    0.002157
    62  O   -0.599214
 Electronic spatial extent (au):  <R**2>=         136621.3436
 Charge=              1.0000 electrons
 Dipole moment (field-independent basis, Debye):
    X=            -37.2361    Y=             -3.1993    Z=            -39.5466  Tot=             54.4123
 Quadrupole moment (field-independent basis, Debye-Ang):
   XX=             78.5466   YY=           -147.0419   ZZ=            144.3034
   XY=             14.6001   XZ=            314.6139   YZ=            -22.3943
 Traceless Quadrupole moment (field-independent basis, Debye-Ang):
   XX=             53.2772   YY=           -172.3112   ZZ=            119.0340
   XY=             14.6001   XZ=            314.6139   YZ=            -22.3943
 Octapole moment (field-independent basis, Debye-Ang**2):
  XXX=           2261.3373  YYY=            628.8385  ZZZ=           1450.7997  XYY=            979.1121
  XXY=            338.7455  XXZ=           -915.3339  XZZ=          -1369.2481  YZZ=            812.6078
  YYZ=           1330.3875  XYZ=            245.6189
 Hexadecapole moment (field-independent basis, Debye-Ang**3):
 XXXX=         -51124.6124 YYYY=          -8764.5688 ZZZZ=         -48367.3559 XXXY=          -8794.7878
 XXXZ=         -14093.2216 YYYX=          -4717.3487 YYYZ=          -4222.8938 ZZZX=          -6934.9421
 ZZZY=         -11488.3876 XXYY=          -9121.7660 XXZZ=          -1685.5180 YYZZ=         -14482.5225
 XXYZ=          -4613.1619 YYXZ=          -8935.0927 ZZXY=          -6688.0453
 N-N= 5.212426371181D+03 E-N=-1.486388632936D+04  KE= 1.899816385177D+03
 Unable to Open any file for archive entry.
 1\1\GINC-AMR-243\SP\RB3LYP\6-31G(d)\C23H36N9O7(1+)\KENGMITH\03-Jun-202
 2\0\\# B3LYP/6-31G* empiricaldispersion=gd3 guess=read geom=check nosy
 mm integral(ultrafinegrid)\\Candidate Structure: Conf:879 Charge calc 
 in gas phase\\1,1\N,0,-9.5587042368,-3.3732393838,-7.8060519231\C,0,-9
 .2359895234,-3.3144672732,-6.3414989842\C,0,-8.5245689288,-2.023900536
 9,-5.9018449485\O,0,-8.9657443889,-1.3873129594,-4.9531141208\C,0,-8.3
 860446497,-4.5351178596,-5.9731494526\C,0,-9.1335504784,-5.8437746812,
 -6.2120992961\N,0,-8.6779575757,-6.8989465472,-5.5061991\O,0,-10.07022
 17192,-5.9226367414,-7.0137218474\H,0,-10.060684221,-4.2712782613,-7.9
 395631094\H,0,-10.1854266029,-3.3286062429,-5.8044053108\H,0,-7.469218
 9648,-4.5459242047,-6.5739990388\H,0,-8.0711103944,-4.4462821363,-4.93
 00290316\H,0,-9.0938817634,-7.8081301379,-5.6597492576\H,0,-7.90655407
 69,-6.8116913839,-4.8587810207\H,0,-10.0995493869,-2.5457997679,-8.102
 1757174\H,0,-8.6606800183,-3.3722794962,-8.3850990718\N,0,-7.370030200
 5,-1.6950953247,-6.5535060938\C,0,-6.3943362479,-0.8287365018,-5.90062
 16327\C,0,-6.027977776,0.4266244188,-6.7091414914\O,0,-4.8530007075,0.
 8166529752,-6.7617437443\C,0,-5.1193991925,-1.6244713863,-5.53903255\C
 ,0,-5.4064077384,-2.9122333179,-4.7940093953\C,0,-6.0884122022,-2.9077
 551896,-3.5674237515\C,0,-4.9830764082,-4.1396922493,-5.3184827192\C,0
 ,-6.3327055194,-4.0984797188,-2.882114238\C,0,-5.2173215975,-5.3351511
 443,-4.6325851914\C,0,-5.8931057726,-5.3180445894,-3.4103438836\H,0,-7
 .0452961905,-2.291550986,-7.3200006237\H,0,-6.8838196109,-0.4732266446
 ,-4.9865083886\H,0,-4.5768861385,-1.853030036,-6.4636974812\H,0,-4.464
 6779233,-0.9693403207,-4.9557560377\H,0,-6.4331761188,-1.9690649936,-3
 .1417222965\H,0,-4.459053497,-4.1632102655,-6.2710715162\H,0,-6.854360
 5636,-4.0736168853,-1.9296313665\H,0,-4.8596975295,-6.2730417943,-5.04
 90381821\H,0,-6.0555701467,-6.2407091074,-2.858568855\N,0,-6.995612474
 ,1.1315280501,-7.3526353305\C,0,-8.4289535241,0.8989159643,-7.49005866
 65\C,0,-8.8008805756,-0.177834704,-8.5305063171\O,0,-9.9097339946,-0.7
 203952389,-8.4590136381\C,0,-9.1342457851,2.219911376,-7.8748608107\C,
 0,-8.6539201829,2.7731530752,-9.2181209664\N,0,-9.6057454458,3.2321617
 349,-10.0528474733\O,0,-7.4507602085,2.7977872838,-9.5174252048\H,0,-6
 .6518461121,1.9272751134,-7.882547893\H,0,-8.8499332851,0.553811574,-6
 .5425975288\H,0,-8.9256994755,2.9740754947,-7.1066146211\H,0,-10.21188
 50486,2.035449872,-7.8791044881\H,0,-9.3234266921,3.6762277804,-10.917
 48929\H,0,-10.5861125663,3.2376976262,-9.8106604906\N,0,-7.8874924684,
 -0.4149554733,-9.4916967168\C,0,-7.954345321,-1.5250454756,-10.4516055
 811\C,0,-6.8502180354,-2.5435718139,-9.996165709\O,0,-5.7382890657,-2.
 5665387001,-10.5662596388\C,0,-8.0387793265,-1.0359692762,-11.91560691
 8\C,0,-6.8509590945,-0.3999706948,-12.6730902081\C,0,-6.0354953705,0.6
 814861273,-11.9464913886\N,0,-5.1685747819,-0.0149629447,-10.994596458
 4\C,0,-4.5664644621,0.4446100834,-9.9048485229\N,0,-4.5820960886,1.746
 5977461,-9.5615628095\N,0,-3.8850956202,-0.4370572708,-9.141427584\O,0
 ,-7.1572054111,-3.2288183432,-8.966178357\H,0,-7.0188628652,0.09410103
 75,-9.4218620194\H,0,-8.9189707269,-1.9984118773,-10.2565340458\H,0,-8
 .3678078498,-1.8947184935,-12.5129765388\H,0,-8.8740912988,-0.32352199
 37,-11.9227420105\H,0,-6.1569547574,-1.181898658,-13.0013183389\H,0,-7
 .259778731,0.0438552404,-13.5873486318\H,0,-5.4223834289,1.2385448504,
 -12.6644780586\H,0,-6.689044983,1.3971702404,-11.4313432721\H,0,-5.227
 8906421,-1.0495172629,-11.0504883861\H,0,-4.3252049582,1.9626498974,-8
 .6028073431\H,0,-5.284825384,2.3513125493,-9.9703560831\H,0,-3.7305995
 547,-0.1936090957,-8.1678153349\H,0,-4.0065657732,-1.4220894749,-9.357
 143166\\Version=ES64L-G16RevC.01\HF=-1917.5420211\RMSD=9.160e-10\Dipol
 e=-1.0371303,1.4983787,-0.8825321\Quadrupole=39.610313,-128.1091773,88
 .4988643,10.8548363,233.9077506,-16.6496213\PG=C01 [X(C23H36N9O7)]\\@
 The archive entry for this job was punched.


 There ain't no surer way to find out whether you
 like people or hate them than to travel with them.
                                     -- Mark Twain
 Job cpu time:       0 days  0 hours  4 minutes 49.8 seconds.
 Elapsed time:       0 days  0 hours  1 minutes 13.2 seconds.
 File lengths (MBytes):  RWF=    344 Int=      0 D2E=      0 Chk=     48 Scr=     16
 Normal termination of Gaussian 16 at Fri Jun  3 06:01:15 2022.
