 Entering Gaussian System, Link 0=/opt/software/Gaussian/g16-AVX2-C.01/g16/g16
 Input=charge-conf-962.com
 Output=charge-conf-962.log
 Initial command:
 /opt/software/Gaussian/g16-AVX2-C.01/g16/l1.exe "/mnt/gs18/scratch/users/kengmith/Gau-28453.inp" -scrdir="/mnt/gs18/scratch/users/kengmith/"
 Entering Link 1 = /opt/software/Gaussian/g16-AVX2-C.01/g16/l1.exe PID=     28463.
  
 Copyright (c) 1988-2019, Gaussian, Inc.  All Rights Reserved.
  
 This is part of the Gaussian(R) 16 program.  It is based on
 the Gaussian(R) 09 system (copyright 2009, Gaussian, Inc.),
 the Gaussian(R) 03 system (copyright 2003, Gaussian, Inc.),
 the Gaussian(R) 98 system (copyright 1998, Gaussian, Inc.),
 the Gaussian(R) 94 system (copyright 1995, Gaussian, Inc.),
 the Gaussian 92(TM) system (copyright 1992, Gaussian, Inc.),
 the Gaussian 90(TM) system (copyright 1990, Gaussian, Inc.),
 the Gaussian 88(TM) system (copyright 1988, Gaussian, Inc.),
 the Gaussian 86(TM) system (copyright 1986, Carnegie Mellon
 University), and the Gaussian 82(TM) system (copyright 1983,
 Carnegie Mellon University). Gaussian is a federally registered
 trademark of Gaussian, Inc.
  
 This software contains proprietary and confidential information,
 including trade secrets, belonging to Gaussian, Inc.
  
 This software is provided under written license and may be
 used, copied, transmitted, or stored only in accord with that
 written license.
  
 The following legend is applicable only to US Government
 contracts under FAR:
  
                    RESTRICTED RIGHTS LEGEND
  
 Use, reproduction and disclosure by the US Government is
 subject to restrictions as set forth in subparagraphs (a)
 and (c) of the Commercial Computer Software - Restricted
 Rights clause in FAR 52.227-19.
  
 Gaussian, Inc.
 340 Quinnipiac St., Bldg. 40, Wallingford CT 06492
  
  
 ---------------------------------------------------------------
 Warning -- This program may not be used in any manner that
 competes with the business of Gaussian, Inc. or will provide
 assistance to any competitor of Gaussian, Inc.  The licensee
 of this program is prohibited from giving any competitor of
 Gaussian, Inc. access to this program.  By using this program,
 the user acknowledges that Gaussian, Inc. is engaged in the
 business of creating and licensing software in the field of
 computational chemistry and represents and warrants to the
 licensee that it is not a competitor of Gaussian, Inc. and that
 it will not use this program in any manner prohibited above.
 ---------------------------------------------------------------
  

 Cite this work as:
 Gaussian 16, Revision C.01,
 M. J. Frisch, G. W. Trucks, H. B. Schlegel, G. E. Scuseria, 
 M. A. Robb, J. R. Cheeseman, G. Scalmani, V. Barone, 
 G. A. Petersson, H. Nakatsuji, X. Li, M. Caricato, A. V. Marenich, 
 J. Bloino, B. G. Janesko, R. Gomperts, B. Mennucci, H. P. Hratchian, 
 J. V. Ortiz, A. F. Izmaylov, J. L. Sonnenberg, D. Williams-Young, 
 F. Ding, F. Lipparini, F. Egidi, J. Goings, B. Peng, A. Petrone, 
 T. Henderson, D. Ranasinghe, V. G. Zakrzewski, J. Gao, N. Rega, 
 G. Zheng, W. Liang, M. Hada, M. Ehara, K. Toyota, R. Fukuda, 
 J. Hasegawa, M. Ishida, T. Nakajima, Y. Honda, O. Kitao, H. Nakai, 
 T. Vreven, K. Throssell, J. A. Montgomery, Jr., J. E. Peralta, 
 F. Ogliaro, M. J. Bearpark, J. J. Heyd, E. N. Brothers, K. N. Kudin, 
 V. N. Staroverov, T. A. Keith, R. Kobayashi, J. Normand, 
 K. Raghavachari, A. P. Rendell, J. C. Burant, S. S. Iyengar, 
 J. Tomasi, M. Cossi, J. M. Millam, M. Klene, C. Adamo, R. Cammi, 
 J. W. Ochterski, R. L. Martin, K. Morokuma, O. Farkas, 
 J. B. Foresman, and D. J. Fox, Gaussian, Inc., Wallingford CT, 2019.
 
 ******************************************
 Gaussian 16:  ES64L-G16RevC.01  3-Jul-2019
                 3-Jun-2022 
 ******************************************
 %mem=8gb
 %nproc=4
 Will use up to    4 processors via shared memory.
 %chk=conf-962.chk
 ----------------------------------------------------------------------
 # B3LYP/6-31G* empiricaldispersion=gd3 guess=read geom=check nosymm in
 tegral(ultrafinegrid)
 ----------------------------------------------------------------------
 1/29=2,38=1,172=1/1;
 2/12=2,15=1,40=1/2;
 3/5=1,6=6,7=1,11=2,14=-4,25=1,30=1,74=-5,75=-5,116=-2,124=31/1,2,3;
 4/5=1/1;
 5/5=2,38=6/2;
 6/7=2,8=2,9=2,10=2,28=1/1;
 99/5=1,9=1/99;
 ------------------------------------------------------
 Candidate Structure: Conf:962 Charge calc in gas phase
 ------------------------------------------------------
 Structure from the checkpoint file:  "conf-962.chk"
 Charge =  1 Multiplicity = 1
 Redundant internal coordinates found in file.  (old form).
 N,0,-7.8435728072,0.8737700261,-8.8727707698
 C,0,-6.5809495578,1.2158879983,-8.1271091184
 C,0,-5.5388404406,0.0829804249,-8.1013659365
 O,0,-4.4185512829,0.2944826237,-8.5464861558
 C,0,-6.9382496991,1.6777806588,-6.7138453638
 C,0,-7.7736819905,2.9542042464,-6.7353178549
 N,0,-7.7465179311,3.6722889102,-5.5920654461
 O,0,-8.4400606891,3.2805069682,-7.7217869182
 H,0,-8.4619553094,0.223334217,-8.3177693018
 H,0,-6.1073487391,2.0240463439,-8.6858752035
 H,0,-7.5093353121,0.8990604184,-6.1937326425
 H,0,-6.0160915039,1.8193019859,-6.1438900895
 H,0,-8.291945234,4.5219284776,-5.5331952141
 H,0,-7.1589329531,3.4077423802,-4.8132456643
 H,0,-8.3522456617,1.7673598177,-8.9793247656
 H,0,-7.623764763,0.3935342464,-9.7686534824
 N,0,-5.9158420105,-1.0966999045,-7.5319948042
 C,0,-4.9091178639,-2.0532443437,-7.0597107062
 C,0,-5.0598769491,-3.4766079569,-7.6484463161
 O,0,-5.0995657822,-4.4490356887,-6.9089865335
 C,0,-4.9468981134,-2.129809383,-5.5177280112
 C,0,-4.9888666944,-0.7732502929,-4.8454140489
 C,0,-3.9621932685,0.1673341938,-5.0263585619
 C,0,-6.0686965264,-0.4250220189,-4.0235481704
 C,0,-4.0095808254,1.4106182489,-4.3944272007
 C,0,-6.1198463806,0.8156957407,-3.3809714442
 C,0,-5.0876283283,1.7387594673,-3.56326926
 H,0,-6.8052525194,-1.1440982991,-7.0494627159
 H,0,-3.9481099557,-1.6559081879,-7.4008832738
 H,0,-5.8226253167,-2.7208910812,-5.2333604636
 H,0,-4.076666837,-2.705540218,-5.1864113449
 H,0,-3.119164453,-0.0731789328,-5.6686153041
 H,0,-6.875616038,-1.139487241,-3.8759013354
 H,0,-3.1994572513,2.1195968362,-4.5404349958
 H,0,-6.9573797042,1.0520883168,-2.7295674778
 H,0,-5.1058932124,2.694871321,-3.0456529838
 N,0,-5.0593703163,-3.6389776181,-9.0133469073
 C,0,-5.2452642426,-2.6441013956,-10.0574452975
 C,0,-6.6987791719,-2.1401272922,-10.1819034486
 O,0,-6.9092828327,-1.0046978924,-10.6370652634
 C,0,-4.7250238886,-3.1548567045,-11.4134066895
 C,0,-5.4444358749,-4.4137923329,-11.9040600822
 N,0,-5.3500246802,-4.6558105958,-13.2341406314
 O,0,-6.0513414659,-5.1650530257,-11.1408045612
 H,0,-5.2049136274,-4.6021849537,-9.3042330417
 H,0,-4.6699683826,-1.7466680359,-9.8151485621
 H,0,-3.6567800211,-3.3853300335,-11.3160466001
 H,0,-4.8191922067,-2.344882149,-12.1449029903
 H,0,-5.7370900389,-5.5175296447,-13.5949227602
 H,0,-4.831867704,-4.060214201,-13.8629127819
 N,0,-7.6743290887,-2.9722558323,-9.7554290897
 C,0,-8.9440871329,-2.4486771703,-9.2703189794
 C,0,-8.7726319099,-2.1085728347,-7.7757127066
 O,0,-8.2454647877,-2.9893636562,-7.0562379155
 C,0,-10.1043255581,-3.4438844247,-9.4516297384
 C,0,-11.4856387726,-2.8360850752,-9.0870463476
 C,0,-12.1078442666,-3.313931255,-7.7646968053
 N,0,-11.2979325991,-2.9210523279,-6.6015972093
 C,0,-10.9621363978,-3.7190598202,-5.5829502541
 N,0,-11.7694821186,-4.7405890115,-5.2348525196
 N,0,-9.8260988805,-3.4776907805,-4.9196171806
 O,0,-9.1977135452,-0.9766865458,-7.3653334242
 H,0,-7.3633402847,-3.8359076472,-9.32537687
 H,0,-9.1592048137,-1.5433404123,-9.8402925
 H,0,-10.1042165495,-3.7652242161,-10.4978518119
 H,0,-9.8980951479,-4.33505061,-8.844946592
 H,0,-11.4236074964,-1.7404691261,-9.0685673175
 H,0,-12.2125893026,-3.0819281553,-9.8685596145
 H,0,-13.1187837808,-2.8998107081,-7.6677204407
 H,0,-12.1893436133,-4.4060108998,-7.7678945867
 H,0,-10.7655718389,-2.051716661,-6.6806448025
 H,0,-11.4552845046,-5.4587307126,-4.5988830656
 H,0,-12.7447092619,-4.743445898,-5.4956941702
 H,0,-9.617514885,-4.0018839083,-4.081006907
 H,0,-9.034139974,-3.1324328858,-5.4995270537
 Recover connectivity data from disk.
                           ----------------------------
                           !    Current Parameters    !
                           ! (Angstroms and Degrees)  !
 --------------------------                            --------------------------
 ! Name  Definition              Value                                          !
 --------------------------------------------------------------------------------
 ! R1    R(1,2)                  1.5057                                         !
 ! R2    R(1,9)                  1.0552                                         !
 ! R3    R(1,15)                 1.0337                                         !
 ! R4    R(1,16)                 1.04                                           !
 ! R5    R(2,3)                  1.5395                                         !
 ! R6    R(2,5)                  1.5292                                         !
 ! R7    R(2,10)                 1.0907                                         !
 ! R8    R(3,4)                  1.2239                                         !
 ! R9    R(3,17)                 1.3631                                         !
 ! R10   R(5,6)                  1.5257                                         !
 ! R11   R(5,11)                 1.0968                                         !
 ! R12   R(5,12)                 1.0933                                         !
 ! R13   R(6,7)                  1.3503                                         !
 ! R14   R(6,8)                  1.2344                                         !
 ! R15   R(7,13)                 1.0114                                         !
 ! R16   R(7,14)                 1.0108                                         !
 ! R17   R(17,18)                1.4668                                         !
 ! R18   R(17,28)                1.013                                          !
 ! R19   R(18,19)                1.5477                                         !
 ! R20   R(18,21)                1.5443                                         !
 ! R21   R(18,29)                1.0944                                         !
 ! R22   R(19,20)                1.2223                                         !
 ! R23   R(19,37)                1.3745                                         !
 ! R24   R(21,22)                1.5146                                         !
 ! R25   R(21,30)                1.0941                                         !
 ! R26   R(21,31)                1.0948                                         !
 ! R27   R(22,23)                1.4041                                         !
 ! R28   R(22,24)                1.401                                          !
 ! R29   R(23,25)                1.3955                                         !
 ! R30   R(23,32)                1.0868                                         !
 ! R31   R(24,26)                1.3982                                         !
 ! R32   R(24,33)                1.0878                                         !
 ! R33   R(25,27)                1.4002                                         !
 ! R34   R(25,34)                1.0864                                         !
 ! R35   R(26,27)                1.3967                                         !
 ! R36   R(26,35)                1.087                                          !
 ! R37   R(27,36)                1.0874                                         !
 ! R38   R(37,38)                1.4541                                         !
 ! R39   R(37,45)                1.0166                                         !
 ! R40   R(38,39)                1.5434                                         !
 ! R41   R(38,41)                1.5395                                         !
 ! R42   R(38,46)                1.0932                                         !
 ! R43   R(39,40)                1.2412                                         !
 ! R44   R(39,51)                1.3513                                         !
 ! R45   R(41,42)                1.5308                                         !
 ! R46   R(41,47)                1.0972                                         !
 ! R47   R(41,48)                1.0955                                         !
 ! R48   R(42,43)                1.3552                                         !
 ! R49   R(42,44)                1.231                                          !
 ! R50   R(43,49)                1.0112                                         !
 ! R51   R(43,50)                1.0092                                         !
 ! R52   R(51,52)                1.4566                                         !
 ! R53   R(51,63)                1.0137                                         !
 ! R54   R(52,53)                1.5424                                         !
 ! R55   R(52,55)                1.5393                                         !
 ! R56   R(52,64)                1.0912                                         !
 ! R57   R(53,54)                1.2535                                         !
 ! R58   R(53,62)                1.2768                                         !
 ! R59   R(55,56)                1.5525                                         !
 ! R60   R(55,65)                1.0945                                         !
 ! R61   R(55,66)                1.0976                                         !
 ! R62   R(56,57)                1.5376                                         !
 ! R63   R(56,67)                1.0975                                         !
 ! R64   R(56,68)                1.0953                                         !
 ! R65   R(57,58)                1.4708                                         !
 ! R66   R(57,69)                1.0968                                         !
 ! R67   R(57,70)                1.0951                                         !
 ! R68   R(58,59)                1.3369                                         !
 ! R69   R(58,71)                1.0224                                         !
 ! R70   R(59,60)                1.3478                                         !
 ! R71   R(59,61)                1.3375                                         !
 ! R72   R(60,72)                1.0094                                         !
 ! R73   R(60,73)                1.0095                                         !
 ! R74   R(61,74)                1.0107                                         !
 ! R75   R(61,75)                1.0405                                         !
 ! A1    A(2,1,9)              111.7768                                         !
 ! A2    A(2,1,15)             105.5013                                         !
 ! A3    A(2,1,16)             110.7496                                         !
 ! A4    A(9,1,15)             107.3784                                         !
 ! A5    A(9,1,16)             106.9962                                         !
 ! A6    A(15,1,16)            114.4804                                         !
 ! A7    A(1,2,3)              114.1226                                         !
 ! A8    A(1,2,5)              109.2917                                         !
 ! A9    A(1,2,10)             106.1862                                         !
 ! A10   A(3,2,5)              111.4068                                         !
 ! A11   A(3,2,10)             105.0639                                         !
 ! A12   A(5,2,10)             110.5558                                         !
 ! A13   A(2,3,4)              119.1012                                         !
 ! A14   A(2,3,17)             117.1705                                         !
 ! A15   A(4,3,17)             123.6866                                         !
 ! A16   A(2,5,6)              111.5708                                         !
 ! A17   A(2,5,11)             110.2099                                         !
 ! A18   A(2,5,12)             108.8948                                         !
 ! A19   A(6,5,11)             108.3938                                         !
 ! A20   A(6,5,12)             111.1564                                         !
 ! A21   A(11,5,12)            106.491                                          !
 ! A22   A(5,6,7)              114.9593                                         !
 ! A23   A(5,6,8)              121.8722                                         !
 ! A24   A(7,6,8)              123.1544                                         !
 ! A25   A(6,7,13)             119.0244                                         !
 ! A26   A(6,7,14)             121.6569                                         !
 ! A27   A(13,7,14)            119.2421                                         !
 ! A28   A(3,17,18)            120.6009                                         !
 ! A29   A(3,17,28)            118.8367                                         !
 ! A30   A(18,17,28)           114.754                                          !
 ! A31   A(17,18,19)           114.2305                                         !
 ! A32   A(17,18,21)           109.696                                          !
 ! A33   A(17,18,29)           105.3986                                         !
 ! A34   A(19,18,21)           109.3805                                         !
 ! A35   A(19,18,29)           107.508                                          !
 ! A36   A(21,18,29)           110.5322                                         !
 ! A37   A(18,19,20)           120.3118                                         !
 ! A38   A(18,19,37)           119.1003                                         !
 ! A39   A(20,19,37)           120.4493                                         !
 ! A40   A(18,21,22)           113.5458                                         !
 ! A41   A(18,21,30)           107.8103                                         !
 ! A42   A(18,21,31)           107.9868                                         !
 ! A43   A(22,21,30)           110.2618                                         !
 ! A44   A(22,21,31)           111.0206                                         !
 ! A45   A(30,21,31)           105.8705                                         !
 ! A46   A(21,22,23)           121.5014                                         !
 ! A47   A(21,22,24)           120.2903                                         !
 ! A48   A(23,22,24)           118.208                                          !
 ! A49   A(22,23,25)           120.9066                                         !
 ! A50   A(22,23,32)           119.6774                                         !
 ! A51   A(25,23,32)           119.4158                                         !
 ! A52   A(22,24,26)           121.223                                          !
 ! A53   A(22,24,33)           119.2159                                         !
 ! A54   A(26,24,33)           119.5577                                         !
 ! A55   A(23,25,27)           120.2472                                         !
 ! A56   A(23,25,34)           119.6856                                         !
 ! A57   A(27,25,34)           120.063                                          !
 ! A58   A(24,26,27)           119.9631                                         !
 ! A59   A(24,26,35)           119.7726                                         !
 ! A60   A(27,26,35)           120.2585                                         !
 ! A61   A(25,27,26)           119.4449                                         !
 ! A62   A(25,27,36)           120.102                                          !
 ! A63   A(26,27,36)           120.4351                                         !
 ! A64   A(19,37,38)           129.2075                                         !
 ! A65   A(19,37,45)           113.3275                                         !
 ! A66   A(38,37,45)           115.117                                          !
 ! A67   A(37,38,39)           113.6841                                         !
 ! A68   A(37,38,41)           111.2371                                         !
 ! A69   A(37,38,46)           109.5872                                         !
 ! A70   A(39,38,41)           110.8266                                         !
 ! A71   A(39,38,46)           104.2062                                         !
 ! A72   A(41,38,46)           106.8421                                         !
 ! A73   A(38,39,40)           119.2074                                         !
 ! A74   A(38,39,51)           116.9588                                         !
 ! A75   A(40,39,51)           123.821                                          !
 ! A76   A(38,41,42)           113.35                                           !
 ! A77   A(38,41,47)           108.6963                                         !
 ! A78   A(38,41,48)           108.2875                                         !
 ! A79   A(42,41,47)           108.2564                                         !
 ! A80   A(42,41,48)           110.7116                                         !
 ! A81   A(47,41,48)           107.3541                                         !
 ! A82   A(41,42,43)           115.3862                                         !
 ! A83   A(41,42,44)           122.3368                                         !
 ! A84   A(43,42,44)           122.2696                                         !
 ! A85   A(42,43,49)           118.4039                                         !
 ! A86   A(42,43,50)           122.8087                                         !
 ! A87   A(49,43,50)           118.4987                                         !
 ! A88   A(39,51,52)           120.8692                                         !
 ! A89   A(39,51,63)           115.9169                                         !
 ! A90   A(52,51,63)           115.6193                                         !
 ! A91   A(51,52,53)           107.7631                                         !
 ! A92   A(51,52,55)           112.6702                                         !
 ! A93   A(51,52,64)           107.2238                                         !
 ! A94   A(53,52,55)           109.9069                                         !
 ! A95   A(53,52,64)           110.1889                                         !
 ! A96   A(55,52,64)           109.0433                                         !
 ! A97   A(52,53,54)           116.615                                          !
 ! A98   A(52,53,62)           118.0292                                         !
 ! A99   A(54,53,62)           125.3397                                         !
 ! A100  A(52,55,56)           112.9449                                         !
 ! A101  A(52,55,65)           107.5986                                         !
 ! A102  A(52,55,66)           108.554                                          !
 ! A103  A(56,55,65)           109.8472                                         !
 ! A104  A(56,55,66)           110.807                                          !
 ! A105  A(65,55,66)           106.8559                                         !
 ! A106  A(55,56,57)           116.1253                                         !
 ! A107  A(55,56,67)           110.1497                                         !
 ! A108  A(55,56,68)           109.5774                                         !
 ! A109  A(57,56,67)           108.5803                                         !
 ! A110  A(57,56,68)           105.9806                                         !
 ! A111  A(67,56,68)           105.878                                          !
 ! A112  A(56,57,58)           111.9791                                         !
 ! A113  A(56,57,69)           109.3721                                         !
 ! A114  A(56,57,70)           109.7261                                         !
 ! A115  A(58,57,69)           109.6819                                         !
 ! A116  A(58,57,70)           108.0398                                         !
 ! A117  A(69,57,70)           107.9505                                         !
 ! A118  A(57,58,59)           125.5521                                         !
 ! A119  A(57,58,71)           116.9176                                         !
 ! A120  A(59,58,71)           115.8272                                         !
 ! A121  A(58,59,60)           119.9183                                         !
 ! A122  A(58,59,61)           118.9161                                         !
 ! A123  A(60,59,61)           121.1639                                         !
 ! A124  A(59,60,72)           121.0309                                         !
 ! A125  A(59,60,73)           120.9365                                         !
 ! A126  A(72,60,73)           117.4825                                         !
 ! A127  A(59,61,74)           119.551                                          !
 ! A128  A(59,61,75)           115.4645                                         !
 ! A129  A(74,61,75)           118.5181                                         !
 ! D1    D(9,1,2,3)             75.1419                                         !
 ! D2    D(9,1,2,5)            -50.3399                                         !
 ! D3    D(9,1,2,10)          -169.6126                                         !
 ! D4    D(15,1,2,3)          -168.4618                                         !
 ! D5    D(15,1,2,5)            66.0563                                         !
 ! D6    D(15,1,2,10)          -53.2163                                         !
 ! D7    D(16,1,2,3)           -44.0645                                         !
 ! D8    D(16,1,2,5)          -169.5464                                         !
 ! D9    D(16,1,2,10)           71.181                                          !
 ! D10   D(1,2,3,4)            122.4549                                         !
 ! D11   D(1,2,3,17)           -59.8081                                         !
 ! D12   D(5,2,3,4)           -113.187                                          !
 ! D13   D(5,2,3,17)            64.5499                                         !
 ! D14   D(10,2,3,4)             6.5536                                         !
 ! D15   D(10,2,3,17)         -175.7095                                         !
 ! D16   D(1,2,5,6)            -63.0714                                         !
 ! D17   D(1,2,5,11)            57.3998                                         !
 ! D18   D(1,2,5,12)           173.8688                                         !
 ! D19   D(3,2,5,6)            169.8928                                         !
 ! D20   D(3,2,5,11)           -69.636                                          !
 ! D21   D(3,2,5,12)            46.833                                          !
 ! D22   D(10,2,5,6)            53.46                                           !
 ! D23   D(10,2,5,11)          173.9312                                         !
 ! D24   D(10,2,5,12)          -69.5998                                         !
 ! D25   D(2,3,17,18)         -159.5303                                         !
 ! D26   D(2,3,17,28)           -7.7714                                         !
 ! D27   D(4,3,17,18)           18.0932                                         !
 ! D28   D(4,3,17,28)          169.8521                                         !
 ! D29   D(2,5,6,7)           -158.2819                                         !
 ! D30   D(2,5,6,8)             23.0422                                         !
 ! D31   D(11,5,6,7)            80.1883                                         !
 ! D32   D(11,5,6,8)           -98.4876                                         !
 ! D33   D(12,5,6,7)           -36.5207                                         !
 ! D34   D(12,5,6,8)           144.8034                                         !
 ! D35   D(5,6,7,13)          -178.9353                                         !
 ! D36   D(5,6,7,14)             4.2738                                         !
 ! D37   D(8,6,7,13)            -0.2784                                         !
 ! D38   D(8,6,7,14)          -177.0693                                         !
 ! D39   D(3,17,18,19)        -125.4346                                         !
 ! D40   D(3,17,18,21)         111.3615                                         !
 ! D41   D(3,17,18,29)          -7.6505                                         !
 ! D42   D(28,17,18,19)         81.7236                                         !
 ! D43   D(28,17,18,21)        -41.4803                                         !
 ! D44   D(28,17,18,29)       -160.4923                                         !
 ! D45   D(17,18,19,20)       -127.9554                                         !
 ! D46   D(17,18,19,37)         56.305                                          !
 ! D47   D(21,18,19,20)         -4.581                                          !
 ! D48   D(21,18,19,37)        179.6794                                         !
 ! D49   D(29,18,19,20)        115.4739                                         !
 ! D50   D(29,18,19,37)        -60.2657                                         !
 ! D51   D(17,18,21,22)        -46.4369                                         !
 ! D52   D(17,18,21,30)         76.0273                                         !
 ! D53   D(17,18,21,31)       -170.0007                                         !
 ! D54   D(19,18,21,22)       -172.4537                                         !
 ! D55   D(19,18,21,30)        -49.9895                                         !
 ! D56   D(19,18,21,31)         63.9826                                         !
 ! D57   D(29,18,21,22)         69.3633                                         !
 ! D58   D(29,18,21,30)       -168.1725                                         !
 ! D59   D(29,18,21,31)        -54.2005                                         !
 ! D60   D(18,19,37,38)        -15.9263                                         !
 ! D61   D(18,19,37,45)       -177.4341                                         !
 ! D62   D(20,19,37,38)        168.3401                                         !
 ! D63   D(20,19,37,45)          6.8323                                         !
 ! D64   D(18,21,22,23)        -60.1954                                         !
 ! D65   D(18,21,22,24)        119.5817                                         !
 ! D66   D(30,21,22,23)        178.7057                                         !
 ! D67   D(30,21,22,24)         -1.5172                                         !
 ! D68   D(31,21,22,23)         61.696                                          !
 ! D69   D(31,21,22,24)       -118.5269                                         !
 ! D70   D(21,22,23,25)       -179.6112                                         !
 ! D71   D(21,22,23,32)          0.523                                          !
 ! D72   D(24,22,23,25)          0.6073                                         !
 ! D73   D(24,22,23,32)       -179.2585                                         !
 ! D74   D(21,22,24,26)        179.2444                                         !
 ! D75   D(21,22,24,33)         -0.0842                                         !
 ! D76   D(23,22,24,26)         -0.9713                                         !
 ! D77   D(23,22,24,33)        179.7001                                         !
 ! D78   D(22,23,25,27)          0.1295                                         !
 ! D79   D(22,23,25,34)        179.3862                                         !
 ! D80   D(32,23,25,27)        179.9957                                         !
 ! D81   D(32,23,25,34)         -0.7477                                         !
 ! D82   D(22,24,26,27)          0.5962                                         !
 ! D83   D(22,24,26,35)       -178.535                                          !
 ! D84   D(33,24,26,27)        179.9225                                         !
 ! D85   D(33,24,26,35)          0.7914                                         !
 ! D86   D(23,25,27,26)         -0.5199                                         !
 ! D87   D(23,25,27,36)        177.9451                                         !
 ! D88   D(34,25,27,26)       -179.7737                                         !
 ! D89   D(34,25,27,36)         -1.3088                                         !
 ! D90   D(24,26,27,25)          0.1623                                         !
 ! D91   D(24,26,27,36)       -178.2974                                         !
 ! D92   D(35,26,27,25)        179.2892                                         !
 ! D93   D(35,26,27,36)          0.8295                                         !
 ! D94   D(19,37,38,39)        -72.5517                                         !
 ! D95   D(19,37,38,41)        161.5045                                         !
 ! D96   D(19,37,38,46)         43.5856                                         !
 ! D97   D(45,37,38,39)         88.6847                                         !
 ! D98   D(45,37,38,41)        -37.2591                                         !
 ! D99   D(45,37,38,46)       -155.178                                          !
 ! D100  D(37,38,39,40)        153.4128                                         !
 ! D101  D(37,38,39,51)        -25.3369                                         !
 ! D102  D(41,38,39,40)        -80.4265                                         !
 ! D103  D(41,38,39,51)        100.8238                                         !
 ! D104  D(46,38,39,40)         34.16                                           !
 ! D105  D(46,38,39,51)       -144.5897                                         !
 ! D106  D(37,38,41,42)         60.9122                                         !
 ! D107  D(37,38,41,47)        -59.5065                                         !
 ! D108  D(37,38,41,48)       -175.8325                                         !
 ! D109  D(39,38,41,42)        -66.5991                                         !
 ! D110  D(39,38,41,47)        172.9823                                         !
 ! D111  D(39,38,41,48)         56.6563                                         !
 ! D112  D(46,38,41,42)       -179.5217                                         !
 ! D113  D(46,38,41,47)         60.0596                                         !
 ! D114  D(46,38,41,48)        -56.2664                                         !
 ! D115  D(38,39,51,52)        152.5349                                         !
 ! D116  D(38,39,51,63)          4.2632                                         !
 ! D117  D(40,39,51,52)        -26.1514                                         !
 ! D118  D(40,39,51,63)       -174.4232                                         !
 ! D119  D(38,41,42,43)        159.5744                                         !
 ! D120  D(38,41,42,44)        -21.3982                                         !
 ! D121  D(47,41,42,43)        -79.7578                                         !
 ! D122  D(47,41,42,44)         99.2696                                         !
 ! D123  D(48,41,42,43)         37.6624                                         !
 ! D124  D(48,41,42,44)       -143.3102                                         !
 ! D125  D(41,42,43,49)        174.6096                                         !
 ! D126  D(41,42,43,50)          0.8796                                         !
 ! D127  D(44,42,43,49)         -4.4186                                         !
 ! D128  D(44,42,43,50)       -178.1485                                         !
 ! D129  D(39,51,52,53)        -85.3165                                         !
 ! D130  D(39,51,52,55)        153.265                                          !
 ! D131  D(39,51,52,64)         33.2853                                         !
 ! D132  D(63,51,52,53)         63.0439                                         !
 ! D133  D(63,51,52,55)        -58.3746                                         !
 ! D134  D(63,51,52,64)       -178.3543                                         !
 ! D135  D(51,52,53,54)        -48.4533                                         !
 ! D136  D(51,52,53,62)        132.9281                                         !
 ! D137  D(55,52,53,54)         74.6705                                         !
 ! D138  D(55,52,53,62)       -103.9481                                         !
 ! D139  D(64,52,53,54)       -165.1379                                         !
 ! D140  D(64,52,53,62)         16.2435                                         !
 ! D141  D(51,52,55,56)       -173.4858                                         !
 ! D142  D(51,52,55,65)        -52.0821                                         !
 ! D143  D(51,52,55,66)         63.217                                          !
 ! D144  D(53,52,55,56)         66.3223                                         !
 ! D145  D(53,52,55,65)       -172.274                                          !
 ! D146  D(53,52,55,66)        -56.9749                                         !
 ! D147  D(64,52,55,56)        -54.5614                                         !
 ! D148  D(64,52,55,65)         66.8423                                         !
 ! D149  D(64,52,55,66)       -177.8586                                         !
 ! D150  D(52,55,56,57)       -106.3671                                         !
 ! D151  D(52,55,56,67)         17.5497                                         !
 ! D152  D(52,55,56,68)        133.641                                          !
 ! D153  D(65,55,56,57)        133.5096                                         !
 ! D154  D(65,55,56,67)       -102.5736                                         !
 ! D155  D(65,55,56,68)         13.5177                                         !
 ! D156  D(66,55,56,57)         15.6732                                         !
 ! D157  D(66,55,56,67)        139.59                                           !
 ! D158  D(66,55,56,68)       -104.3187                                         !
 ! D159  D(55,56,57,58)         64.0394                                         !
 ! D160  D(55,56,57,69)       -174.1643                                         !
 ! D161  D(55,56,57,70)        -55.9265                                         !
 ! D162  D(67,56,57,58)        -60.6854                                         !
 ! D163  D(67,56,57,69)         61.1109                                         !
 ! D164  D(67,56,57,70)        179.3487                                         !
 ! D165  D(68,56,57,58)       -174.0452                                         !
 ! D166  D(68,56,57,69)        -52.249                                          !
 ! D167  D(68,56,57,70)         65.9889                                         !
 ! D168  D(56,57,58,59)       -133.7343                                         !
 ! D169  D(56,57,58,71)         30.714                                          !
 ! D170  D(69,57,58,59)        104.6473                                         !
 ! D171  D(69,57,58,71)        -90.9044                                         !
 ! D172  D(70,57,58,59)        -12.7874                                         !
 ! D173  D(70,57,58,71)        151.6608                                         !
 ! D174  D(57,58,59,60)        -28.7756                                         !
 ! D175  D(57,58,59,61)        151.6963                                         !
 ! D176  D(71,58,59,60)        166.6264                                         !
 ! D177  D(71,58,59,61)        -12.9016                                         !
 ! D178  D(58,59,60,72)        167.7623                                         !
 ! D179  D(58,59,60,73)        -20.9582                                         !
 ! D180  D(61,59,60,72)        -12.7204                                         !
 ! D181  D(61,59,60,73)        158.559                                          !
 ! D182  D(58,59,61,74)        172.6233                                         !
 ! D183  D(58,59,61,75)        -35.9898                                         !
 ! D184  D(60,59,61,74)         -6.8987                                         !
 ! D185  D(60,59,61,75)        144.4882                                         !
 --------------------------------------------------------------------------------
 Symmetry turned off by external request.
 Stoichiometry    C23H36N9O7(1+)
 Framework group  C1[X(C23H36N9O7)]
 Deg. of freedom   219
 Full point group                 C1      NOp   1
                          Input orientation:                          
 ---------------------------------------------------------------------
 Center     Atomic      Atomic             Coordinates (Angstroms)
 Number     Number       Type             X           Y           Z
 ---------------------------------------------------------------------
      1          7           0       -7.843573    0.873770   -8.872771
      2          6           0       -6.580950    1.215888   -8.127109
      3          6           0       -5.538840    0.082980   -8.101366
      4          8           0       -4.418551    0.294483   -8.546486
      5          6           0       -6.938250    1.677781   -6.713845
      6          6           0       -7.773682    2.954204   -6.735318
      7          7           0       -7.746518    3.672289   -5.592065
      8          8           0       -8.440061    3.280507   -7.721787
      9          1           0       -8.461955    0.223334   -8.317769
     10          1           0       -6.107349    2.024046   -8.685875
     11          1           0       -7.509335    0.899060   -6.193733
     12          1           0       -6.016092    1.819302   -6.143890
     13          1           0       -8.291945    4.521928   -5.533195
     14          1           0       -7.158933    3.407742   -4.813246
     15          1           0       -8.352246    1.767360   -8.979325
     16          1           0       -7.623765    0.393534   -9.768653
     17          7           0       -5.915842   -1.096700   -7.531995
     18          6           0       -4.909118   -2.053244   -7.059711
     19          6           0       -5.059877   -3.476608   -7.648446
     20          8           0       -5.099566   -4.449036   -6.908987
     21          6           0       -4.946898   -2.129809   -5.517728
     22          6           0       -4.988867   -0.773250   -4.845414
     23          6           0       -3.962193    0.167334   -5.026359
     24          6           0       -6.068697   -0.425022   -4.023548
     25          6           0       -4.009581    1.410618   -4.394427
     26          6           0       -6.119846    0.815696   -3.380971
     27          6           0       -5.087628    1.738759   -3.563269
     28          1           0       -6.805253   -1.144098   -7.049463
     29          1           0       -3.948110   -1.655908   -7.400883
     30          1           0       -5.822625   -2.720891   -5.233360
     31          1           0       -4.076667   -2.705540   -5.186411
     32          1           0       -3.119164   -0.073179   -5.668615
     33          1           0       -6.875616   -1.139487   -3.875901
     34          1           0       -3.199457    2.119597   -4.540435
     35          1           0       -6.957380    1.052088   -2.729567
     36          1           0       -5.105893    2.694871   -3.045653
     37          7           0       -5.059370   -3.638978   -9.013347
     38          6           0       -5.245264   -2.644101  -10.057445
     39          6           0       -6.698779   -2.140127  -10.181903
     40          8           0       -6.909283   -1.004698  -10.637065
     41          6           0       -4.725024   -3.154857  -11.413407
     42          6           0       -5.444436   -4.413792  -11.904060
     43          7           0       -5.350025   -4.655811  -13.234141
     44          8           0       -6.051341   -5.165053  -11.140805
     45          1           0       -5.204914   -4.602185   -9.304233
     46          1           0       -4.669968   -1.746668   -9.815149
     47          1           0       -3.656780   -3.385330  -11.316047
     48          1           0       -4.819192   -2.344882  -12.144903
     49          1           0       -5.737090   -5.517530  -13.594923
     50          1           0       -4.831868   -4.060214  -13.862913
     51          7           0       -7.674329   -2.972256   -9.755429
     52          6           0       -8.944087   -2.448677   -9.270319
     53          6           0       -8.772632   -2.108573   -7.775713
     54          8           0       -8.245465   -2.989364   -7.056238
     55          6           0      -10.104326   -3.443884   -9.451630
     56          6           0      -11.485639   -2.836085   -9.087046
     57          6           0      -12.107844   -3.313931   -7.764697
     58          7           0      -11.297933   -2.921052   -6.601597
     59          6           0      -10.962136   -3.719060   -5.582950
     60          7           0      -11.769482   -4.740589   -5.234853
     61          7           0       -9.826099   -3.477691   -4.919617
     62          8           0       -9.197714   -0.976687   -7.365333
     63          1           0       -7.363340   -3.835908   -9.325377
     64          1           0       -9.159205   -1.543340   -9.840292
     65          1           0      -10.104217   -3.765224  -10.497852
     66          1           0       -9.898095   -4.335051   -8.844947
     67          1           0      -11.423607   -1.740469   -9.068567
     68          1           0      -12.212589   -3.081928   -9.868560
     69          1           0      -13.118784   -2.899811   -7.667720
     70          1           0      -12.189344   -4.406011   -7.767895
     71          1           0      -10.765572   -2.051717   -6.680645
     72          1           0      -11.455285   -5.458731   -4.598883
     73          1           0      -12.744709   -4.743446   -5.495694
     74          1           0       -9.617515   -4.001884   -4.081007
     75          1           0       -9.034140   -3.132433   -5.499527
 ---------------------------------------------------------------------
 Rotational constants (GHZ):           0.1051586           0.0826712           0.0655346
 Standard basis: 6-31G(d) (6D, 7F)
   657 basis functions,  1236 primitive gaussians,   657 cartesian basis functions
   146 alpha electrons      146 beta electrons
       nuclear repulsion energy      5090.0392246900 Hartrees.
 NAtoms=   75 NActive=   75 NUniq=   75 SFac= 1.00D+00 NAtFMM=   60 NAOKFM=T Big=T
 Integral buffers will be    131072 words long.
 Raffenetti 2 integral format.
 Two-electron integral symmetry is turned off.
 Nuclear repulsion after empirical dispersion term =     5089.9192870843 Hartrees.
 One-electron integrals computed using PRISM.
 NBasis=   657 RedAO= T EigKep=  4.62D-04  NBF=   657
 NBsUse=   657 1.00D-06 EigRej= -1.00D+00 NBFU=   657
 Initial guess from the checkpoint file:  "conf-962.chk"
 B after Tr=     0.000000    0.000000    0.000000
         Rot=    1.000000    0.000000    0.000000    0.000000 Ang=   0.00 deg.
 Requested convergence on RMS density matrix=1.00D-08 within 128 cycles.
 Requested convergence on MAX density matrix=1.00D-06.
 Requested convergence on             energy=1.00D-06.
 No special actions if energy rises.
 SCF Done:  E(RB3LYP) =  -1917.51859941     A.U. after    3 cycles
            NFock=  3  Conv=0.63D-09     -V/T= 2.0093

 **********************************************************************

            Population analysis using the SCF Density.

 **********************************************************************

 Alpha  occ. eigenvalues --  -19.22105 -19.21850 -19.21778 -19.21766 -19.21304
 Alpha  occ. eigenvalues --  -19.20387 -19.18930 -14.51565 -14.50849 -14.49275
 Alpha  occ. eigenvalues --  -14.48188 -14.45807 -14.45783 -14.45254 -14.44520
 Alpha  occ. eigenvalues --  -14.43210 -10.45971 -10.39688 -10.39123 -10.38802
 Alpha  occ. eigenvalues --  -10.38515 -10.38189 -10.36595 -10.35480 -10.34802
 Alpha  occ. eigenvalues --  -10.32584 -10.32506 -10.32012 -10.30424 -10.30129
 Alpha  occ. eigenvalues --  -10.29261 -10.29255 -10.28339 -10.27875 -10.27734
 Alpha  occ. eigenvalues --  -10.27621 -10.27561 -10.27294 -10.27065  -1.15354
 Alpha  occ. eigenvalues --   -1.14322  -1.13973  -1.13625  -1.13206  -1.12135
 Alpha  occ. eigenvalues --   -1.11003  -1.07566  -1.05711  -1.03946  -1.02643
 Alpha  occ. eigenvalues --   -1.02362  -1.02183  -1.00735  -0.99743  -0.99241
 Alpha  occ. eigenvalues --   -0.94109  -0.90576  -0.89453  -0.87037  -0.86748
 Alpha  occ. eigenvalues --   -0.84953  -0.82956  -0.82318  -0.78843  -0.78376
 Alpha  occ. eigenvalues --   -0.76783  -0.75675  -0.74359  -0.71995  -0.70609
 Alpha  occ. eigenvalues --   -0.70103  -0.69262  -0.69045  -0.68696  -0.68038
 Alpha  occ. eigenvalues --   -0.67570  -0.67041  -0.66919  -0.65854  -0.65435
 Alpha  occ. eigenvalues --   -0.64833  -0.63865  -0.63272  -0.62883  -0.62287
 Alpha  occ. eigenvalues --   -0.61865  -0.61116  -0.59997  -0.59015  -0.58897
 Alpha  occ. eigenvalues --   -0.58457  -0.57439  -0.57021  -0.56304  -0.56045
 Alpha  occ. eigenvalues --   -0.55789  -0.55362  -0.54783  -0.53973  -0.53613
 Alpha  occ. eigenvalues --   -0.53313  -0.53008  -0.52648  -0.52452  -0.51937
 Alpha  occ. eigenvalues --   -0.51611  -0.51312  -0.50767  -0.50381  -0.50349
 Alpha  occ. eigenvalues --   -0.49833  -0.49667  -0.49170  -0.48745  -0.48299
 Alpha  occ. eigenvalues --   -0.47838  -0.47457  -0.46980  -0.46397  -0.46072
 Alpha  occ. eigenvalues --   -0.45977  -0.45658  -0.45247  -0.44834  -0.44405
 Alpha  occ. eigenvalues --   -0.44159  -0.43716  -0.42169  -0.41999  -0.41557
 Alpha  occ. eigenvalues --   -0.38898  -0.38363  -0.37479  -0.37294  -0.37042
 Alpha  occ. eigenvalues --   -0.36585  -0.36106  -0.35677  -0.35436  -0.35128
 Alpha  occ. eigenvalues --   -0.34515  -0.33731  -0.33591  -0.33321  -0.32193
 Alpha  occ. eigenvalues --   -0.31944
 Alpha virt. eigenvalues --   -0.11048  -0.09799  -0.09209  -0.09129  -0.08633
 Alpha virt. eigenvalues --   -0.07401  -0.07017  -0.06234  -0.06063  -0.05793
 Alpha virt. eigenvalues --   -0.02475  -0.01672  -0.00751  -0.00461  -0.00416
 Alpha virt. eigenvalues --    0.00186   0.00859   0.01213   0.01901   0.02166
 Alpha virt. eigenvalues --    0.02445   0.02800   0.03187   0.03817   0.04291
 Alpha virt. eigenvalues --    0.04618   0.04893   0.05443   0.05796   0.05861
 Alpha virt. eigenvalues --    0.06069   0.06245   0.06606   0.07010   0.07462
 Alpha virt. eigenvalues --    0.07780   0.08163   0.08443   0.08860   0.09233
 Alpha virt. eigenvalues --    0.09688   0.10039   0.10519   0.10569   0.10834
 Alpha virt. eigenvalues --    0.10858   0.11627   0.11746   0.12612   0.13099
 Alpha virt. eigenvalues --    0.13246   0.13703   0.14372   0.14757   0.15333
 Alpha virt. eigenvalues --    0.15755   0.16123   0.16711   0.17088   0.18078
 Alpha virt. eigenvalues --    0.18332   0.18767   0.18924   0.19905   0.20363
 Alpha virt. eigenvalues --    0.22011   0.22948   0.23611   0.24349   0.24547
 Alpha virt. eigenvalues --    0.24837   0.25290   0.26352   0.26717   0.27000
 Alpha virt. eigenvalues --    0.27817   0.28612   0.29242   0.30251   0.31370
 Alpha virt. eigenvalues --    0.33014   0.33846   0.35323   0.37712   0.38102
 Alpha virt. eigenvalues --    0.38613   0.38872   0.39744   0.40435   0.41490
 Alpha virt. eigenvalues --    0.41586   0.41895   0.42962   0.43611   0.44062
 Alpha virt. eigenvalues --    0.44874   0.45172   0.45386   0.45776   0.46246
 Alpha virt. eigenvalues --    0.47067   0.47366   0.47787   0.48058   0.48808
 Alpha virt. eigenvalues --    0.49089   0.49836   0.49939   0.50415   0.50811
 Alpha virt. eigenvalues --    0.50961   0.51393   0.51991   0.52202   0.52489
 Alpha virt. eigenvalues --    0.53123   0.53273   0.53570   0.54042   0.54801
 Alpha virt. eigenvalues --    0.55045   0.55597   0.55910   0.56019   0.56137
 Alpha virt. eigenvalues --    0.56580   0.57029   0.57428   0.58253   0.58637
 Alpha virt. eigenvalues --    0.58729   0.59003   0.59204   0.59597   0.60108
 Alpha virt. eigenvalues --    0.60350   0.61213   0.61669   0.62691   0.63215
 Alpha virt. eigenvalues --    0.63900   0.64257   0.64747   0.64962   0.65307
 Alpha virt. eigenvalues --    0.65330   0.66742   0.67197   0.67494   0.68109
 Alpha virt. eigenvalues --    0.68968   0.69640   0.70391   0.70551   0.71201
 Alpha virt. eigenvalues --    0.71470   0.72315   0.72927   0.73267   0.73549
 Alpha virt. eigenvalues --    0.74118   0.74308   0.74813   0.74978   0.75099
 Alpha virt. eigenvalues --    0.75305   0.75991   0.76020   0.76415   0.77025
 Alpha virt. eigenvalues --    0.77336   0.77542   0.78097   0.78223   0.78593
 Alpha virt. eigenvalues --    0.79039   0.79203   0.79601   0.79896   0.80253
 Alpha virt. eigenvalues --    0.80828   0.81329   0.81533   0.82246   0.82688
 Alpha virt. eigenvalues --    0.82921   0.83265   0.83498   0.83842   0.84472
 Alpha virt. eigenvalues --    0.84895   0.85158   0.85717   0.86005   0.86474
 Alpha virt. eigenvalues --    0.86945   0.87544   0.87782   0.88357   0.88788
 Alpha virt. eigenvalues --    0.89127   0.90473   0.91438   0.91733   0.92075
 Alpha virt. eigenvalues --    0.92683   0.93387   0.94431   0.94512   0.95246
 Alpha virt. eigenvalues --    0.95813   0.97077   0.97632   0.98295   0.98875
 Alpha virt. eigenvalues --    0.99594   1.00796   1.01175   1.02465   1.02922
 Alpha virt. eigenvalues --    1.03356   1.03880   1.04441   1.05948   1.06593
 Alpha virt. eigenvalues --    1.07542   1.07557   1.08399   1.09519   1.10351
 Alpha virt. eigenvalues --    1.10599   1.11672   1.12088   1.12485   1.12849
 Alpha virt. eigenvalues --    1.13530   1.14196   1.15463   1.16111   1.16509
 Alpha virt. eigenvalues --    1.16759   1.17594   1.18593   1.18782   1.18788
 Alpha virt. eigenvalues --    1.20451   1.21973   1.23397   1.24173   1.25081
 Alpha virt. eigenvalues --    1.25245   1.26673   1.27703   1.28128   1.28710
 Alpha virt. eigenvalues --    1.29576   1.29851   1.30068   1.31182   1.32259
 Alpha virt. eigenvalues --    1.32664   1.33641   1.34648   1.35530   1.35862
 Alpha virt. eigenvalues --    1.36775   1.37619   1.38008   1.39253   1.39366
 Alpha virt. eigenvalues --    1.39830   1.40469   1.41528   1.42242   1.43177
 Alpha virt. eigenvalues --    1.43519   1.44243   1.45066   1.45265   1.47296
 Alpha virt. eigenvalues --    1.48794   1.49544   1.50028   1.50493   1.51620
 Alpha virt. eigenvalues --    1.52568   1.53891   1.54363   1.55257   1.55473
 Alpha virt. eigenvalues --    1.55943   1.57230   1.57768   1.58819   1.59240
 Alpha virt. eigenvalues --    1.60353   1.60869   1.62181   1.62675   1.63363
 Alpha virt. eigenvalues --    1.64116   1.65082   1.65710   1.66870   1.67285
 Alpha virt. eigenvalues --    1.68324   1.69282   1.69826   1.70095   1.70995
 Alpha virt. eigenvalues --    1.71507   1.72302   1.72579   1.73605   1.73800
 Alpha virt. eigenvalues --    1.73990   1.74584   1.75361   1.75663   1.75759
 Alpha virt. eigenvalues --    1.76310   1.76740   1.77695   1.78302   1.79130
 Alpha virt. eigenvalues --    1.79916   1.80002   1.80255   1.81131   1.81380
 Alpha virt. eigenvalues --    1.81521   1.82267   1.82987   1.83390   1.83798
 Alpha virt. eigenvalues --    1.84318   1.85162   1.85947   1.86279   1.86834
 Alpha virt. eigenvalues --    1.87765   1.88197   1.88694   1.89542   1.89689
 Alpha virt. eigenvalues --    1.90194   1.91090   1.91545   1.92454   1.93034
 Alpha virt. eigenvalues --    1.93705   1.94245   1.95011   1.95572   1.96181
 Alpha virt. eigenvalues --    1.96822   1.97232   1.97850   1.98225   1.99104
 Alpha virt. eigenvalues --    1.99841   2.00715   2.00859   2.01077   2.02081
 Alpha virt. eigenvalues --    2.03273   2.03873   2.05646   2.06396   2.06943
 Alpha virt. eigenvalues --    2.07269   2.07479   2.07921   2.08287   2.08792
 Alpha virt. eigenvalues --    2.10575   2.10999   2.12095   2.13048   2.14210
 Alpha virt. eigenvalues --    2.14730   2.15556   2.16969   2.17337   2.17629
 Alpha virt. eigenvalues --    2.18237   2.19692   2.19953   2.20356   2.21818
 Alpha virt. eigenvalues --    2.22953   2.23246   2.24313   2.25170   2.26713
 Alpha virt. eigenvalues --    2.26926   2.27761   2.28122   2.29810   2.30972
 Alpha virt. eigenvalues --    2.32040   2.32712   2.32886   2.33660   2.34426
 Alpha virt. eigenvalues --    2.35675   2.38139   2.38785   2.39224   2.39544
 Alpha virt. eigenvalues --    2.41158   2.41305   2.42890   2.43118   2.44625
 Alpha virt. eigenvalues --    2.46161   2.46830   2.48173   2.48461   2.49418
 Alpha virt. eigenvalues --    2.49713   2.50907   2.51644   2.52879   2.53302
 Alpha virt. eigenvalues --    2.53650   2.54050   2.54670   2.54932   2.55706
 Alpha virt. eigenvalues --    2.55959   2.57283   2.57752   2.58170   2.60410
 Alpha virt. eigenvalues --    2.61083   2.61482   2.62592   2.63328   2.63865
 Alpha virt. eigenvalues --    2.64315   2.66245   2.66774   2.67313   2.68754
 Alpha virt. eigenvalues --    2.69627   2.71134   2.72847   2.76299   2.77262
 Alpha virt. eigenvalues --    2.78554   2.82328   2.85583   2.87175   2.87987
 Alpha virt. eigenvalues --    2.90162   2.91002   2.91603   2.92541   2.93808
 Alpha virt. eigenvalues --    2.94408   2.96241   2.97617   2.98502   2.98985
 Alpha virt. eigenvalues --    2.99702   3.01628   3.03957   3.05846   3.06523
 Alpha virt. eigenvalues --    3.10488   3.32148   3.67825   3.72368   3.73790
 Alpha virt. eigenvalues --    3.77286   3.83257   3.87321   3.88453   3.96298
 Alpha virt. eigenvalues --    3.97931   4.00679   4.02616   4.04652   4.05043
 Alpha virt. eigenvalues --    4.06196   4.08894   4.09947   4.10898   4.13806
 Alpha virt. eigenvalues --    4.15718   4.17492   4.18661   4.22175   4.23353
 Alpha virt. eigenvalues --    4.27411   4.29260   4.31951   4.32760   4.34208
 Alpha virt. eigenvalues --    4.39950   4.41506   4.43409   4.44485   4.52401
 Alpha virt. eigenvalues --    4.55566   4.59395   4.61163   4.63936   4.65277
 Alpha virt. eigenvalues --    4.68518
          Condensed to atoms (all electrons):
 Mulliken charges:
               1
     1  N   -0.818221
     2  C   -0.110203
     3  C    0.636832
     4  O   -0.507742
     5  C   -0.418805
     6  C    0.633556
     7  N   -0.744083
     8  O   -0.534166
     9  H    0.428332
    10  H    0.219460
    11  H    0.209616
    12  H    0.214520
    13  H    0.363188
    14  H    0.356597
    15  H    0.414840
    16  H    0.439205
    17  N   -0.631556
    18  C   -0.083689
    19  C    0.634094
    20  O   -0.500137
    21  C   -0.374111
    22  C    0.170283
    23  C   -0.179066
    24  C   -0.197081
    25  C   -0.137895
    26  C   -0.134665
    27  C   -0.162095
    28  H    0.362864
    29  H    0.207684
    30  H    0.172062
    31  H    0.192093
    32  H    0.154770
    33  H    0.126820
    34  H    0.156068
    35  H    0.142503
    36  H    0.145325
    37  N   -0.639402
    38  C   -0.059069
    39  C    0.639495
    40  O   -0.592242
    41  C   -0.394269
    42  C    0.610020
    43  N   -0.738476
    44  O   -0.525535
    45  H    0.365641
    46  H    0.209959
    47  H    0.205273
    48  H    0.189733
    49  H    0.359077
    50  H    0.354173
    51  N   -0.559288
    52  C   -0.049219
    53  C    0.612369
    54  O   -0.584318
    55  C   -0.288492
    56  C   -0.308148
    57  C   -0.155433
    58  N   -0.605196
    59  C    0.767264
    60  N   -0.750755
    61  N   -0.762887
    62  O   -0.639143
    63  H    0.366143
    64  H    0.154531
    65  H    0.180407
    66  H    0.161382
    67  H    0.170747
    68  H    0.178210
    69  H    0.180699
    70  H    0.174857
    71  H    0.396334
    72  H    0.376321
    73  H    0.380248
    74  H    0.355876
    75  H    0.415920
 Sum of Mulliken charges =   1.00000
 Mulliken charges with hydrogens summed into heavy atoms:
               1
     1  N    0.464156
     2  C    0.109257
     3  C    0.636832
     4  O   -0.507742
     5  C    0.005331
     6  C    0.633556
     7  N   -0.024298
     8  O   -0.534166
    17  N   -0.268693
    18  C    0.123995
    19  C    0.634094
    20  O   -0.500137
    21  C   -0.009956
    22  C    0.170283
    23  C   -0.024296
    24  C   -0.070260
    25  C    0.018172
    26  C    0.007838
    27  C   -0.016770
    37  N   -0.273760
    38  C    0.150890
    39  C    0.639495
    40  O   -0.592242
    41  C    0.000737
    42  C    0.610020
    43  N   -0.025226
    44  O   -0.525535
    51  N   -0.193146
    52  C    0.105312
    53  C    0.612369
    54  O   -0.584318
    55  C    0.053297
    56  C    0.040809
    57  C    0.200122
    58  N   -0.208863
    59  C    0.767264
    60  N    0.005814
    61  N    0.008909
    62  O   -0.639143
 Electronic spatial extent (au):  <R**2>=         136146.6464
 Charge=              1.0000 electrons
 Dipole moment (field-independent basis, Debye):
    X=            -44.6004    Y=             -9.2044    Z=            -34.6187  Tot=             57.2047
 Quadrupole moment (field-independent basis, Debye-Ang):
   XX=            239.1161   YY=           -159.4025   ZZ=             98.5844
   XY=            119.2364   XZ=            293.3448   YZ=             88.3057
 Traceless Quadrupole moment (field-independent basis, Debye-Ang):
   XX=            179.6835   YY=           -218.8352   ZZ=             39.1517
   XY=            119.2364   XZ=            293.3448   YZ=             88.3057
 Octapole moment (field-independent basis, Debye-Ang**2):
  XXX=           -327.9965  YYY=            864.8606  ZZZ=           1483.3649  XYY=            886.2845
  XXY=          -1205.2511  XXZ=          -1212.6887  XZZ=           -783.5940  YZZ=           -711.4425
  YYZ=           1291.5532  XYZ=           -846.7354
 Hexadecapole moment (field-independent basis, Debye-Ang**3):
 XXXX=         -17283.9441 YYYY=          -9786.3230 ZZZZ=         -40369.2849 XXXY=          11467.2594
 XXXZ=          -4392.4162 YYYX=          -5677.2407 YYYZ=          -8177.0436 ZZZX=         -12979.8626
 ZZZY=           4384.8135 XXYY=          -6282.0690 XXZZ=          -5492.1133 YYZZ=         -12008.3373
 XXYZ=           6587.3027 YYXZ=          -8164.8443 ZZXY=           4958.6071
 N-N= 5.089919287084D+03 E-N=-1.462259127853D+04  KE= 1.899800007400D+03
 Unable to Open any file for archive entry.
 1\1\GINC-AMR-135\SP\RB3LYP\6-31G(d)\C23H36N9O7(1+)\KENGMITH\03-Jun-202
 2\0\\# B3LYP/6-31G* empiricaldispersion=gd3 guess=read geom=check nosy
 mm integral(ultrafinegrid)\\Candidate Structure: Conf:962 Charge calc 
 in gas phase\\1,1\N,0,-7.8435728072,0.8737700261,-8.8727707698\C,0,-6.
 5809495578,1.2158879983,-8.1271091184\C,0,-5.5388404406,0.0829804249,-
 8.1013659365\O,0,-4.4185512829,0.2944826237,-8.5464861558\C,0,-6.93824
 96991,1.6777806588,-6.7138453638\C,0,-7.7736819905,2.9542042464,-6.735
 3178549\N,0,-7.7465179311,3.6722889102,-5.5920654461\O,0,-8.4400606891
 ,3.2805069682,-7.7217869182\H,0,-8.4619553094,0.223334217,-8.317769301
 8\H,0,-6.1073487391,2.0240463439,-8.6858752035\H,0,-7.5093353121,0.899
 0604184,-6.1937326425\H,0,-6.0160915039,1.8193019859,-6.1438900895\H,0
 ,-8.291945234,4.5219284776,-5.5331952141\H,0,-7.1589329531,3.407742380
 2,-4.8132456643\H,0,-8.3522456617,1.7673598177,-8.9793247656\H,0,-7.62
 3764763,0.3935342464,-9.7686534824\N,0,-5.9158420105,-1.0966999045,-7.
 5319948042\C,0,-4.9091178639,-2.0532443437,-7.0597107062\C,0,-5.059876
 9491,-3.4766079569,-7.6484463161\O,0,-5.0995657822,-4.4490356887,-6.90
 89865335\C,0,-4.9468981134,-2.129809383,-5.5177280112\C,0,-4.988866694
 4,-0.7732502929,-4.8454140489\C,0,-3.9621932685,0.1673341938,-5.026358
 5619\C,0,-6.0686965264,-0.4250220189,-4.0235481704\C,0,-4.0095808254,1
 .4106182489,-4.3944272007\C,0,-6.1198463806,0.8156957407,-3.3809714442
 \C,0,-5.0876283283,1.7387594673,-3.56326926\H,0,-6.8052525194,-1.14409
 82991,-7.0494627159\H,0,-3.9481099557,-1.6559081879,-7.4008832738\H,0,
 -5.8226253167,-2.7208910812,-5.2333604636\H,0,-4.076666837,-2.70554021
 8,-5.1864113449\H,0,-3.119164453,-0.0731789328,-5.6686153041\H,0,-6.87
 5616038,-1.139487241,-3.8759013354\H,0,-3.1994572513,2.1195968362,-4.5
 404349958\H,0,-6.9573797042,1.0520883168,-2.7295674778\H,0,-5.10589321
 24,2.694871321,-3.0456529838\N,0,-5.0593703163,-3.6389776181,-9.013346
 9073\C,0,-5.2452642426,-2.6441013956,-10.0574452975\C,0,-6.6987791719,
 -2.1401272922,-10.1819034486\O,0,-6.9092828327,-1.0046978924,-10.63706
 52634\C,0,-4.7250238886,-3.1548567045,-11.4134066895\C,0,-5.4444358749
 ,-4.4137923329,-11.9040600822\N,0,-5.3500246802,-4.6558105958,-13.2341
 406314\O,0,-6.0513414659,-5.1650530257,-11.1408045612\H,0,-5.204913627
 4,-4.6021849537,-9.3042330417\H,0,-4.6699683826,-1.7466680359,-9.81514
 85621\H,0,-3.6567800211,-3.3853300335,-11.3160466001\H,0,-4.8191922067
 ,-2.344882149,-12.1449029903\H,0,-5.7370900389,-5.5175296447,-13.59492
 27602\H,0,-4.831867704,-4.060214201,-13.8629127819\N,0,-7.6743290887,-
 2.9722558323,-9.7554290897\C,0,-8.9440871329,-2.4486771703,-9.27031897
 94\C,0,-8.7726319099,-2.1085728347,-7.7757127066\O,0,-8.2454647877,-2.
 9893636562,-7.0562379155\C,0,-10.1043255581,-3.4438844247,-9.451629738
 4\C,0,-11.4856387726,-2.8360850752,-9.0870463476\C,0,-12.1078442666,-3
 .313931255,-7.7646968053\N,0,-11.2979325991,-2.9210523279,-6.601597209
 3\C,0,-10.9621363978,-3.7190598202,-5.5829502541\N,0,-11.7694821186,-4
 .7405890115,-5.2348525196\N,0,-9.8260988805,-3.4776907805,-4.919617180
 6\O,0,-9.1977135452,-0.9766865458,-7.3653334242\H,0,-7.3633402847,-3.8
 359076472,-9.32537687\H,0,-9.1592048137,-1.5433404123,-9.8402925\H,0,-
 10.1042165495,-3.7652242161,-10.4978518119\H,0,-9.8980951479,-4.335050
 61,-8.844946592\H,0,-11.4236074964,-1.7404691261,-9.0685673175\H,0,-12
 .2125893026,-3.0819281553,-9.8685596145\H,0,-13.1187837808,-2.89981070
 81,-7.6677204407\H,0,-12.1893436133,-4.4060108998,-7.7678945867\H,0,-1
 0.7655718389,-2.051716661,-6.6806448025\H,0,-11.4552845046,-5.45873071
 26,-4.5988830656\H,0,-12.7447092619,-4.743445898,-5.4956941702\H,0,-9.
 617514885,-4.0018839083,-4.081006907\H,0,-9.034139974,-3.1324328858,-5
 .4995270537\\Version=ES64L-G16RevC.01\HF=-1917.5185994\RMSD=6.288e-10\
 Dipole=-3.9606988,-0.7186352,0.8818494\Quadrupole=133.5902479,-162.698
 6007,29.1083528,88.6493226,218.0946991,65.6531004\PG=C01 [X(C23H36N9O7
 )]\\@
 The archive entry for this job was punched.


 Other things may change us, but we start and end with family.
 -- Anthony Brandt
 Job cpu time:       0 days  0 hours  4 minutes 17.2 seconds.
 Elapsed time:       0 days  0 hours  1 minutes  5.2 seconds.
 File lengths (MBytes):  RWF=    344 Int=      0 D2E=      0 Chk=     48 Scr=     16
 Normal termination of Gaussian 16 at Fri Jun  3 06:01:07 2022.
