 Entering Gaussian System, Link 0=/opt/software/Gaussian/g16-AVX2-C.01/g16/g16
 Input=charge-conf-197.com
 Output=charge-conf-197.log
 Initial command:
 /opt/software/Gaussian/g16-AVX2-C.01/g16/l1.exe "/mnt/gs18/scratch/users/kengmith/Gau-96332.inp" -scrdir="/mnt/gs18/scratch/users/kengmith/"
 Entering Link 1 = /opt/software/Gaussian/g16-AVX2-C.01/g16/l1.exe PID=     96342.
  
 Copyright (c) 1988-2019, Gaussian, Inc.  All Rights Reserved.
  
 This is part of the Gaussian(R) 16 program.  It is based on
 the Gaussian(R) 09 system (copyright 2009, Gaussian, Inc.),
 the Gaussian(R) 03 system (copyright 2003, Gaussian, Inc.),
 the Gaussian(R) 98 system (copyright 1998, Gaussian, Inc.),
 the Gaussian(R) 94 system (copyright 1995, Gaussian, Inc.),
 the Gaussian 92(TM) system (copyright 1992, Gaussian, Inc.),
 the Gaussian 90(TM) system (copyright 1990, Gaussian, Inc.),
 the Gaussian 88(TM) system (copyright 1988, Gaussian, Inc.),
 the Gaussian 86(TM) system (copyright 1986, Carnegie Mellon
 University), and the Gaussian 82(TM) system (copyright 1983,
 Carnegie Mellon University). Gaussian is a federally registered
 trademark of Gaussian, Inc.
  
 This software contains proprietary and confidential information,
 including trade secrets, belonging to Gaussian, Inc.
  
 This software is provided under written license and may be
 used, copied, transmitted, or stored only in accord with that
 written license.
  
 The following legend is applicable only to US Government
 contracts under FAR:
  
                    RESTRICTED RIGHTS LEGEND
  
 Use, reproduction and disclosure by the US Government is
 subject to restrictions as set forth in subparagraphs (a)
 and (c) of the Commercial Computer Software - Restricted
 Rights clause in FAR 52.227-19.
  
 Gaussian, Inc.
 340 Quinnipiac St., Bldg. 40, Wallingford CT 06492
  
  
 ---------------------------------------------------------------
 Warning -- This program may not be used in any manner that
 competes with the business of Gaussian, Inc. or will provide
 assistance to any competitor of Gaussian, Inc.  The licensee
 of this program is prohibited from giving any competitor of
 Gaussian, Inc. access to this program.  By using this program,
 the user acknowledges that Gaussian, Inc. is engaged in the
 business of creating and licensing software in the field of
 computational chemistry and represents and warrants to the
 licensee that it is not a competitor of Gaussian, Inc. and that
 it will not use this program in any manner prohibited above.
 ---------------------------------------------------------------
  

 Cite this work as:
 Gaussian 16, Revision C.01,
 M. J. Frisch, G. W. Trucks, H. B. Schlegel, G. E. Scuseria, 
 M. A. Robb, J. R. Cheeseman, G. Scalmani, V. Barone, 
 G. A. Petersson, H. Nakatsuji, X. Li, M. Caricato, A. V. Marenich, 
 J. Bloino, B. G. Janesko, R. Gomperts, B. Mennucci, H. P. Hratchian, 
 J. V. Ortiz, A. F. Izmaylov, J. L. Sonnenberg, D. Williams-Young, 
 F. Ding, F. Lipparini, F. Egidi, J. Goings, B. Peng, A. Petrone, 
 T. Henderson, D. Ranasinghe, V. G. Zakrzewski, J. Gao, N. Rega, 
 G. Zheng, W. Liang, M. Hada, M. Ehara, K. Toyota, R. Fukuda, 
 J. Hasegawa, M. Ishida, T. Nakajima, Y. Honda, O. Kitao, H. Nakai, 
 T. Vreven, K. Throssell, J. A. Montgomery, Jr., J. E. Peralta, 
 F. Ogliaro, M. J. Bearpark, J. J. Heyd, E. N. Brothers, K. N. Kudin, 
 V. N. Staroverov, T. A. Keith, R. Kobayashi, J. Normand, 
 K. Raghavachari, A. P. Rendell, J. C. Burant, S. S. Iyengar, 
 J. Tomasi, M. Cossi, J. M. Millam, M. Klene, C. Adamo, R. Cammi, 
 J. W. Ochterski, R. L. Martin, K. Morokuma, O. Farkas, 
 J. B. Foresman, and D. J. Fox, Gaussian, Inc., Wallingford CT, 2019.
 
 ******************************************
 Gaussian 16:  ES64L-G16RevC.01  3-Jul-2019
                 3-Jun-2022 
 ******************************************
 %mem=8gb
 %nproc=4
 Will use up to    4 processors via shared memory.
 %chk=conf-197.chk
 ----------------------------------------------------------------------
 # B3LYP/6-31G* empiricaldispersion=gd3 guess=read geom=check nosymm in
 tegral(ultrafinegrid)
 ----------------------------------------------------------------------
 1/29=2,38=1,172=1/1;
 2/12=2,15=1,40=1/2;
 3/5=1,6=6,7=1,11=2,14=-4,25=1,30=1,74=-5,75=-5,116=-2,124=31/1,2,3;
 4/5=1/1;
 5/5=2,38=6/2;
 6/7=2,8=2,9=2,10=2,28=1/1;
 99/5=1,9=1/99;
 ------------------------------------------------------
 Candidate Structure: Conf:197 Charge calc in gas phase
 ------------------------------------------------------
 Structure from the checkpoint file:  "conf-197.chk"
 Charge =  1 Multiplicity = 1
 Redundant internal coordinates found in file.  (old form).
 N,0,-4.4445026265,-1.0276600997,-6.9080661477
 C,0,-4.488558373,-2.5283185886,-6.9135810712
 C,0,-5.5566137629,-3.1229190588,-7.8458067725
 O,0,-5.2410083273,-3.9930742176,-8.6482720163
 C,0,-4.7141160687,-3.024102894,-5.481217441
 C,0,-3.5772862064,-2.6158002246,-4.5492411234
 N,0,-3.4408291711,-3.37900545,-3.4455519661
 O,0,-2.8571143224,-1.640823306,-4.7880559542
 H,0,-5.3660807679,-0.6301562842,-6.5467258281
 H,0,-3.5277715527,-2.8750800325,-7.2966014791
 H,0,-5.6503657942,-2.6109604167,-5.087814421
 H,0,-4.8390667235,-4.11006538,-5.4990835389
 H,0,-2.7408170922,-3.1288696187,-2.7595141953
 H,0,-4.0424837216,-4.172095586,-3.2701786442
 H,0,-3.6741539785,-0.7779234845,-6.2593289465
 H,0,-4.3232325601,-0.6546142395,-7.8628901453
 N,0,-6.8393985973,-2.6973240527,-7.6621453032
 C,0,-7.9528764499,-3.5126171888,-8.1310409873
 C,0,-8.9147256015,-2.7395351895,-9.0463149101
 O,0,-10.1407129037,-2.7780129322,-8.8558944466
 C,0,-8.7145629547,-4.1360396467,-6.9401582614
 C,0,-7.8050434785,-4.8188776568,-5.9382413696
 C,0,-6.9537009029,-5.8675892581,-6.3189048327
 C,0,-7.8042862489,-4.4116729029,-4.5983147827
 C,0,-6.1295685134,-6.4936958746,-5.3828706746
 C,0,-6.9876055357,-5.0407092599,-3.6540945008
 C,0,-6.1465128326,-6.0854011882,-4.0440826357
 H,0,-7.0354807481,-1.9639980774,-6.9731883529
 H,0,-7.5022113036,-4.301800864,-8.7431336023
 H,0,-9.2815476305,-3.346791289,-6.4344842041
 H,0,-9.4582604038,-4.8342900121,-7.3388404313
 H,0,-6.9277250655,-6.1974614736,-7.3539261138
 H,0,-8.4547384003,-3.5982098425,-4.2855804754
 H,0,-5.4828930848,-7.3084281032,-5.6958642551
 H,0,-7.0217297331,-4.7217176291,-2.6157421879
 H,0,-5.5267722545,-6.5958402728,-3.3110216546
 N,0,-8.4230204408,-2.0307611536,-10.0943278258
 C,0,-7.0547366437,-1.6439350673,-10.4229116525
 C,0,-6.4802089691,-0.5274182106,-9.5206243377
 O,0,-5.254535243,-0.3779996772,-9.4583029409
 C,0,-6.9902857635,-1.1807375692,-11.8952546506
 C,0,-7.8837458785,0.029328475,-12.1808290114
 N,0,-7.3871040509,0.9493626335,-13.0298581536
 O,0,-9.005521772,0.1514292731,-11.6659229992
 H,0,-9.1264372474,-1.5326182603,-10.6348250014
 H,0,-6.3805694131,-2.4958669072,-10.3060758896
 H,0,-7.3215502619,-2.0023672167,-12.5419716996
 H,0,-5.9448475505,-0.9684663555,-12.1357192252
 H,0,-7.9768548048,1.7228940585,-13.3095038542
 H,0,-6.4829883204,0.8539175726,-13.4695151565
 N,0,-7.3844161474,0.2431432452,-8.8878635053
 C,0,-7.0911697173,1.2619346657,-7.8787619117
 C,0,-7.5633167078,0.6761626243,-6.4964061966
 O,0,-8.5466970222,1.1663382344,-5.9064460879
 C,0,-7.5993836182,2.6794197148,-8.2767069076
 C,0,-8.7282126167,2.7916808425,-9.3297955192
 C,0,-10.1627127866,2.7136071693,-8.7779777631
 N,0,-10.3562726633,1.6187928951,-7.8307275044
 C,0,-10.6769789131,0.3562503689,-8.1108671905
 N,0,-11.0565182817,-0.0453053561,-9.3405156471
 N,0,-10.6588638667,-0.5449959107,-7.1110642486
 O,0,-6.9012803151,-0.3396673376,-6.0998779969
 H,0,-8.3539192388,0.0143415203,-9.0536886134
 H,0,-6.0008054225,1.3067440994,-7.8300102022
 H,0,-7.8813479916,3.2039255513,-7.3566776057
 H,0,-6.7364238363,3.2153256477,-8.6841355265
 H,0,-8.6370807646,3.7652438868,-9.8258748795
 H,0,-8.5888226547,2.0415992897,-10.1148877104
 H,0,-10.3995745598,3.6287738874,-8.2267582274
 H,0,-10.8974193547,2.6399489856,-9.5862847915
 H,0,-9.8262529199,1.7185113782,-6.9492030862
 H,0,-11.1369012148,-1.049976224,-9.4854960991
 H,0,-10.8037402282,0.5010017105,-10.1535770281
 H,0,-10.6910650491,-1.5316345741,-7.3495663599
 H,0,-10.2288474371,-0.2699574845,-6.2328708802
 Recover connectivity data from disk.
                           ----------------------------
                           !    Current Parameters    !
                           ! (Angstroms and Degrees)  !
 --------------------------                            --------------------------
 ! Name  Definition              Value                                          !
 --------------------------------------------------------------------------------
 ! R1    R(1,2)                  1.5013                                         !
 ! R2    R(1,9)                  1.0667                                         !
 ! R3    R(1,15)                 1.0376                                         !
 ! R4    R(1,16)                 1.0323                                         !
 ! R5    R(2,3)                  1.5373                                         !
 ! R6    R(2,5)                  1.5324                                         !
 ! R7    R(2,10)                 1.0909                                         !
 ! R8    R(3,4)                  1.225                                          !
 ! R9    R(3,17)                 1.364                                          !
 ! R10   R(5,6)                  1.5257                                         !
 ! R11   R(5,11)                 1.0964                                         !
 ! R12   R(5,12)                 1.0933                                         !
 ! R13   R(6,7)                  1.3488                                         !
 ! R14   R(6,8)                  1.2354                                         !
 ! R15   R(7,13)                 1.0115                                         !
 ! R16   R(7,14)                 1.0108                                         !
 ! R17   R(17,18)                1.4575                                         !
 ! R18   R(17,28)                1.0251                                         !
 ! R19   R(18,19)                1.5364                                         !
 ! R20   R(18,21)                1.545                                          !
 ! R21   R(18,29)                1.0957                                         !
 ! R22   R(19,20)                1.2413                                         !
 ! R23   R(19,37)                1.3574                                         !
 ! R24   R(21,22)                1.5157                                         !
 ! R25   R(21,30)                1.0955                                         !
 ! R26   R(21,31)                1.0953                                         !
 ! R27   R(22,23)                1.4034                                         !
 ! R28   R(22,24)                1.4004                                         !
 ! R29   R(23,25)                1.3955                                         !
 ! R30   R(23,32)                1.0866                                         !
 ! R31   R(24,26)                1.3979                                         !
 ! R32   R(24,33)                1.0875                                         !
 ! R33   R(25,27)                1.3998                                         !
 ! R34   R(25,34)                1.0863                                         !
 ! R35   R(26,27)                1.3967                                         !
 ! R36   R(26,35)                1.0868                                         !
 ! R37   R(27,36)                1.0872                                         !
 ! R38   R(37,38)                1.4594                                         !
 ! R39   R(37,45)                1.0174                                         !
 ! R40   R(38,39)                1.5462                                         !
 ! R41   R(38,41)                1.5448                                         !
 ! R42   R(38,46)                1.0927                                         !
 ! R43   R(39,40)                1.2363                                         !
 ! R44   R(39,51)                1.346                                          !
 ! R45   R(41,42)                1.531                                          !
 ! R46   R(41,47)                1.0968                                         !
 ! R47   R(41,48)                1.0935                                         !
 ! R48   R(42,43)                1.3468                                         !
 ! R49   R(42,44)                1.2403                                         !
 ! R50   R(43,49)                1.0121                                         !
 ! R51   R(43,50)                1.0099                                         !
 ! R52   R(51,52)                1.4636                                         !
 ! R53   R(51,63)                1.0098                                         !
 ! R54   R(52,53)                1.5738                                         !
 ! R55   R(52,55)                1.5575                                         !
 ! R56   R(52,64)                1.0924                                         !
 ! R57   R(53,54)                1.2471                                         !
 ! R58   R(53,62)                1.2757                                         !
 ! R59   R(55,56)                1.5479                                         !
 ! R60   R(55,65)                1.0959                                         !
 ! R61   R(55,66)                1.0945                                         !
 ! R62   R(56,57)                1.539                                          !
 ! R63   R(56,67)                1.0965                                         !
 ! R64   R(56,68)                1.0947                                         !
 ! R65   R(57,58)                1.4606                                         !
 ! R66   R(57,69)                1.0943                                         !
 ! R67   R(57,70)                1.0948                                         !
 ! R68   R(58,59)                1.3324                                         !
 ! R69   R(58,71)                1.0334                                         !
 ! R70   R(59,60)                1.3481                                         !
 ! R71   R(59,61)                1.3462                                         !
 ! R72   R(60,72)                1.0183                                         !
 ! R73   R(60,73)                1.0116                                         !
 ! R74   R(61,74)                1.0156                                         !
 ! R75   R(61,75)                1.0158                                         !
 ! A1    A(2,1,9)              110.3878                                         !
 ! A2    A(2,1,15)             105.3467                                         !
 ! A3    A(2,1,16)             111.1788                                         !
 ! A4    A(9,1,15)             109.8725                                         !
 ! A5    A(9,1,16)             106.2696                                         !
 ! A6    A(15,1,16)            113.8357                                         !
 ! A7    A(1,2,3)              114.1561                                         !
 ! A8    A(1,2,5)              108.9215                                         !
 ! A9    A(1,2,10)             107.0481                                         !
 ! A10   A(3,2,5)              109.8407                                         !
 ! A11   A(3,2,10)             106.0238                                         !
 ! A12   A(5,2,10)             110.7918                                         !
 ! A13   A(2,3,4)              119.5357                                         !
 ! A14   A(2,3,17)             116.812                                          !
 ! A15   A(4,3,17)             123.5136                                         !
 ! A16   A(2,5,6)              112.0067                                         !
 ! A17   A(2,5,11)             109.8265                                         !
 ! A18   A(2,5,12)             108.8391                                         !
 ! A19   A(6,5,11)             108.4377                                         !
 ! A20   A(6,5,12)             111.1602                                         !
 ! A21   A(11,5,12)            106.4139                                         !
 ! A22   A(5,6,7)              115.0754                                         !
 ! A23   A(5,6,8)              121.8358                                         !
 ! A24   A(7,6,8)              123.0767                                         !
 ! A25   A(6,7,13)             119.0159                                         !
 ! A26   A(6,7,14)             121.7166                                         !
 ! A27   A(13,7,14)            119.226                                          !
 ! A28   A(3,17,18)            120.0412                                         !
 ! A29   A(3,17,28)            119.5774                                         !
 ! A30   A(18,17,28)           118.0491                                         !
 ! A31   A(17,18,19)           112.8581                                         !
 ! A32   A(17,18,21)           110.7546                                         !
 ! A33   A(17,18,29)           105.5682                                         !
 ! A34   A(19,18,21)           110.7066                                         !
 ! A35   A(19,18,29)           106.6854                                         !
 ! A36   A(21,18,29)           110.0435                                         !
 ! A37   A(18,19,20)           120.7531                                         !
 ! A38   A(18,19,37)           119.7299                                         !
 ! A39   A(20,19,37)           119.4993                                         !
 ! A40   A(18,21,22)           113.2954                                         !
 ! A41   A(18,21,30)           108.6779                                         !
 ! A42   A(18,21,31)           108.1452                                         !
 ! A43   A(22,21,30)           109.2698                                         !
 ! A44   A(22,21,31)           111.1533                                         !
 ! A45   A(30,21,31)           106.0154                                         !
 ! A46   A(21,22,23)           121.4246                                         !
 ! A47   A(21,22,24)           120.1189                                         !
 ! A48   A(23,22,24)           118.456                                          !
 ! A49   A(22,23,25)           120.7703                                         !
 ! A50   A(22,23,32)           119.9815                                         !
 ! A51   A(25,23,32)           119.2476                                         !
 ! A52   A(22,24,26)           121.0465                                         !
 ! A53   A(22,24,33)           119.494                                          !
 ! A54   A(26,24,33)           119.4579                                         !
 ! A55   A(23,25,27)           120.2332                                         !
 ! A56   A(23,25,34)           119.6585                                         !
 ! A57   A(27,25,34)           120.1041                                         !
 ! A58   A(24,26,27)           119.9844                                         !
 ! A59   A(24,26,35)           119.6646                                         !
 ! A60   A(27,26,35)           120.3455                                         !
 ! A61   A(25,27,26)           119.5053                                         !
 ! A62   A(25,27,36)           120.0691                                         !
 ! A63   A(26,27,36)           120.4083                                         !
 ! A64   A(19,37,38)           130.6833                                         !
 ! A65   A(19,37,45)           114.5439                                         !
 ! A66   A(38,37,45)           113.5056                                         !
 ! A67   A(37,38,39)           114.1035                                         !
 ! A68   A(37,38,41)           109.4618                                         !
 ! A69   A(37,38,46)           110.3489                                         !
 ! A70   A(39,38,41)           108.914                                          !
 ! A71   A(39,38,46)           105.7445                                         !
 ! A72   A(41,38,46)           108.0558                                         !
 ! A73   A(38,39,40)           119.016                                          !
 ! A74   A(38,39,51)           115.9826                                         !
 ! A75   A(40,39,51)           124.9666                                         !
 ! A76   A(38,41,42)           112.9795                                         !
 ! A77   A(38,41,47)           108.9503                                         !
 ! A78   A(38,41,48)           107.9186                                         !
 ! A79   A(42,41,47)           107.8077                                         !
 ! A80   A(42,41,48)           111.3129                                         !
 ! A81   A(47,41,48)           107.7273                                         !
 ! A82   A(41,42,43)           116.2502                                         !
 ! A83   A(41,42,44)           121.881                                          !
 ! A84   A(43,42,44)           121.8672                                         !
 ! A85   A(42,43,49)           118.7765                                         !
 ! A86   A(42,43,50)           122.6848                                         !
 ! A87   A(49,43,50)           118.2696                                         !
 ! A88   A(39,51,52)           126.0156                                         !
 ! A89   A(39,51,63)           115.9783                                         !
 ! A90   A(52,51,63)           117.5987                                         !
 ! A91   A(51,52,53)           106.6419                                         !
 ! A92   A(51,52,55)           113.0763                                         !
 ! A93   A(51,52,64)           105.0291                                         !
 ! A94   A(53,52,55)           117.7266                                         !
 ! A95   A(53,52,64)           105.9927                                         !
 ! A96   A(55,52,64)           107.4435                                         !
 ! A97   A(52,53,54)           120.3818                                         !
 ! A98   A(52,53,62)           114.4375                                         !
 ! A99   A(54,53,62)           125.109                                          !
 ! A100  A(52,55,56)           118.5416                                         !
 ! A101  A(52,55,65)           107.7595                                         !
 ! A102  A(52,55,66)           106.4666                                         !
 ! A103  A(56,55,65)           110.4146                                         !
 ! A104  A(56,55,66)           106.6328                                         !
 ! A105  A(65,55,66)           106.3215                                         !
 ! A106  A(55,56,57)           115.6044                                         !
 ! A107  A(55,56,67)           108.1557                                         !
 ! A108  A(55,56,68)           110.2043                                         !
 ! A109  A(57,56,67)           106.5437                                         !
 ! A110  A(57,56,68)           109.9424                                         !
 ! A111  A(67,56,68)           105.8624                                         !
 ! A112  A(56,57,58)           113.2095                                         !
 ! A113  A(56,57,69)           109.8739                                         !
 ! A114  A(56,57,70)           111.3594                                         !
 ! A115  A(58,57,69)           105.7536                                         !
 ! A116  A(58,57,70)           109.8439                                         !
 ! A117  A(69,57,70)           106.4343                                         !
 ! A118  A(57,58,59)           127.2861                                         !
 ! A119  A(57,58,71)           114.3881                                         !
 ! A120  A(59,58,71)           113.2178                                         !
 ! A121  A(58,59,60)           122.8057                                         !
 ! A122  A(58,59,61)           118.3585                                         !
 ! A123  A(60,59,61)           118.8042                                         !
 ! A124  A(59,60,72)           116.487                                          !
 ! A125  A(59,60,73)           120.1252                                         !
 ! A126  A(72,60,73)           115.9833                                         !
 ! A127  A(59,61,74)           118.3965                                         !
 ! A128  A(59,61,75)           117.8093                                         !
 ! A129  A(74,61,75)           118.654                                          !
 ! D1    D(9,1,2,3)             62.6266                                         !
 ! D2    D(9,1,2,5)            -60.5329                                         !
 ! D3    D(9,1,2,10)           179.6248                                         !
 ! D4    D(15,1,2,3)          -178.8151                                         !
 ! D5    D(15,1,2,5)            58.0255                                         !
 ! D6    D(15,1,2,10)          -61.8169                                         !
 ! D7    D(16,1,2,3)           -55.053                                          !
 ! D8    D(16,1,2,5)          -178.2125                                         !
 ! D9    D(16,1,2,10)           61.9452                                         !
 ! D10   D(1,2,3,4)            129.3272                                         !
 ! D11   D(1,2,3,17)           -54.8032                                         !
 ! D12   D(5,2,3,4)           -108.013                                          !
 ! D13   D(5,2,3,17)            67.8566                                         !
 ! D14   D(10,2,3,4)            11.7396                                         !
 ! D15   D(10,2,3,17)         -172.3907                                         !
 ! D16   D(1,2,5,6)            -61.898                                          !
 ! D17   D(1,2,5,11)            58.6554                                         !
 ! D18   D(1,2,5,12)           174.7845                                         !
 ! D19   D(3,2,5,6)            172.3986                                         !
 ! D20   D(3,2,5,11)           -67.0481                                         !
 ! D21   D(3,2,5,12)            49.0811                                         !
 ! D22   D(10,2,5,6)            55.5969                                         !
 ! D23   D(10,2,5,11)          176.1503                                         !
 ! D24   D(10,2,5,12)          -67.7206                                         !
 ! D25   D(2,3,17,18)         -158.0066                                         !
 ! D26   D(2,3,17,28)            4.3222                                         !
 ! D27   D(4,3,17,18)           17.6829                                         !
 ! D28   D(4,3,17,28)         -179.9883                                         !
 ! D29   D(2,5,6,7)           -157.2129                                         !
 ! D30   D(2,5,6,8)             24.0179                                         !
 ! D31   D(11,5,6,7)            81.4305                                         !
 ! D32   D(11,5,6,8)           -97.3388                                         !
 ! D33   D(12,5,6,7)           -35.2135                                         !
 ! D34   D(12,5,6,8)           146.0173                                         !
 ! D35   D(5,6,7,13)          -176.4488                                         !
 ! D36   D(5,6,7,14)             1.1879                                         !
 ! D37   D(8,6,7,13)             2.3034                                         !
 ! D38   D(8,6,7,14)           179.94                                           !
 ! D39   D(3,17,18,19)        -126.1986                                         !
 ! D40   D(3,17,18,21)         109.0445                                         !
 ! D41   D(3,17,18,29)         -10.0373                                         !
 ! D42   D(28,17,18,19)         71.2069                                         !
 ! D43   D(28,17,18,21)        -53.55                                           !
 ! D44   D(28,17,18,29)       -172.6318                                         !
 ! D45   D(17,18,19,20)       -131.4197                                         !
 ! D46   D(17,18,19,37)         50.119                                          !
 ! D47   D(21,18,19,20)         -6.6366                                         !
 ! D48   D(21,18,19,37)        174.9021                                         !
 ! D49   D(29,18,19,20)        113.0864                                         !
 ! D50   D(29,18,19,37)        -65.3749                                         !
 ! D51   D(17,18,21,22)        -49.3751                                         !
 ! D52   D(17,18,21,30)         72.2824                                         !
 ! D53   D(17,18,21,31)       -173.0557                                         !
 ! D54   D(19,18,21,22)       -175.3435                                         !
 ! D55   D(19,18,21,30)        -53.686                                          !
 ! D56   D(19,18,21,31)         60.9759                                         !
 ! D57   D(29,18,21,22)         66.9696                                         !
 ! D58   D(29,18,21,30)       -171.3729                                         !
 ! D59   D(29,18,21,31)        -56.711                                          !
 ! D60   D(18,19,37,38)        -12.5666                                         !
 ! D61   D(18,19,37,45)       -178.6731                                         !
 ! D62   D(20,19,37,38)        168.9526                                         !
 ! D63   D(20,19,37,45)          2.8462                                         !
 ! D64   D(18,21,22,23)        -58.2174                                         !
 ! D65   D(18,21,22,24)        122.0381                                         !
 ! D66   D(30,21,22,23)       -179.5427                                         !
 ! D67   D(30,21,22,24)          0.7128                                         !
 ! D68   D(31,21,22,23)         63.7994                                         !
 ! D69   D(31,21,22,24)       -115.9451                                         !
 ! D70   D(21,22,23,25)       -179.4908                                         !
 ! D71   D(21,22,23,32)          0.805                                          !
 ! D72   D(24,22,23,25)          0.2578                                         !
 ! D73   D(24,22,23,32)       -179.4463                                         !
 ! D74   D(21,22,24,26)        179.0647                                         !
 ! D75   D(21,22,24,33)         -0.4697                                         !
 ! D76   D(23,22,24,26)         -0.6873                                         !
 ! D77   D(23,22,24,33)        179.7783                                         !
 ! D78   D(22,23,25,27)          0.3009                                         !
 ! D79   D(22,23,25,34)        179.5583                                         !
 ! D80   D(32,23,25,27)       -179.9929                                         !
 ! D81   D(32,23,25,34)         -0.7354                                         !
 ! D82   D(22,24,26,27)          0.5575                                         !
 ! D83   D(22,24,26,35)       -178.5947                                         !
 ! D84   D(33,24,26,27)       -179.9079                                         !
 ! D85   D(33,24,26,35)          0.9399                                         !
 ! D86   D(23,25,27,26)         -0.4373                                         !
 ! D87   D(23,25,27,36)        178.0569                                         !
 ! D88   D(34,25,27,26)       -179.6914                                         !
 ! D89   D(34,25,27,36)         -1.1972                                         !
 ! D90   D(24,26,27,25)          0.0132                                         !
 ! D91   D(24,26,27,36)       -178.4758                                         !
 ! D92   D(35,26,27,25)        179.1596                                         !
 ! D93   D(35,26,27,36)          0.6706                                         !
 ! D94   D(19,37,38,39)        -72.7634                                         !
 ! D95   D(19,37,38,41)        164.9112                                         !
 ! D96   D(19,37,38,46)         46.117                                          !
 ! D97   D(45,37,38,39)         93.457                                          !
 ! D98   D(45,37,38,41)        -28.8683                                         !
 ! D99   D(45,37,38,46)       -147.6625                                         !
 ! D100  D(37,38,39,40)        160.4242                                         !
 ! D101  D(37,38,39,51)        -21.6147                                         !
 ! D102  D(41,38,39,40)        -76.9509                                         !
 ! D103  D(41,38,39,51)        101.0102                                         !
 ! D104  D(46,38,39,40)         38.9622                                         !
 ! D105  D(46,38,39,51)       -143.0767                                         !
 ! D106  D(37,38,41,42)         60.6306                                         !
 ! D107  D(37,38,41,47)        -59.1593                                         !
 ! D108  D(37,38,41,48)       -175.8627                                         !
 ! D109  D(39,38,41,42)        -64.7452                                         !
 ! D110  D(39,38,41,47)        175.4649                                         !
 ! D111  D(39,38,41,48)         58.7615                                         !
 ! D112  D(46,38,41,42)       -179.1635                                         !
 ! D113  D(46,38,41,47)         61.0466                                         !
 ! D114  D(46,38,41,48)        -55.6568                                         !
 ! D115  D(38,39,51,52)        173.0704                                         !
 ! D116  D(38,39,51,63)          0.6122                                         !
 ! D117  D(40,39,51,52)         -9.1054                                         !
 ! D118  D(40,39,51,63)        178.4364                                         !
 ! D119  D(38,41,42,43)        141.7395                                         !
 ! D120  D(38,41,42,44)        -38.7051                                         !
 ! D121  D(47,41,42,43)        -97.8161                                         !
 ! D122  D(47,41,42,44)         81.7393                                         !
 ! D123  D(48,41,42,43)         20.1278                                         !
 ! D124  D(48,41,42,44)       -160.3168                                         !
 ! D125  D(41,42,43,49)        174.6704                                         !
 ! D126  D(41,42,43,50)          0.7377                                         !
 ! D127  D(44,42,43,49)         -4.8851                                         !
 ! D128  D(44,42,43,50)       -178.8178                                         !
 ! D129  D(39,51,52,53)       -107.4941                                         !
 ! D130  D(39,51,52,55)        121.5729                                         !
 ! D131  D(39,51,52,64)          4.7157                                         !
 ! D132  D(63,51,52,53)         64.855                                          !
 ! D133  D(63,51,52,55)        -66.078                                          !
 ! D134  D(63,51,52,64)        177.0648                                         !
 ! D135  D(51,52,53,54)       -111.0517                                         !
 ! D136  D(51,52,53,62)         66.0226                                         !
 ! D137  D(55,52,53,54)         17.2108                                         !
 ! D138  D(55,52,53,62)       -165.7149                                         !
 ! D139  D(64,52,53,54)        137.4045                                         !
 ! D140  D(64,52,53,62)        -45.5212                                         !
 ! D141  D(51,52,55,56)         21.4934                                         !
 ! D142  D(51,52,55,65)        147.7311                                         !
 ! D143  D(51,52,55,66)        -98.542                                          !
 ! D144  D(53,52,55,56)       -103.649                                          !
 ! D145  D(53,52,55,65)         22.5887                                         !
 ! D146  D(53,52,55,66)        136.3156                                         !
 ! D147  D(64,52,55,56)        136.9178                                         !
 ! D148  D(64,52,55,65)        -96.8445                                         !
 ! D149  D(64,52,55,66)         16.8824                                         !
 ! D150  D(52,55,56,57)         87.0973                                         !
 ! D151  D(52,55,56,67)       -153.5986                                         !
 ! D152  D(52,55,56,68)        -38.3091                                         !
 ! D153  D(65,55,56,57)        -37.8567                                         !
 ! D154  D(65,55,56,67)         81.4474                                         !
 ! D155  D(65,55,56,68)       -163.2631                                         !
 ! D156  D(66,55,56,57)       -152.9529                                         !
 ! D157  D(66,55,56,67)        -33.6487                                         !
 ! D158  D(66,55,56,68)         81.6407                                         !
 ! D159  D(55,56,57,58)        -46.62                                           !
 ! D160  D(55,56,57,69)         71.357                                          !
 ! D161  D(55,56,57,70)       -170.9726                                         !
 ! D162  D(67,56,57,58)       -166.8055                                         !
 ! D163  D(67,56,57,69)        -48.8286                                         !
 ! D164  D(67,56,57,70)         68.8419                                         !
 ! D165  D(68,56,57,58)         78.9207                                         !
 ! D166  D(68,56,57,69)       -163.1023                                         !
 ! D167  D(68,56,57,70)        -45.4318                                         !
 ! D168  D(56,57,58,59)        -86.7308                                         !
 ! D169  D(56,57,58,71)         66.0476                                         !
 ! D170  D(69,57,58,59)        152.919                                          !
 ! D171  D(69,57,58,71)        -54.3026                                         !
 ! D172  D(70,57,58,59)         38.4426                                         !
 ! D173  D(70,57,58,71)       -168.779                                          !
 ! D174  D(57,58,59,60)         -9.6899                                         !
 ! D175  D(57,58,59,61)        172.382                                          !
 ! D176  D(71,58,59,60)       -162.7324                                         !
 ! D177  D(71,58,59,61)         19.3395                                         !
 ! D178  D(58,59,60,72)        170.6126                                         !
 ! D179  D(58,59,60,73)         21.8448                                         !
 ! D180  D(61,59,60,72)        -11.4681                                         !
 ! D181  D(61,59,60,73)       -160.236                                          !
 ! D182  D(58,59,61,74)       -166.1746                                         !
 ! D183  D(58,59,61,75)        -11.8275                                         !
 ! D184  D(60,59,61,74)         15.8127                                         !
 ! D185  D(60,59,61,75)        170.1599                                         !
 --------------------------------------------------------------------------------
 Symmetry turned off by external request.
 Stoichiometry    C23H36N9O7(1+)
 Framework group  C1[X(C23H36N9O7)]
 Deg. of freedom   219
 Full point group                 C1      NOp   1
                          Input orientation:                          
 ---------------------------------------------------------------------
 Center     Atomic      Atomic             Coordinates (Angstroms)
 Number     Number       Type             X           Y           Z
 ---------------------------------------------------------------------
      1          7           0       -4.444503   -1.027660   -6.908066
      2          6           0       -4.488558   -2.528319   -6.913581
      3          6           0       -5.556614   -3.122919   -7.845807
      4          8           0       -5.241008   -3.993074   -8.648272
      5          6           0       -4.714116   -3.024103   -5.481217
      6          6           0       -3.577286   -2.615800   -4.549241
      7          7           0       -3.440829   -3.379005   -3.445552
      8          8           0       -2.857114   -1.640823   -4.788056
      9          1           0       -5.366081   -0.630156   -6.546726
     10          1           0       -3.527772   -2.875080   -7.296601
     11          1           0       -5.650366   -2.610960   -5.087814
     12          1           0       -4.839067   -4.110065   -5.499084
     13          1           0       -2.740817   -3.128870   -2.759514
     14          1           0       -4.042484   -4.172096   -3.270179
     15          1           0       -3.674154   -0.777923   -6.259329
     16          1           0       -4.323233   -0.654614   -7.862890
     17          7           0       -6.839399   -2.697324   -7.662145
     18          6           0       -7.952876   -3.512617   -8.131041
     19          6           0       -8.914726   -2.739535   -9.046315
     20          8           0      -10.140713   -2.778013   -8.855894
     21          6           0       -8.714563   -4.136040   -6.940158
     22          6           0       -7.805043   -4.818878   -5.938241
     23          6           0       -6.953701   -5.867589   -6.318905
     24          6           0       -7.804286   -4.411673   -4.598315
     25          6           0       -6.129569   -6.493696   -5.382871
     26          6           0       -6.987606   -5.040709   -3.654095
     27          6           0       -6.146513   -6.085401   -4.044083
     28          1           0       -7.035481   -1.963998   -6.973188
     29          1           0       -7.502211   -4.301801   -8.743134
     30          1           0       -9.281548   -3.346791   -6.434484
     31          1           0       -9.458260   -4.834290   -7.338840
     32          1           0       -6.927725   -6.197461   -7.353926
     33          1           0       -8.454738   -3.598210   -4.285580
     34          1           0       -5.482893   -7.308428   -5.695864
     35          1           0       -7.021730   -4.721718   -2.615742
     36          1           0       -5.526772   -6.595840   -3.311022
     37          7           0       -8.423020   -2.030761  -10.094328
     38          6           0       -7.054737   -1.643935  -10.422912
     39          6           0       -6.480209   -0.527418   -9.520624
     40          8           0       -5.254535   -0.378000   -9.458303
     41          6           0       -6.990286   -1.180738  -11.895255
     42          6           0       -7.883746    0.029328  -12.180829
     43          7           0       -7.387104    0.949363  -13.029858
     44          8           0       -9.005522    0.151429  -11.665923
     45          1           0       -9.126437   -1.532618  -10.634825
     46          1           0       -6.380569   -2.495867  -10.306076
     47          1           0       -7.321550   -2.002367  -12.541972
     48          1           0       -5.944848   -0.968466  -12.135719
     49          1           0       -7.976855    1.722894  -13.309504
     50          1           0       -6.482988    0.853918  -13.469515
     51          7           0       -7.384416    0.243143   -8.887864
     52          6           0       -7.091170    1.261935   -7.878762
     53          6           0       -7.563317    0.676163   -6.496406
     54          8           0       -8.546697    1.166338   -5.906446
     55          6           0       -7.599384    2.679420   -8.276707
     56          6           0       -8.728213    2.791681   -9.329796
     57          6           0      -10.162713    2.713607   -8.777978
     58          7           0      -10.356273    1.618793   -7.830728
     59          6           0      -10.676979    0.356250   -8.110867
     60          7           0      -11.056518   -0.045305   -9.340516
     61          7           0      -10.658864   -0.544996   -7.111064
     62          8           0       -6.901280   -0.339667   -6.099878
     63          1           0       -8.353919    0.014342   -9.053689
     64          1           0       -6.000805    1.306744   -7.830010
     65          1           0       -7.881348    3.203926   -7.356678
     66          1           0       -6.736424    3.215326   -8.684136
     67          1           0       -8.637081    3.765244   -9.825875
     68          1           0       -8.588823    2.041599  -10.114888
     69          1           0      -10.399575    3.628774   -8.226758
     70          1           0      -10.897419    2.639949   -9.586285
     71          1           0       -9.826253    1.718511   -6.949203
     72          1           0      -11.136901   -1.049976   -9.485496
     73          1           0      -10.803740    0.501002  -10.153577
     74          1           0      -10.691065   -1.531635   -7.349566
     75          1           0      -10.228847   -0.269957   -6.232871
 ---------------------------------------------------------------------
 Rotational constants (GHZ):           0.1525509           0.0712641           0.0695949
 Standard basis: 6-31G(d) (6D, 7F)
   657 basis functions,  1236 primitive gaussians,   657 cartesian basis functions
   146 alpha electrons      146 beta electrons
       nuclear repulsion energy      5210.6070113178 Hartrees.
 NAtoms=   75 NActive=   75 NUniq=   75 SFac= 1.00D+00 NAtFMM=   60 NAOKFM=T Big=T
 Integral buffers will be    131072 words long.
 Raffenetti 2 integral format.
 Two-electron integral symmetry is turned off.
 Nuclear repulsion after empirical dispersion term =     5210.4771548525 Hartrees.
 One-electron integrals computed using PRISM.
 NBasis=   657 RedAO= T EigKep=  4.64D-04  NBF=   657
 NBsUse=   657 1.00D-06 EigRej= -1.00D+00 NBFU=   657
 Initial guess from the checkpoint file:  "conf-197.chk"
 B after Tr=     0.000000    0.000000    0.000000
         Rot=    1.000000    0.000000    0.000000    0.000000 Ang=   0.00 deg.
 Requested convergence on RMS density matrix=1.00D-08 within 128 cycles.
 Requested convergence on MAX density matrix=1.00D-06.
 Requested convergence on             energy=1.00D-06.
 No special actions if energy rises.
 SCF Done:  E(RB3LYP) =  -1917.54513368     A.U. after    1 cycles
            NFock=  1  Conv=0.90D-08     -V/T= 2.0093

 **********************************************************************

            Population analysis using the SCF Density.

 **********************************************************************

 Alpha  occ. eigenvalues --  -19.24945 -19.24440 -19.23852 -19.22920 -19.22494
 Alpha  occ. eigenvalues --  -19.21355 -19.21160 -14.51571 -14.48709 -14.48366
 Alpha  occ. eigenvalues --  -14.48287 -14.47959 -14.47643 -14.47607 -14.46636
 Alpha  occ. eigenvalues --  -14.46116 -10.44638 -10.42551 -10.41516 -10.41024
 Alpha  occ. eigenvalues --  -10.40214 -10.40064 -10.39218 -10.36114 -10.36112
 Alpha  occ. eigenvalues --  -10.34681 -10.33764 -10.33731 -10.32740 -10.30847
 Alpha  occ. eigenvalues --  -10.29422 -10.29420 -10.29305 -10.29228 -10.28371
 Alpha  occ. eigenvalues --  -10.28301 -10.28234 -10.28182 -10.28110  -1.16686
 Alpha  occ. eigenvalues --   -1.16084  -1.15612  -1.14914  -1.14509  -1.14088
 Alpha  occ. eigenvalues --   -1.13251  -1.07877  -1.05974  -1.05428  -1.03930
 Alpha  occ. eigenvalues --   -1.03487  -1.03122  -1.02726  -1.01237  -1.01076
 Alpha  occ. eigenvalues --   -0.94907  -0.91057  -0.90157  -0.89696  -0.88202
 Alpha  occ. eigenvalues --   -0.85365  -0.83919  -0.83579  -0.80558  -0.79053
 Alpha  occ. eigenvalues --   -0.78536  -0.76624  -0.75058  -0.72820  -0.71355
 Alpha  occ. eigenvalues --   -0.71027  -0.70469  -0.70324  -0.69841  -0.69554
 Alpha  occ. eigenvalues --   -0.69065  -0.68794  -0.67210  -0.66816  -0.66342
 Alpha  occ. eigenvalues --   -0.66272  -0.65328  -0.63866  -0.63563  -0.62654
 Alpha  occ. eigenvalues --   -0.62011  -0.61300  -0.61245  -0.60571  -0.59863
 Alpha  occ. eigenvalues --   -0.58992  -0.58659  -0.58396  -0.58148  -0.57663
 Alpha  occ. eigenvalues --   -0.56841  -0.56514  -0.56400  -0.55314  -0.55021
 Alpha  occ. eigenvalues --   -0.54947  -0.54515  -0.54145  -0.53949  -0.53100
 Alpha  occ. eigenvalues --   -0.52903  -0.52681  -0.52338  -0.52163  -0.51649
 Alpha  occ. eigenvalues --   -0.51383  -0.51064  -0.50773  -0.50569  -0.49830
 Alpha  occ. eigenvalues --   -0.49640  -0.49443  -0.49003  -0.48508  -0.47878
 Alpha  occ. eigenvalues --   -0.47759  -0.46785  -0.46583  -0.46106  -0.44779
 Alpha  occ. eigenvalues --   -0.44544  -0.44388  -0.43306  -0.43006  -0.41007
 Alpha  occ. eigenvalues --   -0.40059  -0.39721  -0.39239  -0.39017  -0.38763
 Alpha  occ. eigenvalues --   -0.37500  -0.37360  -0.37289  -0.37015  -0.36316
 Alpha  occ. eigenvalues --   -0.36272  -0.35752  -0.35230  -0.34329  -0.34277
 Alpha  occ. eigenvalues --   -0.33867
 Alpha virt. eigenvalues --   -0.11694  -0.10854  -0.10771  -0.09960  -0.09798
 Alpha virt. eigenvalues --   -0.09553  -0.09362  -0.07474  -0.07065  -0.04394
 Alpha virt. eigenvalues --   -0.03333  -0.01971  -0.01721  -0.00883  -0.00334
 Alpha virt. eigenvalues --    0.00499   0.01141   0.01314   0.01665   0.01978
 Alpha virt. eigenvalues --    0.02096   0.02934   0.03092   0.03417   0.03584
 Alpha virt. eigenvalues --    0.04298   0.04576   0.04901   0.04987   0.05296
 Alpha virt. eigenvalues --    0.05562   0.05974   0.06159   0.06603   0.06710
 Alpha virt. eigenvalues --    0.07054   0.07366   0.07779   0.07903   0.08013
 Alpha virt. eigenvalues --    0.08446   0.08631   0.09243   0.09424   0.09980
 Alpha virt. eigenvalues --    0.10191   0.10474   0.10933   0.11688   0.12091
 Alpha virt. eigenvalues --    0.12669   0.12834   0.13175   0.13682   0.14137
 Alpha virt. eigenvalues --    0.14442   0.14669   0.15246   0.15466   0.16293
 Alpha virt. eigenvalues --    0.16691   0.17485   0.17738   0.18276   0.20211
 Alpha virt. eigenvalues --    0.21459   0.21773   0.22980   0.23375   0.23500
 Alpha virt. eigenvalues --    0.24190   0.24468   0.24954   0.26217   0.26654
 Alpha virt. eigenvalues --    0.27319   0.28939   0.29323   0.29802   0.31015
 Alpha virt. eigenvalues --    0.31945   0.32657   0.33387   0.36421   0.36801
 Alpha virt. eigenvalues --    0.37439   0.38082   0.39285   0.39374   0.39812
 Alpha virt. eigenvalues --    0.40736   0.41410   0.42114   0.42729   0.43198
 Alpha virt. eigenvalues --    0.43958   0.44348   0.44881   0.45173   0.46056
 Alpha virt. eigenvalues --    0.46363   0.46520   0.46678   0.46950   0.47359
 Alpha virt. eigenvalues --    0.47590   0.48184   0.48730   0.49171   0.49556
 Alpha virt. eigenvalues --    0.49883   0.50260   0.51289   0.51375   0.51636
 Alpha virt. eigenvalues --    0.52059   0.52429   0.52749   0.53034   0.53171
 Alpha virt. eigenvalues --    0.53473   0.53645   0.54274   0.54460   0.54715
 Alpha virt. eigenvalues --    0.55282   0.55363   0.55701   0.55924   0.56038
 Alpha virt. eigenvalues --    0.56557   0.56725   0.57732   0.57879   0.58462
 Alpha virt. eigenvalues --    0.59083   0.59587   0.60304   0.60947   0.61429
 Alpha virt. eigenvalues --    0.62547   0.62769   0.63261   0.64053   0.64474
 Alpha virt. eigenvalues --    0.64661   0.65987   0.66080   0.66714   0.67526
 Alpha virt. eigenvalues --    0.68196   0.69348   0.69836   0.70109   0.70832
 Alpha virt. eigenvalues --    0.71382   0.71858   0.71907   0.72501   0.72994
 Alpha virt. eigenvalues --    0.73786   0.73875   0.74488   0.74584   0.74885
 Alpha virt. eigenvalues --    0.75168   0.75609   0.75785   0.76158   0.76410
 Alpha virt. eigenvalues --    0.76869   0.77307   0.77511   0.77779   0.78369
 Alpha virt. eigenvalues --    0.78696   0.78803   0.79785   0.80615   0.81082
 Alpha virt. eigenvalues --    0.81366   0.81868   0.82024   0.82336   0.82855
 Alpha virt. eigenvalues --    0.83281   0.83411   0.83535   0.84186   0.84614
 Alpha virt. eigenvalues --    0.85018   0.85155   0.85704   0.85916   0.86676
 Alpha virt. eigenvalues --    0.87481   0.87983   0.88829   0.89335   0.90331
 Alpha virt. eigenvalues --    0.90594   0.91168   0.92337   0.92499   0.93672
 Alpha virt. eigenvalues --    0.94364   0.94705   0.96019   0.96154   0.96730
 Alpha virt. eigenvalues --    0.97393   0.98320   0.99194   0.99986   1.00793
 Alpha virt. eigenvalues --    1.01380   1.01423   1.01890   1.02444   1.03453
 Alpha virt. eigenvalues --    1.04407   1.05174   1.05853   1.07232   1.07403
 Alpha virt. eigenvalues --    1.08220   1.08964   1.09233   1.09687   1.10214
 Alpha virt. eigenvalues --    1.10906   1.11435   1.12578   1.12916   1.14048
 Alpha virt. eigenvalues --    1.14495   1.15005   1.15648   1.16410   1.17094
 Alpha virt. eigenvalues --    1.17659   1.17901   1.18238   1.19283   1.19718
 Alpha virt. eigenvalues --    1.20140   1.21721   1.22757   1.23749   1.24823
 Alpha virt. eigenvalues --    1.25676   1.25978   1.26515   1.27876   1.28598
 Alpha virt. eigenvalues --    1.29123   1.29269   1.30375   1.31264   1.32387
 Alpha virt. eigenvalues --    1.33325   1.33591   1.34078   1.34615   1.34806
 Alpha virt. eigenvalues --    1.35829   1.36774   1.37614   1.38371   1.38553
 Alpha virt. eigenvalues --    1.38970   1.39187   1.39581   1.40611   1.41001
 Alpha virt. eigenvalues --    1.42036   1.42449   1.42709   1.44641   1.45542
 Alpha virt. eigenvalues --    1.46404   1.48045   1.48938   1.49079   1.51029
 Alpha virt. eigenvalues --    1.52820   1.53718   1.53846   1.54224   1.55878
 Alpha virt. eigenvalues --    1.56048   1.56535   1.57176   1.58196   1.58689
 Alpha virt. eigenvalues --    1.60614   1.61380   1.61870   1.62529   1.62781
 Alpha virt. eigenvalues --    1.63128   1.64207   1.64613   1.65759   1.65813
 Alpha virt. eigenvalues --    1.66445   1.67238   1.67785   1.69333   1.69742
 Alpha virt. eigenvalues --    1.69955   1.70452   1.71155   1.71396   1.71908
 Alpha virt. eigenvalues --    1.72419   1.72888   1.73733   1.74036   1.74727
 Alpha virt. eigenvalues --    1.75019   1.75313   1.76035   1.76849   1.77290
 Alpha virt. eigenvalues --    1.77822   1.78233   1.78906   1.79334   1.79622
 Alpha virt. eigenvalues --    1.80162   1.80666   1.81243   1.81703   1.82665
 Alpha virt. eigenvalues --    1.83020   1.83279   1.83809   1.84444   1.84914
 Alpha virt. eigenvalues --    1.85383   1.85678   1.86990   1.88077   1.88497
 Alpha virt. eigenvalues --    1.89143   1.89577   1.90028   1.90318   1.91484
 Alpha virt. eigenvalues --    1.92323   1.93118   1.93376   1.93805   1.94596
 Alpha virt. eigenvalues --    1.95256   1.96282   1.96907   1.97653   1.98393
 Alpha virt. eigenvalues --    1.99254   1.99874   2.00419   2.01327   2.01694
 Alpha virt. eigenvalues --    2.02110   2.02537   2.03911   2.04513   2.05125
 Alpha virt. eigenvalues --    2.05524   2.06372   2.07397   2.08432   2.09508
 Alpha virt. eigenvalues --    2.10384   2.11109   2.11755   2.12136   2.13813
 Alpha virt. eigenvalues --    2.14581   2.14773   2.16059   2.16360   2.17661
 Alpha virt. eigenvalues --    2.18603   2.19061   2.19557   2.19961   2.20619
 Alpha virt. eigenvalues --    2.22457   2.22877   2.23059   2.23843   2.25130
 Alpha virt. eigenvalues --    2.26536   2.26860   2.27844   2.28430   2.28800
 Alpha virt. eigenvalues --    2.30577   2.31065   2.31411   2.32461   2.32519
 Alpha virt. eigenvalues --    2.34279   2.34979   2.36057   2.37534   2.38063
 Alpha virt. eigenvalues --    2.39314   2.39890   2.40355   2.41202   2.41717
 Alpha virt. eigenvalues --    2.44302   2.45237   2.45564   2.46975   2.47873
 Alpha virt. eigenvalues --    2.48716   2.49712   2.50125   2.50699   2.51067
 Alpha virt. eigenvalues --    2.51432   2.52209   2.52629   2.53786   2.54772
 Alpha virt. eigenvalues --    2.55369   2.55819   2.56500   2.56698   2.58150
 Alpha virt. eigenvalues --    2.58998   2.59969   2.60878   2.62649   2.63143
 Alpha virt. eigenvalues --    2.63691   2.64569   2.65791   2.66610   2.67142
 Alpha virt. eigenvalues --    2.67830   2.69831   2.72067   2.73049   2.76323
 Alpha virt. eigenvalues --    2.77399   2.81063   2.83789   2.85119   2.88351
 Alpha virt. eigenvalues --    2.88636   2.89747   2.90317   2.90660   2.91136
 Alpha virt. eigenvalues --    2.91825   2.93269   2.93996   2.96562   2.98345
 Alpha virt. eigenvalues --    2.98706   2.99139   3.03571   3.04058   3.05572
 Alpha virt. eigenvalues --    3.09653   3.31511   3.68463   3.73488   3.75204
 Alpha virt. eigenvalues --    3.80137   3.81811   3.86724   3.90197   3.95780
 Alpha virt. eigenvalues --    3.97253   3.98366   4.00242   4.01726   4.05132
 Alpha virt. eigenvalues --    4.06183   4.07988   4.09850   4.12169   4.12629
 Alpha virt. eigenvalues --    4.14142   4.16668   4.20969   4.22015   4.23688
 Alpha virt. eigenvalues --    4.28187   4.29452   4.31235   4.32333   4.35218
 Alpha virt. eigenvalues --    4.38043   4.39378   4.40342   4.42881   4.48653
 Alpha virt. eigenvalues --    4.51258   4.55086   4.58936   4.62529   4.65019
 Alpha virt. eigenvalues --    4.67964
          Condensed to atoms (all electrons):
 Mulliken charges:
               1
     1  N   -0.813647
     2  C   -0.109923
     3  C    0.630485
     4  O   -0.514567
     5  C   -0.415395
     6  C    0.637913
     7  N   -0.741749
     8  O   -0.534120
     9  H    0.430454
    10  H    0.217058
    11  H    0.218839
    12  H    0.212181
    13  H    0.365958
    14  H    0.357673
    15  H    0.418485
    16  H    0.427557
    17  N   -0.651544
    18  C   -0.081106
    19  C    0.625761
    20  O   -0.555564
    21  C   -0.356189
    22  C    0.173297
    23  C   -0.178845
    24  C   -0.197271
    25  C   -0.138078
    26  C   -0.136911
    27  C   -0.159125
    28  H    0.389861
    29  H    0.220022
    30  H    0.144320
    31  H    0.194832
    32  H    0.152275
    33  H    0.143329
    34  H    0.158266
    35  H    0.152025
    36  H    0.150152
    37  N   -0.631949
    38  C   -0.060759
    39  C    0.642183
    40  O   -0.583308
    41  C   -0.395669
    42  C    0.626557
    43  N   -0.725831
    44  O   -0.560773
    45  H    0.370117
    46  H    0.221288
    47  H    0.217642
    48  H    0.197619
    49  H    0.366350
    50  H    0.367950
    51  N   -0.605581
    52  C   -0.059020
    53  C    0.602602
    54  O   -0.553247
    55  C   -0.301151
    56  C   -0.302125
    57  C   -0.178612
    58  N   -0.592128
    59  C    0.718856
    60  N   -0.767759
    61  N   -0.781095
    62  O   -0.604609
    63  H    0.361106
    64  H    0.169831
    65  H    0.177867
    66  H    0.166065
    67  H    0.166761
    68  H    0.165462
    69  H    0.193996
    70  H    0.174126
    71  H    0.403594
    72  H    0.385987
    73  H    0.386635
    74  H    0.398366
    75  H    0.385950
 Sum of Mulliken charges =   1.00000
 Mulliken charges with hydrogens summed into heavy atoms:
               1
     1  N    0.462849
     2  C    0.107135
     3  C    0.630485
     4  O   -0.514567
     5  C    0.015625
     6  C    0.637913
     7  N   -0.018119
     8  O   -0.534120
    17  N   -0.261683
    18  C    0.138917
    19  C    0.625761
    20  O   -0.555564
    21  C   -0.017038
    22  C    0.173297
    23  C   -0.026570
    24  C   -0.053942
    25  C    0.020188
    26  C    0.015114
    27  C   -0.008973
    37  N   -0.261832
    38  C    0.160529
    39  C    0.642183
    40  O   -0.583308
    41  C    0.019592
    42  C    0.626557
    43  N    0.008469
    44  O   -0.560773
    51  N   -0.244475
    52  C    0.110811
    53  C    0.602602
    54  O   -0.553247
    55  C    0.042782
    56  C    0.030098
    57  C    0.189510
    58  N   -0.188534
    59  C    0.718856
    60  N    0.004863
    61  N    0.003220
    62  O   -0.604609
 Electronic spatial extent (au):  <R**2>=         138002.4453
 Charge=              1.0000 electrons
 Dipole moment (field-independent basis, Debye):
    X=            -34.4827    Y=             -4.4902    Z=            -41.8250  Tot=             54.3926
 Quadrupole moment (field-independent basis, Debye-Ang):
   XX=             43.7797   YY=           -176.3211   ZZ=            209.3143
   XY=             11.3912   XZ=            321.9246   YZ=             -7.0070
 Traceless Quadrupole moment (field-independent basis, Debye-Ang):
   XX=             18.1887   YY=           -201.9121   ZZ=            183.7233
   XY=             11.3912   XZ=            321.9246   YZ=             -7.0070
 Octapole moment (field-independent basis, Debye-Ang**2):
  XXX=           2681.9805  YYY=            918.9630  ZZZ=            290.4715  XYY=           1347.8078
  XXY=            398.3516  XXZ=           -845.3607  XZZ=          -1715.6529  YZZ=            621.9424
  YYZ=           1470.4230  XYZ=            131.1305
 Hexadecapole moment (field-independent basis, Debye-Ang**3):
 XXXX=         -58284.1150 YYYY=         -10855.8655 ZZZZ=         -29324.2614 XXXY=          -7706.9288
 XXXZ=         -17753.8860 YYYX=          -5948.1137 YYYZ=          -5754.7335 ZZZX=          -1936.8305
 ZZZY=         -10002.0289 XXYY=         -13031.5087 XXZZ=          -1000.4553 YYZZ=         -14769.5508
 XXYZ=          -3741.7455 YYXZ=         -11114.4939 ZZXY=          -4511.0563
 N-N= 5.210477154853D+03 E-N=-1.486001264720D+04  KE= 1.899812357142D+03
 Unable to Open any file for archive entry.
 1\1\GINC-AMR-153\SP\RB3LYP\6-31G(d)\C23H36N9O7(1+)\KENGMITH\03-Jun-202
 2\0\\# B3LYP/6-31G* empiricaldispersion=gd3 guess=read geom=check nosy
 mm integral(ultrafinegrid)\\Candidate Structure: Conf:197 Charge calc 
 in gas phase\\1,1\N,0,-4.4445026265,-1.0276600997,-6.9080661477\C,0,-4
 .488558373,-2.5283185886,-6.9135810712\C,0,-5.5566137629,-3.1229190588
 ,-7.8458067725\O,0,-5.2410083273,-3.9930742176,-8.6482720163\C,0,-4.71
 41160687,-3.024102894,-5.481217441\C,0,-3.5772862064,-2.6158002246,-4.
 5492411234\N,0,-3.4408291711,-3.37900545,-3.4455519661\O,0,-2.85711432
 24,-1.640823306,-4.7880559542\H,0,-5.3660807679,-0.6301562842,-6.54672
 58281\H,0,-3.5277715527,-2.8750800325,-7.2966014791\H,0,-5.6503657942,
 -2.6109604167,-5.087814421\H,0,-4.8390667235,-4.11006538,-5.4990835389
 \H,0,-2.7408170922,-3.1288696187,-2.7595141953\H,0,-4.0424837216,-4.17
 2095586,-3.2701786442\H,0,-3.6741539785,-0.7779234845,-6.2593289465\H,
 0,-4.3232325601,-0.6546142395,-7.8628901453\N,0,-6.8393985973,-2.69732
 40527,-7.6621453032\C,0,-7.9528764499,-3.5126171888,-8.1310409873\C,0,
 -8.9147256015,-2.7395351895,-9.0463149101\O,0,-10.1407129037,-2.778012
 9322,-8.8558944466\C,0,-8.7145629547,-4.1360396467,-6.9401582614\C,0,-
 7.8050434785,-4.8188776568,-5.9382413696\C,0,-6.9537009029,-5.86758925
 81,-6.3189048327\C,0,-7.8042862489,-4.4116729029,-4.5983147827\C,0,-6.
 1295685134,-6.4936958746,-5.3828706746\C,0,-6.9876055357,-5.0407092599
 ,-3.6540945008\C,0,-6.1465128326,-6.0854011882,-4.0440826357\H,0,-7.03
 54807481,-1.9639980774,-6.9731883529\H,0,-7.5022113036,-4.301800864,-8
 .7431336023\H,0,-9.2815476305,-3.346791289,-6.4344842041\H,0,-9.458260
 4038,-4.8342900121,-7.3388404313\H,0,-6.9277250655,-6.1974614736,-7.35
 39261138\H,0,-8.4547384003,-3.5982098425,-4.2855804754\H,0,-5.48289308
 48,-7.3084281032,-5.6958642551\H,0,-7.0217297331,-4.7217176291,-2.6157
 421879\H,0,-5.5267722545,-6.5958402728,-3.3110216546\N,0,-8.4230204408
 ,-2.0307611536,-10.0943278258\C,0,-7.0547366437,-1.6439350673,-10.4229
 116525\C,0,-6.4802089691,-0.5274182106,-9.5206243377\O,0,-5.254535243,
 -0.3779996772,-9.4583029409\C,0,-6.9902857635,-1.1807375692,-11.895254
 6506\C,0,-7.8837458785,0.029328475,-12.1808290114\N,0,-7.3871040509,0.
 9493626335,-13.0298581536\O,0,-9.005521772,0.1514292731,-11.6659229992
 \H,0,-9.1264372474,-1.5326182603,-10.6348250014\H,0,-6.3805694131,-2.4
 958669072,-10.3060758896\H,0,-7.3215502619,-2.0023672167,-12.541971699
 6\H,0,-5.9448475505,-0.9684663555,-12.1357192252\H,0,-7.9768548048,1.7
 228940585,-13.3095038542\H,0,-6.4829883204,0.8539175726,-13.4695151565
 \N,0,-7.3844161474,0.2431432452,-8.8878635053\C,0,-7.0911697173,1.2619
 346657,-7.8787619117\C,0,-7.5633167078,0.6761626243,-6.4964061966\O,0,
 -8.5466970222,1.1663382344,-5.9064460879\C,0,-7.5993836182,2.679419714
 8,-8.2767069076\C,0,-8.7282126167,2.7916808425,-9.3297955192\C,0,-10.1
 627127866,2.7136071693,-8.7779777631\N,0,-10.3562726633,1.6187928951,-
 7.8307275044\C,0,-10.6769789131,0.3562503689,-8.1108671905\N,0,-11.056
 5182817,-0.0453053561,-9.3405156471\N,0,-10.6588638667,-0.5449959107,-
 7.1110642486\O,0,-6.9012803151,-0.3396673376,-6.0998779969\H,0,-8.3539
 192388,0.0143415203,-9.0536886134\H,0,-6.0008054225,1.3067440994,-7.83
 00102022\H,0,-7.8813479916,3.2039255513,-7.3566776057\H,0,-6.736423836
 3,3.2153256477,-8.6841355265\H,0,-8.6370807646,3.7652438868,-9.8258748
 795\H,0,-8.5888226547,2.0415992897,-10.1148877104\H,0,-10.3995745598,3
 .6287738874,-8.2267582274\H,0,-10.8974193547,2.6399489856,-9.586284791
 5\H,0,-9.8262529199,1.7185113782,-6.9492030862\H,0,-11.1369012148,-1.0
 49976224,-9.4854960991\H,0,-10.8037402282,0.5010017105,-10.1535770281\
 H,0,-10.6910650491,-1.5316345741,-7.3495663599\H,0,-10.2288474371,-0.2
 699574845,-6.2328708802\\Version=ES64L-G16RevC.01\HF=-1917.5451337\RMS
 D=9.048e-09\Dipole=0.1945189,1.0802688,-1.7854146\Quadrupole=13.522869
 6,-150.1166685,136.5937989,8.4690453,239.3430158,-5.2095617\PG=C01 [X(
 C23H36N9O7)]\\@
 The archive entry for this job was punched.


 I (ERNEST RUTHERFORD) CAME INTO THE ROOM, WHICH WAS HALF DARK, AND PRESENTLY
 SPOTTED LORD KELVIN IN THE AUDIENCE AND REALIZED I WAS IN TROUBLE AT
 THE LAST PART OF MY SPEECH DEALING THE AGE OF THE EARTH, WHERE MY VIEWS
 CONFLICTED WITH HIS.  TO MY RELIEF KELVIN FELL FAST ASLEEP, BUT AS I CAME
 TO THE IMPORTANT POINT, I SAW THE OLD BIRD SIT UP AND COCK A BALEFUL GLANCE
 AT ME! THEN A SUDDEN INSPIRATION CAME AND I SAID LORD KELVIN HAD LIMITED
 THE AGE OF THE EARTH PROVIDED NO NEW SOURCE WAS DISCOVERED. THAT
 PROPHETIC UTTERANCE REFERS TO WHAT WE ARE NOW CONSIDERING TONIGHT, RADIUM!
 BEHOLD!  THE OLD BOY BEAMED UPON ME.
 Job cpu time:       0 days  0 hours  2 minutes  4.1 seconds.
 Elapsed time:       0 days  0 hours  0 minutes 31.9 seconds.
 File lengths (MBytes):  RWF=    344 Int=      0 D2E=      0 Chk=     48 Scr=     16
 Normal termination of Gaussian 16 at Fri Jun  3 06:00:31 2022.
