 Entering Gaussian System, Link 0=/opt/software/Gaussian/g16-AVX2-C.01/g16/g16
 Input=charge-conf-876.com
 Output=charge-conf-876.log
 Initial command:
 /opt/software/Gaussian/g16-AVX2-C.01/g16/l1.exe "/mnt/gs18/scratch/users/kengmith/Gau-24240.inp" -scrdir="/mnt/gs18/scratch/users/kengmith/"
 Entering Link 1 = /opt/software/Gaussian/g16-AVX2-C.01/g16/l1.exe PID=     24257.
  
 Copyright (c) 1988-2019, Gaussian, Inc.  All Rights Reserved.
  
 This is part of the Gaussian(R) 16 program.  It is based on
 the Gaussian(R) 09 system (copyright 2009, Gaussian, Inc.),
 the Gaussian(R) 03 system (copyright 2003, Gaussian, Inc.),
 the Gaussian(R) 98 system (copyright 1998, Gaussian, Inc.),
 the Gaussian(R) 94 system (copyright 1995, Gaussian, Inc.),
 the Gaussian 92(TM) system (copyright 1992, Gaussian, Inc.),
 the Gaussian 90(TM) system (copyright 1990, Gaussian, Inc.),
 the Gaussian 88(TM) system (copyright 1988, Gaussian, Inc.),
 the Gaussian 86(TM) system (copyright 1986, Carnegie Mellon
 University), and the Gaussian 82(TM) system (copyright 1983,
 Carnegie Mellon University). Gaussian is a federally registered
 trademark of Gaussian, Inc.
  
 This software contains proprietary and confidential information,
 including trade secrets, belonging to Gaussian, Inc.
  
 This software is provided under written license and may be
 used, copied, transmitted, or stored only in accord with that
 written license.
  
 The following legend is applicable only to US Government
 contracts under FAR:
  
                    RESTRICTED RIGHTS LEGEND
  
 Use, reproduction and disclosure by the US Government is
 subject to restrictions as set forth in subparagraphs (a)
 and (c) of the Commercial Computer Software - Restricted
 Rights clause in FAR 52.227-19.
  
 Gaussian, Inc.
 340 Quinnipiac St., Bldg. 40, Wallingford CT 06492
  
  
 ---------------------------------------------------------------
 Warning -- This program may not be used in any manner that
 competes with the business of Gaussian, Inc. or will provide
 assistance to any competitor of Gaussian, Inc.  The licensee
 of this program is prohibited from giving any competitor of
 Gaussian, Inc. access to this program.  By using this program,
 the user acknowledges that Gaussian, Inc. is engaged in the
 business of creating and licensing software in the field of
 computational chemistry and represents and warrants to the
 licensee that it is not a competitor of Gaussian, Inc. and that
 it will not use this program in any manner prohibited above.
 ---------------------------------------------------------------
  

 Cite this work as:
 Gaussian 16, Revision C.01,
 M. J. Frisch, G. W. Trucks, H. B. Schlegel, G. E. Scuseria, 
 M. A. Robb, J. R. Cheeseman, G. Scalmani, V. Barone, 
 G. A. Petersson, H. Nakatsuji, X. Li, M. Caricato, A. V. Marenich, 
 J. Bloino, B. G. Janesko, R. Gomperts, B. Mennucci, H. P. Hratchian, 
 J. V. Ortiz, A. F. Izmaylov, J. L. Sonnenberg, D. Williams-Young, 
 F. Ding, F. Lipparini, F. Egidi, J. Goings, B. Peng, A. Petrone, 
 T. Henderson, D. Ranasinghe, V. G. Zakrzewski, J. Gao, N. Rega, 
 G. Zheng, W. Liang, M. Hada, M. Ehara, K. Toyota, R. Fukuda, 
 J. Hasegawa, M. Ishida, T. Nakajima, Y. Honda, O. Kitao, H. Nakai, 
 T. Vreven, K. Throssell, J. A. Montgomery, Jr., J. E. Peralta, 
 F. Ogliaro, M. J. Bearpark, J. J. Heyd, E. N. Brothers, K. N. Kudin, 
 V. N. Staroverov, T. A. Keith, R. Kobayashi, J. Normand, 
 K. Raghavachari, A. P. Rendell, J. C. Burant, S. S. Iyengar, 
 J. Tomasi, M. Cossi, J. M. Millam, M. Klene, C. Adamo, R. Cammi, 
 J. W. Ochterski, R. L. Martin, K. Morokuma, O. Farkas, 
 J. B. Foresman, and D. J. Fox, Gaussian, Inc., Wallingford CT, 2019.
 
 ******************************************
 Gaussian 16:  ES64L-G16RevC.01  3-Jul-2019
                 3-Jun-2022 
 ******************************************
 %mem=8gb
 %nproc=4
 Will use up to    4 processors via shared memory.
 %chk=conf-876.chk
 ----------------------------------------------------------------------
 # B3LYP/6-31G* empiricaldispersion=gd3 guess=read geom=check nosymm in
 tegral(ultrafinegrid)
 ----------------------------------------------------------------------
 1/29=2,38=1,172=1/1;
 2/12=2,15=1,40=1/2;
 3/5=1,6=6,7=1,11=2,14=-4,25=1,30=1,74=-5,75=-5,116=-2,124=31/1,2,3;
 4/5=1/1;
 5/5=2,38=6/2;
 6/7=2,8=2,9=2,10=2,28=1/1;
 99/5=1,9=1/99;
 ------------------------------------------------------
 Candidate Structure: Conf:876 Charge calc in gas phase
 ------------------------------------------------------
 Structure from the checkpoint file:  "conf-876.chk"
 Charge =  1 Multiplicity = 1
 Redundant internal coordinates found in file.  (old form).
 N,0,-9.4242335737,-3.4768857007,-7.91531486
 C,0,-9.3076765286,-3.2874187586,-6.431014812
 C,0,-8.7475607135,-1.9184189328,-6.0105267444
 O,0,-9.3513017571,-1.2509337527,-5.179910098
 C,0,-8.438028141,-4.4100531899,-5.8554522555
 C,0,-9.0571500004,-5.7859543891,-6.0835155712
 N,0,-8.6309587854,-6.750467851,-5.2424920767
 O,0,-9.8700137809,-5.9932089339,-6.9904267258
 H,0,-9.8431189852,-4.4179812634,-8.0386316212
 H,0,-10.318276086,-3.3339094605,-6.0228151081
 H,0,-7.4481223019,-4.3936237743,-6.3260610665
 H,0,-8.2766235277,-4.2228064472,-4.7904792331
 H,0,-8.9599501102,-7.6976793188,-5.3756412167
 H,0,-7.9602015326,-6.5588767236,-4.510924918
 H,0,-9.9740145033,-2.7170226032,-8.3458191972
 H,0,-8.4583057163,-3.449256055,-8.371713344
 N,0,-7.5413741755,-1.5503030677,-6.5353353487
 C,0,-6.7195419563,-0.567715584,-5.8367840374
 C,0,-6.3338550467,0.6507134635,-6.6914786317
 O,0,-5.1905192427,1.124088466,-6.6268850047
 C,0,-5.4533982295,-1.2366109976,-5.2546355154
 C,0,-5.7502746138,-2.4856519356,-4.4499358918
 C,0,-6.5861040207,-2.444916278,-3.3233077106
 C,0,-5.1817034277,-3.7118906402,-4.8159700324
 C,0,-6.8390933899,-3.598488174,-2.5800283312
 C,0,-5.4246398745,-4.8693774766,-4.0705744521
 C,0,-6.2545553185,-4.8159549952,-2.9484224524
 H,0,-7.0791652247,-2.173369055,-7.2039474857
 H,0,-7.3471083152,-0.1858492703,-5.023195241
 H,0,-4.7805002427,-1.4893015306,-6.0822306414
 H,0,-4.9253428353,-0.4937134868,-4.6485694251
 H,0,-7.0448274394,-1.5069342313,-3.0216607232
 H,0,-4.5368700466,-3.763806592,-5.6900964363
 H,0,-7.4816390724,-3.5449645219,-1.7058224962
 H,0,-4.9544569825,-5.8049178856,-4.3615327426
 H,0,-6.4267293674,-5.7063296375,-2.3486283708
 N,0,-7.2530949874,1.2330019589,-7.5059689006
 C,0,-8.6365606411,0.8812585185,-7.8054814244
 C,0,-8.7941902538,-0.2927945602,-8.79390848
 O,0,-9.8640352878,-0.9124254619,-8.8196043891
 C,0,-9.3723565611,2.1129607492,-8.3815034369
 C,0,-8.7575227627,2.6063159299,-9.6927681458
 N,0,-9.6202350953,2.9411362198,-10.6709852215
 O,0,-7.5295963615,2.6952932293,-9.8414629408
 H,0,-6.8954038048,2.0117092041,-8.0517271441
 H,0,-9.1551349936,0.5730738708,-6.8943962638
 H,0,-9.3192777657,2.9333423006,-7.6557671857
 H,0,-10.4249716152,1.8456426388,-8.5077669567
 H,0,-9.2566915789,3.3448195134,-11.525005602
 H,0,-10.6221005699,2.8926005568,-10.553921804
 N,0,-7.7477281159,-0.5283047465,-9.6086876461
 C,0,-7.6129573504,-1.7070589157,-10.4749554764
 C,0,-6.5118223497,-2.6013266841,-9.803178858
 O,0,-5.3359243544,-2.5792850624,-10.2257591882
 C,0,-7.5375995226,-1.3343734819,-11.9732867068
 C,0,-6.306955299,-0.6641383006,-12.6254370442
 C,0,-5.6691139557,0.5274378493,-11.8932773047
 N,0,-4.8883994419,-0.0286229,-10.7867817087
 C,0,-4.4688054464,0.5528548683,-9.6699695302
 N,0,-4.6193553792,1.8705102294,-9.4368922545
 N,0,-3.835687207,-0.2162319477,-8.7578101306
 O,0,-6.9040982981,-3.2327842608,-8.7676869702
 H,0,-6.9325702874,0.0510429261,-9.4734368751
 H,0,-8.5605965767,-2.2383644742,-10.3643218618
 H,0,-7.7255801299,-2.2577680473,-12.5341597245
 H,0,-8.4116232469,-0.6924098205,-12.1444085998
 H,0,-5.5243116012,-1.4111741407,-12.7992095601
 H,0,-6.6217738173,-0.3207916503,-13.6168942821
 H,0,-5.0069386324,1.077476475,-12.5719977427
 H,0,-6.431868661,1.2250425384,-11.5241272473
 H,0,-4.8694084312,-1.0658867091,-10.7653235646
 H,0,-4.5064857099,2.1732327471,-8.4737849215
 H,0,-5.301841401,2.3877861989,-9.9783991875
 H,0,-3.828300485,0.1070285004,-7.7952437075
 H,0,-3.8588574552,-1.2205641241,-8.9072785623
 Recover connectivity data from disk.
                           ----------------------------
                           !    Current Parameters    !
                           ! (Angstroms and Degrees)  !
 --------------------------                            --------------------------
 ! Name  Definition              Value                                          !
 --------------------------------------------------------------------------------
 ! R1    R(1,2)                  1.5009                                         !
 ! R2    R(1,9)                  1.0375                                         !
 ! R3    R(1,15)                 1.032                                          !
 ! R4    R(1,16)                 1.0687                                         !
 ! R5    R(2,3)                  1.5378                                         !
 ! R6    R(2,5)                  1.5323                                         !
 ! R7    R(2,10)                 1.0909                                         !
 ! R8    R(3,4)                  1.2247                                         !
 ! R9    R(3,17)                 1.3659                                         !
 ! R10   R(5,6)                  1.5259                                         !
 ! R11   R(5,11)                 1.0962                                         !
 ! R12   R(5,12)                 1.0933                                         !
 ! R13   R(6,7)                  1.3488                                         !
 ! R14   R(6,8)                  1.2354                                         !
 ! R15   R(7,13)                 1.0115                                         !
 ! R16   R(7,14)                 1.0108                                         !
 ! R17   R(17,18)                1.4591                                         !
 ! R18   R(17,28)                1.0242                                         !
 ! R19   R(18,19)                1.5375                                         !
 ! R20   R(18,21)                1.5458                                         !
 ! R21   R(18,29)                1.0962                                         !
 ! R22   R(19,20)                1.2391                                         !
 ! R23   R(19,37)                1.3592                                         !
 ! R24   R(21,22)                1.5152                                         !
 ! R25   R(21,30)                1.0962                                         !
 ! R26   R(21,31)                1.0946                                         !
 ! R27   R(22,23)                1.4034                                         !
 ! R28   R(22,24)                1.4003                                         !
 ! R29   R(23,25)                1.3954                                         !
 ! R30   R(23,32)                1.0868                                         !
 ! R31   R(24,26)                1.398                                          !
 ! R32   R(24,33)                1.0875                                         !
 ! R33   R(25,27)                1.3999                                         !
 ! R34   R(25,34)                1.0863                                         !
 ! R35   R(26,27)                1.3967                                         !
 ! R36   R(26,35)                1.0867                                         !
 ! R37   R(27,36)                1.0873                                         !
 ! R38   R(37,38)                1.4586                                         !
 ! R39   R(37,45)                1.016                                          !
 ! R40   R(38,39)                1.5428                                         !
 ! R41   R(38,41)                1.5461                                         !
 ! R42   R(38,46)                1.0927                                         !
 ! R43   R(39,40)                1.2366                                         !
 ! R44   R(39,51)                1.347                                          !
 ! R45   R(41,42)                1.53                                           !
 ! R46   R(41,47)                1.0966                                         !
 ! R47   R(41,48)                1.0933                                         !
 ! R48   R(42,43)                1.3466                                         !
 ! R49   R(42,44)                1.2401                                         !
 ! R50   R(43,49)                1.0122                                         !
 ! R51   R(43,50)                1.0098                                         !
 ! R52   R(51,52)                1.469                                          !
 ! R53   R(51,63)                1.0092                                         !
 ! R54   R(52,53)                1.5696                                         !
 ! R55   R(52,55)                1.5458                                         !
 ! R56   R(52,64)                1.092                                          !
 ! R57   R(53,54)                1.2497                                         !
 ! R58   R(53,62)                1.2747                                         !
 ! R59   R(55,56)                1.5456                                         !
 ! R60   R(55,65)                1.0966                                         !
 ! R61   R(55,66)                1.0979                                         !
 ! R62   R(56,57)                1.5371                                         !
 ! R63   R(56,67)                1.0958                                         !
 ! R64   R(56,68)                1.0954                                         !
 ! R65   R(57,58)                1.4639                                         !
 ! R66   R(57,69)                1.0962                                         !
 ! R67   R(57,70)                1.0976                                         !
 ! R68   R(58,59)                1.3272                                         !
 ! R69   R(58,71)                1.0377                                         !
 ! R70   R(59,60)                1.3466                                         !
 ! R71   R(59,61)                1.3507                                         !
 ! R72   R(60,72)                1.0159                                         !
 ! R73   R(60,73)                1.0132                                         !
 ! R74   R(61,74)                1.0154                                         !
 ! R75   R(61,75)                1.0157                                         !
 ! A1    A(2,1,9)              105.273                                          !
 ! A2    A(2,1,15)             111.1602                                         !
 ! A3    A(2,1,16)             110.4197                                         !
 ! A4    A(9,1,15)             113.7805                                         !
 ! A5    A(9,1,16)             109.7324                                         !
 ! A6    A(15,1,16)            106.5186                                         !
 ! A7    A(1,2,3)              114.2735                                         !
 ! A8    A(1,2,5)              108.8483                                         !
 ! A9    A(1,2,10)             107.0212                                         !
 ! A10   A(3,2,5)              110.0485                                         !
 ! A11   A(3,2,10)             105.8457                                         !
 ! A12   A(5,2,10)             110.7317                                         !
 ! A13   A(2,3,4)              119.4122                                         !
 ! A14   A(2,3,17)             117.1615                                         !
 ! A15   A(4,3,17)             123.2982                                         !
 ! A16   A(2,5,6)              111.9755                                         !
 ! A17   A(2,5,11)             109.8939                                         !
 ! A18   A(2,5,12)             108.9174                                         !
 ! A19   A(6,5,11)             108.4057                                         !
 ! A20   A(6,5,12)             111.0953                                         !
 ! A21   A(11,5,12)            106.3979                                         !
 ! A22   A(5,6,7)              115.0489                                         !
 ! A23   A(5,6,8)              121.8676                                         !
 ! A24   A(7,6,8)              123.0715                                         !
 ! A25   A(6,7,13)             118.9982                                         !
 ! A26   A(6,7,14)             121.6952                                         !
 ! A27   A(13,7,14)            119.2466                                         !
 ! A28   A(3,17,18)            119.6646                                         !
 ! A29   A(3,17,28)            119.0385                                         !
 ! A30   A(18,17,28)           117.9082                                         !
 ! A31   A(17,18,19)           114.1319                                         !
 ! A32   A(17,18,21)           110.5032                                         !
 ! A33   A(17,18,29)           105.5142                                         !
 ! A34   A(19,18,21)           110.2923                                         !
 ! A35   A(19,18,29)           106.2688                                         !
 ! A36   A(21,18,29)           109.8869                                         !
 ! A37   A(18,19,20)           120.3465                                         !
 ! A38   A(18,19,37)           120.1966                                         !
 ! A39   A(20,19,37)           119.4454                                         !
 ! A40   A(18,21,22)           113.3432                                         !
 ! A41   A(18,21,30)           108.5563                                         !
 ! A42   A(18,21,31)           108.0589                                         !
 ! A43   A(22,21,30)           109.3427                                         !
 ! A44   A(22,21,31)           111.0977                                         !
 ! A45   A(30,21,31)           106.1621                                         !
 ! A46   A(21,22,23)           121.2728                                         !
 ! A47   A(21,22,24)           120.2311                                         !
 ! A48   A(23,22,24)           118.4946                                         !
 ! A49   A(22,23,25)           120.7696                                         !
 ! A50   A(22,23,32)           119.949                                          !
 ! A51   A(25,23,32)           119.2814                                         !
 ! A52   A(22,24,26)           121.0041                                         !
 ! A53   A(22,24,33)           119.5165                                         !
 ! A54   A(26,24,33)           119.4785                                         !
 ! A55   A(23,25,27)           120.2046                                         !
 ! A56   A(23,25,34)           119.6818                                         !
 ! A57   A(27,25,34)           120.1087                                         !
 ! A58   A(24,26,27)           119.9972                                         !
 ! A59   A(24,26,35)           119.6588                                         !
 ! A60   A(27,26,35)           120.339                                          !
 ! A61   A(25,27,26)           119.5253                                         !
 ! A62   A(25,27,36)           120.06                                           !
 ! A63   A(26,27,36)           120.3961                                         !
 ! A64   A(19,37,38)           131.3931                                         !
 ! A65   A(19,37,45)           114.34                                           !
 ! A66   A(38,37,45)           114.1091                                         !
 ! A67   A(37,38,39)           114.3298                                         !
 ! A68   A(37,38,41)           109.6211                                         !
 ! A69   A(37,38,46)           110.3007                                         !
 ! A70   A(39,38,41)           108.5986                                         !
 ! A71   A(39,38,46)           105.728                                          !
 ! A72   A(41,38,46)           108.0282                                         !
 ! A73   A(38,39,40)           118.8829                                         !
 ! A74   A(38,39,51)           116.1809                                         !
 ! A75   A(40,39,51)           124.8859                                         !
 ! A76   A(38,41,42)           112.6411                                         !
 ! A77   A(38,41,47)           109.05                                           !
 ! A78   A(38,41,48)           107.8444                                         !
 ! A79   A(42,41,47)           107.8491                                         !
 ! A80   A(42,41,48)           111.5155                                         !
 ! A81   A(47,41,48)           107.8146                                         !
 ! A82   A(41,42,43)           116.4436                                         !
 ! A83   A(41,42,44)           121.5886                                         !
 ! A84   A(43,42,44)           121.9674                                         !
 ! A85   A(42,43,49)           118.816                                          !
 ! A86   A(42,43,50)           122.6457                                         !
 ! A87   A(49,43,50)           118.2496                                         !
 ! A88   A(39,51,52)           124.6288                                         !
 ! A89   A(39,51,63)           116.493                                          !
 ! A90   A(52,51,63)           117.7474                                         !
 ! A91   A(51,52,53)           105.6137                                         !
 ! A92   A(51,52,55)           112.4942                                         !
 ! A93   A(51,52,64)           104.539                                          !
 ! A94   A(53,52,55)           121.1995                                         !
 ! A95   A(53,52,64)           106.752                                          !
 ! A96   A(55,52,64)           104.9394                                         !
 ! A97   A(52,53,54)           120.3542                                         !
 ! A98   A(52,53,62)           114.4585                                         !
 ! A99   A(54,53,62)           124.9586                                         !
 ! A100  A(52,55,56)           123.5267                                         !
 ! A101  A(52,55,65)           106.5217                                         !
 ! A102  A(52,55,66)           104.6695                                         !
 ! A103  A(56,55,65)           106.6078                                         !
 ! A104  A(56,55,66)           108.3331                                         !
 ! A105  A(65,55,66)           106.0325                                         !
 ! A106  A(55,56,57)           117.7469                                         !
 ! A107  A(55,56,67)           109.8743                                         !
 ! A108  A(55,56,68)           106.7964                                         !
 ! A109  A(57,56,67)           107.9167                                         !
 ! A110  A(57,56,68)           107.9018                                         !
 ! A111  A(67,56,68)           105.9863                                         !
 ! A112  A(56,57,58)           106.6705                                         !
 ! A113  A(56,57,69)           110.1642                                         !
 ! A114  A(56,57,70)           111.3785                                         !
 ! A115  A(58,57,69)           109.6594                                         !
 ! A116  A(58,57,70)           110.9664                                         !
 ! A117  A(69,57,70)           108.0054                                         !
 ! A118  A(57,58,59)           129.659                                          !
 ! A119  A(57,58,71)           113.8968                                         !
 ! A120  A(59,58,71)           114.5049                                         !
 ! A121  A(58,59,60)           122.6176                                         !
 ! A122  A(58,59,61)           117.8397                                         !
 ! A123  A(60,59,61)           119.5179                                         !
 ! A124  A(59,60,72)           116.3137                                         !
 ! A125  A(59,60,73)           118.8408                                         !
 ! A126  A(72,60,73)           115.4296                                         !
 ! A127  A(59,61,74)           117.5365                                         !
 ! A128  A(59,61,75)           116.9347                                         !
 ! A129  A(74,61,75)           117.0308                                         !
 ! D1    D(9,1,2,3)           -177.9607                                         !
 ! D2    D(9,1,2,5)             58.5821                                         !
 ! D3    D(9,1,2,10)           -61.1333                                         !
 ! D4    D(15,1,2,3)           -54.3247                                         !
 ! D5    D(15,1,2,5)          -177.7819                                         !
 ! D6    D(15,1,2,10)           62.5027                                         !
 ! D7    D(16,1,2,3)            63.6726                                         !
 ! D8    D(16,1,2,5)           -59.7846                                         !
 ! D9    D(16,1,2,10)         -179.5                                            !
 ! D10   D(1,2,3,4)            128.9634                                         !
 ! D11   D(1,2,3,17)           -55.0152                                         !
 ! D12   D(5,2,3,4)           -108.2287                                         !
 ! D13   D(5,2,3,17)            67.7927                                         !
 ! D14   D(10,2,3,4)            11.4603                                         !
 ! D15   D(10,2,3,17)         -172.5183                                         !
 ! D16   D(1,2,5,6)            -61.8503                                         !
 ! D17   D(1,2,5,11)            58.6881                                         !
 ! D18   D(1,2,5,12)           174.8803                                         !
 ! D19   D(3,2,5,6)            172.2065                                         !
 ! D20   D(3,2,5,11)           -67.255                                          !
 ! D21   D(3,2,5,12)            48.9372                                         !
 ! D22   D(10,2,5,6)            55.5327                                         !
 ! D23   D(10,2,5,11)          176.0711                                         !
 ! D24   D(10,2,5,12)          -67.7366                                         !
 ! D25   D(2,3,17,18)         -156.6281                                         !
 ! D26   D(2,3,17,28)            2.1717                                         !
 ! D27   D(4,3,17,18)           19.225                                          !
 ! D28   D(4,3,17,28)          178.0248                                         !
 ! D29   D(2,5,6,7)           -158.0153                                         !
 ! D30   D(2,5,6,8)             23.2068                                         !
 ! D31   D(11,5,6,7)            80.5851                                         !
 ! D32   D(11,5,6,8)           -98.1928                                         !
 ! D33   D(12,5,6,7)           -35.9836                                         !
 ! D34   D(12,5,6,8)           145.2385                                         !
 ! D35   D(5,6,7,13)          -176.3274                                         !
 ! D36   D(5,6,7,14)             0.831                                          !
 ! D37   D(8,6,7,13)             2.4341                                         !
 ! D38   D(8,6,7,14)           179.5926                                         !
 ! D39   D(3,17,18,19)        -124.2522                                         !
 ! D40   D(3,17,18,21)         110.7709                                         !
 ! D41   D(3,17,18,29)          -7.9608                                         !
 ! D42   D(28,17,18,19)         76.7117                                         !
 ! D43   D(28,17,18,21)        -48.2652                                         !
 ! D44   D(28,17,18,29)       -166.9969                                         !
 ! D45   D(17,18,19,20)       -139.1103                                         !
 ! D46   D(17,18,19,37)         42.1311                                         !
 ! D47   D(21,18,19,20)        -14.0215                                         !
 ! D48   D(21,18,19,37)        167.2199                                         !
 ! D49   D(29,18,19,20)        105.0374                                         !
 ! D50   D(29,18,19,37)        -73.7212                                         !
 ! D51   D(17,18,21,22)        -50.2397                                         !
 ! D52   D(17,18,21,30)         71.4554                                         !
 ! D53   D(17,18,21,31)       -173.818                                          !
 ! D54   D(19,18,21,22)       -177.3709                                         !
 ! D55   D(19,18,21,30)        -55.6758                                         !
 ! D56   D(19,18,21,31)         59.0508                                         !
 ! D57   D(29,18,21,22)         65.797                                          !
 ! D58   D(29,18,21,30)       -172.5079                                         !
 ! D59   D(29,18,21,31)        -57.7813                                         !
 ! D60   D(18,19,37,38)         -3.0498                                         !
 ! D61   D(18,19,37,45)       -178.1368                                         !
 ! D62   D(20,19,37,38)        178.1804                                         !
 ! D63   D(20,19,37,45)          3.0934                                         !
 ! D64   D(18,21,22,23)        -59.036                                          !
 ! D65   D(18,21,22,24)        121.4214                                         !
 ! D66   D(30,21,22,23)        179.7099                                         !
 ! D67   D(30,21,22,24)          0.1673                                         !
 ! D68   D(31,21,22,23)         62.861                                          !
 ! D69   D(31,21,22,24)       -116.6816                                         !
 ! D70   D(21,22,23,25)       -179.1951                                         !
 ! D71   D(21,22,23,32)          0.8315                                         !
 ! D72   D(24,22,23,25)          0.3552                                         !
 ! D73   D(24,22,23,32)       -179.6181                                         !
 ! D74   D(21,22,24,26)        178.7969                                         !
 ! D75   D(21,22,24,33)         -0.8588                                         !
 ! D76   D(23,22,24,26)         -0.7582                                         !
 ! D77   D(23,22,24,33)        179.586                                          !
 ! D78   D(22,23,25,27)          0.2546                                         !
 ! D79   D(22,23,25,34)        179.4455                                         !
 ! D80   D(32,23,25,27)       -179.7719                                         !
 ! D81   D(32,23,25,34)         -0.581                                          !
 ! D82   D(22,24,26,27)          0.5507                                         !
 ! D83   D(22,24,26,35)       -178.6436                                         !
 ! D84   D(33,24,26,27)       -179.7935                                         !
 ! D85   D(33,24,26,35)          1.0123                                         !
 ! D86   D(23,25,27,26)         -0.4703                                         !
 ! D87   D(23,25,27,36)        177.9673                                         !
 ! D88   D(34,25,27,26)       -179.6578                                         !
 ! D89   D(34,25,27,36)         -1.2202                                         !
 ! D90   D(24,26,27,25)          0.0725                                         !
 ! D91   D(24,26,27,36)       -178.3598                                         !
 ! D92   D(35,26,27,25)        179.2612                                         !
 ! D93   D(35,26,27,36)          0.8289                                         !
 ! D94   D(19,37,38,39)        -77.7178                                         !
 ! D95   D(19,37,38,41)        160.0881                                         !
 ! D96   D(19,37,38,46)         41.2589                                         !
 ! D97   D(45,37,38,39)         97.378                                          !
 ! D98   D(45,37,38,41)        -24.816                                          !
 ! D99   D(45,37,38,46)       -143.6453                                         !
 ! D100  D(37,38,39,40)        159.3763                                         !
 ! D101  D(37,38,39,51)        -23.0756                                         !
 ! D102  D(41,38,39,40)        -77.873                                          !
 ! D103  D(41,38,39,51)         99.675                                          !
 ! D104  D(46,38,39,40)         37.8491                                         !
 ! D105  D(46,38,39,51)       -144.6029                                         !
 ! D106  D(37,38,41,42)         61.6955                                         !
 ! D107  D(37,38,41,47)        -57.999                                          !
 ! D108  D(37,38,41,48)       -174.8185                                         !
 ! D109  D(39,38,41,42)        -63.8572                                         !
 ! D110  D(39,38,41,47)        176.4483                                         !
 ! D111  D(39,38,41,48)         59.6288                                         !
 ! D112  D(46,38,41,42)       -178.0807                                         !
 ! D113  D(46,38,41,47)         62.2249                                         !
 ! D114  D(46,38,41,48)        -54.5947                                         !
 ! D115  D(38,39,51,52)        170.5089                                         !
 ! D116  D(38,39,51,63)          2.9795                                         !
 ! D117  D(40,39,51,52)        -12.1086                                         !
 ! D118  D(40,39,51,63)       -179.638                                          !
 ! D119  D(38,41,42,43)        136.782                                          !
 ! D120  D(38,41,42,44)        -43.417                                          !
 ! D121  D(47,41,42,43)       -102.8307                                         !
 ! D122  D(47,41,42,44)         76.9703                                         !
 ! D123  D(48,41,42,43)         15.3612                                         !
 ! D124  D(48,41,42,44)       -164.8378                                         !
 ! D125  D(41,42,43,49)        174.9389                                         !
 ! D126  D(41,42,43,50)          1.223                                          !
 ! D127  D(44,42,43,49)         -4.8612                                         !
 ! D128  D(44,42,43,50)       -178.5772                                         !
 ! D129  D(39,51,52,53)       -107.0836                                         !
 ! D130  D(39,51,52,55)        118.6589                                         !
 ! D131  D(39,51,52,64)          5.3523                                         !
 ! D132  D(63,51,52,53)         60.3028                                         !
 ! D133  D(63,51,52,55)        -73.9546                                         !
 ! D134  D(63,51,52,64)        172.7388                                         !
 ! D135  D(51,52,53,54)        -99.3873                                         !
 ! D136  D(51,52,53,62)         75.385                                          !
 ! D137  D(55,52,53,54)         29.9337                                         !
 ! D138  D(55,52,53,62)       -155.2941                                         !
 ! D139  D(64,52,53,54)        149.7378                                         !
 ! D140  D(64,52,53,62)        -35.49                                           !
 ! D141  D(51,52,55,56)         72.0467                                         !
 ! D142  D(51,52,55,65)       -164.3006                                         !
 ! D143  D(51,52,55,66)        -52.2495                                         !
 ! D144  D(53,52,55,56)        -54.2062                                         !
 ! D145  D(53,52,55,65)         69.4464                                         !
 ! D146  D(53,52,55,66)       -178.5024                                         !
 ! D147  D(64,52,55,56)       -174.8927                                         !
 ! D148  D(64,52,55,65)        -51.24                                           !
 ! D149  D(64,52,55,66)         60.8111                                         !
 ! D150  D(52,55,56,57)        -46.0856                                         !
 ! D151  D(52,55,56,67)         77.9551                                         !
 ! D152  D(52,55,56,68)       -167.5248                                         !
 ! D153  D(65,55,56,57)       -169.6998                                         !
 ! D154  D(65,55,56,67)        -45.6591                                         !
 ! D155  D(65,55,56,68)         68.8611                                         !
 ! D156  D(66,55,56,57)         76.5689                                         !
 ! D157  D(66,55,56,67)       -159.3904                                         !
 ! D158  D(66,55,56,68)        -44.8702                                         !
 ! D159  D(55,56,57,58)         76.872                                          !
 ! D160  D(55,56,57,69)       -164.1756                                         !
 ! D161  D(55,56,57,70)        -44.3491                                         !
 ! D162  D(67,56,57,58)        -48.1426                                         !
 ! D163  D(67,56,57,69)         70.8098                                         !
 ! D164  D(67,56,57,70)       -169.3638                                         !
 ! D165  D(68,56,57,58)       -162.2601                                         !
 ! D166  D(68,56,57,69)        -43.3077                                         !
 ! D167  D(68,56,57,70)         76.5187                                         !
 ! D168  D(56,57,58,59)       -159.0083                                         !
 ! D169  D(56,57,58,71)          4.0478                                         !
 ! D170  D(69,57,58,59)         81.711                                          !
 ! D171  D(69,57,58,71)       -115.2329                                         !
 ! D172  D(70,57,58,59)        -37.5251                                         !
 ! D173  D(70,57,58,71)        125.5309                                         !
 ! D174  D(57,58,59,60)         -6.3139                                         !
 ! D175  D(57,58,59,61)        175.5087                                         !
 ! D176  D(71,58,59,60)       -169.2865                                         !
 ! D177  D(71,58,59,61)         12.5361                                         !
 ! D178  D(58,59,60,72)        163.6659                                         !
 ! D179  D(58,59,60,73)         18.6612                                         !
 ! D180  D(61,59,60,72)        -18.1862                                         !
 ! D181  D(61,59,60,73)       -163.1909                                         !
 ! D182  D(58,59,61,74)       -157.3395                                         !
 ! D183  D(58,59,61,75)        -10.2203                                         !
 ! D184  D(60,59,61,74)         24.4247                                         !
 ! D185  D(60,59,61,75)        171.5439                                         !
 --------------------------------------------------------------------------------
 Symmetry turned off by external request.
 Stoichiometry    C23H36N9O7(1+)
 Framework group  C1[X(C23H36N9O7)]
 Deg. of freedom   219
 Full point group                 C1      NOp   1
                          Input orientation:                          
 ---------------------------------------------------------------------
 Center     Atomic      Atomic             Coordinates (Angstroms)
 Number     Number       Type             X           Y           Z
 ---------------------------------------------------------------------
      1          7           0       -9.424234   -3.476886   -7.915315
      2          6           0       -9.307677   -3.287419   -6.431015
      3          6           0       -8.747561   -1.918419   -6.010527
      4          8           0       -9.351302   -1.250934   -5.179910
      5          6           0       -8.438028   -4.410053   -5.855452
      6          6           0       -9.057150   -5.785954   -6.083516
      7          7           0       -8.630959   -6.750468   -5.242492
      8          8           0       -9.870014   -5.993209   -6.990427
      9          1           0       -9.843119   -4.417981   -8.038632
     10          1           0      -10.318276   -3.333909   -6.022815
     11          1           0       -7.448122   -4.393624   -6.326061
     12          1           0       -8.276624   -4.222806   -4.790479
     13          1           0       -8.959950   -7.697679   -5.375641
     14          1           0       -7.960202   -6.558877   -4.510925
     15          1           0       -9.974015   -2.717023   -8.345819
     16          1           0       -8.458306   -3.449256   -8.371713
     17          7           0       -7.541374   -1.550303   -6.535335
     18          6           0       -6.719542   -0.567716   -5.836784
     19          6           0       -6.333855    0.650713   -6.691479
     20          8           0       -5.190519    1.124088   -6.626885
     21          6           0       -5.453398   -1.236611   -5.254636
     22          6           0       -5.750275   -2.485652   -4.449936
     23          6           0       -6.586104   -2.444916   -3.323308
     24          6           0       -5.181703   -3.711891   -4.815970
     25          6           0       -6.839093   -3.598488   -2.580028
     26          6           0       -5.424640   -4.869377   -4.070574
     27          6           0       -6.254555   -4.815955   -2.948422
     28          1           0       -7.079165   -2.173369   -7.203947
     29          1           0       -7.347108   -0.185849   -5.023195
     30          1           0       -4.780500   -1.489302   -6.082231
     31          1           0       -4.925343   -0.493713   -4.648569
     32          1           0       -7.044827   -1.506934   -3.021661
     33          1           0       -4.536870   -3.763807   -5.690096
     34          1           0       -7.481639   -3.544965   -1.705822
     35          1           0       -4.954457   -5.804918   -4.361533
     36          1           0       -6.426729   -5.706330   -2.348628
     37          7           0       -7.253095    1.233002   -7.505969
     38          6           0       -8.636561    0.881259   -7.805481
     39          6           0       -8.794190   -0.292795   -8.793908
     40          8           0       -9.864035   -0.912425   -8.819604
     41          6           0       -9.372357    2.112961   -8.381503
     42          6           0       -8.757523    2.606316   -9.692768
     43          7           0       -9.620235    2.941136  -10.670985
     44          8           0       -7.529596    2.695293   -9.841463
     45          1           0       -6.895404    2.011709   -8.051727
     46          1           0       -9.155135    0.573074   -6.894396
     47          1           0       -9.319278    2.933342   -7.655767
     48          1           0      -10.424972    1.845643   -8.507767
     49          1           0       -9.256692    3.344820  -11.525006
     50          1           0      -10.622101    2.892601  -10.553922
     51          7           0       -7.747728   -0.528305   -9.608688
     52          6           0       -7.612957   -1.707059  -10.474955
     53          6           0       -6.511822   -2.601327   -9.803179
     54          8           0       -5.335924   -2.579285  -10.225759
     55          6           0       -7.537600   -1.334373  -11.973287
     56          6           0       -6.306955   -0.664138  -12.625437
     57          6           0       -5.669114    0.527438  -11.893277
     58          7           0       -4.888399   -0.028623  -10.786782
     59          6           0       -4.468805    0.552855   -9.669970
     60          7           0       -4.619355    1.870510   -9.436892
     61          7           0       -3.835687   -0.216232   -8.757810
     62          8           0       -6.904098   -3.232784   -8.767687
     63          1           0       -6.932570    0.051043   -9.473437
     64          1           0       -8.560597   -2.238364  -10.364322
     65          1           0       -7.725580   -2.257768  -12.534160
     66          1           0       -8.411623   -0.692410  -12.144409
     67          1           0       -5.524312   -1.411174  -12.799210
     68          1           0       -6.621774   -0.320792  -13.616894
     69          1           0       -5.006939    1.077476  -12.571998
     70          1           0       -6.431869    1.225043  -11.524127
     71          1           0       -4.869408   -1.065887  -10.765324
     72          1           0       -4.506486    2.173233   -8.473785
     73          1           0       -5.301841    2.387786   -9.978399
     74          1           0       -3.828300    0.107029   -7.795244
     75          1           0       -3.858857   -1.220564   -8.907279
 ---------------------------------------------------------------------
 Rotational constants (GHZ):           0.1513597           0.0727448           0.0694156
 Standard basis: 6-31G(d) (6D, 7F)
   657 basis functions,  1236 primitive gaussians,   657 cartesian basis functions
   146 alpha electrons      146 beta electrons
       nuclear repulsion energy      5212.3611167144 Hartrees.
 NAtoms=   75 NActive=   75 NUniq=   75 SFac= 1.00D+00 NAtFMM=   60 NAOKFM=T Big=T
 Integral buffers will be    131072 words long.
 Raffenetti 2 integral format.
 Two-electron integral symmetry is turned off.
 Nuclear repulsion after empirical dispersion term =     5212.2320476037 Hartrees.
 One-electron integrals computed using PRISM.
 NBasis=   657 RedAO= T EigKep=  4.64D-04  NBF=   657
 NBsUse=   657 1.00D-06 EigRej= -1.00D+00 NBFU=   657
 Initial guess from the checkpoint file:  "conf-876.chk"
 B after Tr=     0.000000    0.000000    0.000000
         Rot=    1.000000    0.000000    0.000000    0.000000 Ang=   0.00 deg.
 Requested convergence on RMS density matrix=1.00D-08 within 128 cycles.
 Requested convergence on MAX density matrix=1.00D-06.
 Requested convergence on             energy=1.00D-06.
 No special actions if energy rises.
 SCF Done:  E(RB3LYP) =  -1917.54201999     A.U. after    1 cycles
            NFock=  1  Conv=0.55D-08     -V/T= 2.0093

 **********************************************************************

            Population analysis using the SCF Density.

 **********************************************************************

 Alpha  occ. eigenvalues --  -19.25035 -19.24027 -19.23847 -19.23020 -19.22470
 Alpha  occ. eigenvalues --  -19.21411 -19.21161 -14.51492 -14.48836 -14.48330
 Alpha  occ. eigenvalues --  -14.48127 -14.47931 -14.47660 -14.47603 -14.46771
 Alpha  occ. eigenvalues --  -14.46080 -10.44577 -10.42637 -10.41329 -10.40975
 Alpha  occ. eigenvalues --  -10.40291 -10.40042 -10.39349 -10.36105 -10.36105
 Alpha  occ. eigenvalues --  -10.34708 -10.33745 -10.33734 -10.32770 -10.30821
 Alpha  occ. eigenvalues --  -10.29528 -10.29442 -10.29397 -10.29393 -10.28455
 Alpha  occ. eigenvalues --  -10.28395 -10.28342 -10.28254 -10.28225  -1.16684
 Alpha  occ. eigenvalues --   -1.15998  -1.15531  -1.14985  -1.14515  -1.14070
 Alpha  occ. eigenvalues --   -1.13298  -1.07835  -1.05824  -1.05432  -1.03897
 Alpha  occ. eigenvalues --   -1.03592  -1.03161  -1.02622  -1.01360  -1.01048
 Alpha  occ. eigenvalues --   -0.95003  -0.91077  -0.90175  -0.89810  -0.88244
 Alpha  occ. eigenvalues --   -0.85478  -0.83938  -0.83668  -0.80635  -0.79060
 Alpha  occ. eigenvalues --   -0.78382  -0.76602  -0.74808  -0.72511  -0.71422
 Alpha  occ. eigenvalues --   -0.71145  -0.70598  -0.70443  -0.69767  -0.69508
 Alpha  occ. eigenvalues --   -0.69107  -0.68729  -0.67273  -0.66854  -0.66685
 Alpha  occ. eigenvalues --   -0.66263  -0.65443  -0.63862  -0.63477  -0.62696
 Alpha  occ. eigenvalues --   -0.61855  -0.61367  -0.61026  -0.60381  -0.59997
 Alpha  occ. eigenvalues --   -0.58920  -0.58861  -0.58420  -0.58036  -0.57654
 Alpha  occ. eigenvalues --   -0.56567  -0.56481  -0.56369  -0.55403  -0.55010
 Alpha  occ. eigenvalues --   -0.54853  -0.54453  -0.54277  -0.54013  -0.53219
 Alpha  occ. eigenvalues --   -0.53004  -0.52499  -0.52295  -0.52076  -0.51480
 Alpha  occ. eigenvalues --   -0.51289  -0.51055  -0.50665  -0.50631  -0.49825
 Alpha  occ. eigenvalues --   -0.49729  -0.49384  -0.49083  -0.48540  -0.48372
 Alpha  occ. eigenvalues --   -0.47839  -0.46739  -0.46572  -0.45499  -0.44908
 Alpha  occ. eigenvalues --   -0.44599  -0.44464  -0.43394  -0.43110  -0.40932
 Alpha  occ. eigenvalues --   -0.40101  -0.39812  -0.39103  -0.38946  -0.38782
 Alpha  occ. eigenvalues --   -0.37710  -0.37402  -0.37273  -0.36899  -0.36281
 Alpha  occ. eigenvalues --   -0.36218  -0.35738  -0.35314  -0.34398  -0.34349
 Alpha  occ. eigenvalues --   -0.33933
 Alpha virt. eigenvalues --   -0.11460  -0.10952  -0.10824  -0.10117  -0.09838
 Alpha virt. eigenvalues --   -0.09622  -0.09353  -0.07480  -0.06810  -0.04432
 Alpha virt. eigenvalues --   -0.03301  -0.01859  -0.01564  -0.00893  -0.00270
 Alpha virt. eigenvalues --    0.00222   0.01104   0.01211   0.01711   0.02287
 Alpha virt. eigenvalues --    0.02480   0.02951   0.03126   0.03276   0.03681
 Alpha virt. eigenvalues --    0.04118   0.04266   0.04652   0.05092   0.05310
 Alpha virt. eigenvalues --    0.05542   0.05889   0.06137   0.06438   0.07032
 Alpha virt. eigenvalues --    0.07059   0.07206   0.07570   0.07946   0.08125
 Alpha virt. eigenvalues --    0.08476   0.08734   0.08871   0.09556   0.09784
 Alpha virt. eigenvalues --    0.09948   0.10267   0.10603   0.11274   0.11581
 Alpha virt. eigenvalues --    0.12033   0.12366   0.12774   0.13382   0.13892
 Alpha virt. eigenvalues --    0.14470   0.14766   0.15079   0.15746   0.16447
 Alpha virt. eigenvalues --    0.17040   0.17635   0.17924   0.18588   0.19481
 Alpha virt. eigenvalues --    0.21340   0.21752   0.22851   0.23007   0.23302
 Alpha virt. eigenvalues --    0.24173   0.24379   0.25332   0.25905   0.26795
 Alpha virt. eigenvalues --    0.27391   0.27982   0.29201   0.29506   0.31592
 Alpha virt. eigenvalues --    0.31672   0.31961   0.33205   0.36003   0.36691
 Alpha virt. eigenvalues --    0.37410   0.38083   0.39071   0.39566   0.40077
 Alpha virt. eigenvalues --    0.40602   0.41267   0.41795   0.42867   0.43356
 Alpha virt. eigenvalues --    0.43790   0.43820   0.44572   0.45242   0.45692
 Alpha virt. eigenvalues --    0.46217   0.46447   0.46780   0.47079   0.47141
 Alpha virt. eigenvalues --    0.47428   0.48146   0.48460   0.48849   0.49380
 Alpha virt. eigenvalues --    0.49829   0.50399   0.50966   0.51325   0.51782
 Alpha virt. eigenvalues --    0.51981   0.52344   0.52562   0.53074   0.53194
 Alpha virt. eigenvalues --    0.53450   0.54328   0.54360   0.54757   0.54886
 Alpha virt. eigenvalues --    0.55427   0.55492   0.56167   0.56420   0.56496
 Alpha virt. eigenvalues --    0.56961   0.57697   0.57910   0.58347   0.58992
 Alpha virt. eigenvalues --    0.59484   0.60194   0.60844   0.61281   0.61820
 Alpha virt. eigenvalues --    0.62271   0.62497   0.63127   0.63969   0.64371
 Alpha virt. eigenvalues --    0.64831   0.65398   0.66689   0.67217   0.67625
 Alpha virt. eigenvalues --    0.68792   0.69191   0.69820   0.70519   0.70970
 Alpha virt. eigenvalues --    0.71559   0.72264   0.72772   0.73187   0.73467
 Alpha virt. eigenvalues --    0.73856   0.74211   0.74495   0.74660   0.74828
 Alpha virt. eigenvalues --    0.75544   0.75789   0.76018   0.76350   0.76486
 Alpha virt. eigenvalues --    0.76829   0.77153   0.77203   0.77777   0.78060
 Alpha virt. eigenvalues --    0.78643   0.78926   0.79162   0.79692   0.80128
 Alpha virt. eigenvalues --    0.81027   0.81504   0.81846   0.82316   0.82567
 Alpha virt. eigenvalues --    0.82879   0.83356   0.83805   0.84006   0.84517
 Alpha virt. eigenvalues --    0.84788   0.85155   0.85948   0.86077   0.86454
 Alpha virt. eigenvalues --    0.87273   0.87615   0.88587   0.89157   0.89614
 Alpha virt. eigenvalues --    0.90532   0.90750   0.92170   0.92894   0.93429
 Alpha virt. eigenvalues --    0.93966   0.94468   0.94855   0.95644   0.96417
 Alpha virt. eigenvalues --    0.96891   0.97738   0.98348   0.99684   1.00063
 Alpha virt. eigenvalues --    1.00989   1.01689   1.01739   1.01991   1.03214
 Alpha virt. eigenvalues --    1.04552   1.04947   1.05167   1.06170   1.06580
 Alpha virt. eigenvalues --    1.07026   1.07219   1.08661   1.09037   1.09665
 Alpha virt. eigenvalues --    1.10523   1.11093   1.11661   1.12874   1.13479
 Alpha virt. eigenvalues --    1.13748   1.14027   1.15364   1.15646   1.16960
 Alpha virt. eigenvalues --    1.17347   1.18301   1.18965   1.19112   1.19707
 Alpha virt. eigenvalues --    1.20967   1.22299   1.22560   1.23795   1.24439
 Alpha virt. eigenvalues --    1.25102   1.25631   1.25931   1.26926   1.27733
 Alpha virt. eigenvalues --    1.28823   1.29217   1.30575   1.30850   1.31250
 Alpha virt. eigenvalues --    1.31855   1.33113   1.33881   1.34301   1.34888
 Alpha virt. eigenvalues --    1.35633   1.35703   1.36543   1.37583   1.38545
 Alpha virt. eigenvalues --    1.38761   1.39162   1.39704   1.40667   1.41016
 Alpha virt. eigenvalues --    1.41328   1.42734   1.43149   1.43988   1.45364
 Alpha virt. eigenvalues --    1.47722   1.48480   1.48973   1.49099   1.50468
 Alpha virt. eigenvalues --    1.52245   1.53277   1.54450   1.54687   1.55757
 Alpha virt. eigenvalues --    1.56663   1.56933   1.57409   1.57938   1.60433
 Alpha virt. eigenvalues --    1.60610   1.61423   1.62017   1.62653   1.63500
 Alpha virt. eigenvalues --    1.63717   1.63922   1.64880   1.65551   1.65842
 Alpha virt. eigenvalues --    1.66535   1.68245   1.68777   1.69122   1.69417
 Alpha virt. eigenvalues --    1.70336   1.70736   1.70759   1.71444   1.71664
 Alpha virt. eigenvalues --    1.72278   1.72996   1.73610   1.74162   1.74650
 Alpha virt. eigenvalues --    1.75078   1.75971   1.76389   1.76985   1.77666
 Alpha virt. eigenvalues --    1.78086   1.78825   1.78863   1.79304   1.79528
 Alpha virt. eigenvalues --    1.80488   1.80795   1.81835   1.81989   1.82447
 Alpha virt. eigenvalues --    1.83245   1.83670   1.83781   1.84727   1.85102
 Alpha virt. eigenvalues --    1.86180   1.86426   1.86724   1.87603   1.88876
 Alpha virt. eigenvalues --    1.89121   1.89392   1.90256   1.90675   1.90796
 Alpha virt. eigenvalues --    1.92078   1.92757   1.93036   1.94149   1.94880
 Alpha virt. eigenvalues --    1.95414   1.96622   1.96871   1.97734   1.98766
 Alpha virt. eigenvalues --    1.99494   1.99817   2.01165   2.01411   2.01539
 Alpha virt. eigenvalues --    2.02321   2.03418   2.03787   2.04611   2.05159
 Alpha virt. eigenvalues --    2.05552   2.06455   2.07303   2.08246   2.09596
 Alpha virt. eigenvalues --    2.09914   2.10976   2.11667   2.12624   2.13683
 Alpha virt. eigenvalues --    2.14157   2.14732   2.15718   2.16606   2.17274
 Alpha virt. eigenvalues --    2.18178   2.19176   2.19524   2.19988   2.20559
 Alpha virt. eigenvalues --    2.21195   2.22442   2.23081   2.23207   2.24806
 Alpha virt. eigenvalues --    2.25685   2.26024   2.27866   2.28340   2.28885
 Alpha virt. eigenvalues --    2.29553   2.30655   2.30868   2.31722   2.33202
 Alpha virt. eigenvalues --    2.34521   2.35366   2.36145   2.37299   2.38032
 Alpha virt. eigenvalues --    2.39586   2.40231   2.41010   2.41997   2.42856
 Alpha virt. eigenvalues --    2.44281   2.44958   2.45881   2.46846   2.47333
 Alpha virt. eigenvalues --    2.48676   2.49559   2.49808   2.50493   2.51374
 Alpha virt. eigenvalues --    2.51655   2.52011   2.53100   2.53758   2.54574
 Alpha virt. eigenvalues --    2.54914   2.55622   2.55907   2.56705   2.58161
 Alpha virt. eigenvalues --    2.58603   2.59636   2.61453   2.62973   2.63334
 Alpha virt. eigenvalues --    2.64852   2.65484   2.66188   2.66535   2.67280
 Alpha virt. eigenvalues --    2.67631   2.69798   2.72216   2.72758   2.76593
 Alpha virt. eigenvalues --    2.77775   2.81004   2.83233   2.84336   2.88348
 Alpha virt. eigenvalues --    2.88801   2.89584   2.89899   2.90645   2.91265
 Alpha virt. eigenvalues --    2.91764   2.93345   2.94114   2.96422   2.98344
 Alpha virt. eigenvalues --    2.98876   3.01703   3.03302   3.03970   3.04964
 Alpha virt. eigenvalues --    3.09960   3.31402   3.68130   3.72681   3.73718
 Alpha virt. eigenvalues --    3.80579   3.82214   3.87650   3.91511   3.96152
 Alpha virt. eigenvalues --    3.96491   3.97501   4.00656   4.02008   4.05049
 Alpha virt. eigenvalues --    4.06887   4.08314   4.09842   4.10286   4.13286
 Alpha virt. eigenvalues --    4.14714   4.16439   4.19752   4.21951   4.23531
 Alpha virt. eigenvalues --    4.26353   4.28809   4.30904   4.33755   4.35780
 Alpha virt. eigenvalues --    4.38031   4.40202   4.42470   4.44787   4.45706
 Alpha virt. eigenvalues --    4.50864   4.54760   4.58493   4.62086   4.64901
 Alpha virt. eigenvalues --    4.67300
          Condensed to atoms (all electrons):
 Mulliken charges:
               1
     1  N   -0.814952
     2  C   -0.109229
     3  C    0.628637
     4  O   -0.511022
     5  C   -0.416579
     6  C    0.637454
     7  N   -0.742273
     8  O   -0.534137
     9  H    0.418172
    10  H    0.217268
    11  H    0.220093
    12  H    0.211194
    13  H    0.365714
    14  H    0.357786
    15  H    0.427603
    16  H    0.431695
    17  N   -0.653022
    18  C   -0.085070
    19  C    0.633972
    20  O   -0.557026
    21  C   -0.359915
    22  C    0.174530
    23  C   -0.180078
    24  C   -0.198668
    25  C   -0.137863
    26  C   -0.135718
    27  C   -0.160040
    28  H    0.386546
    29  H    0.222540
    30  H    0.140382
    31  H    0.197823
    32  H    0.151660
    33  H    0.145886
    34  H    0.158611
    35  H    0.153173
    36  H    0.150563
    37  N   -0.639384
    38  C   -0.056487
    39  C    0.644167
    40  O   -0.583611
    41  C   -0.395672
    42  C    0.620059
    43  N   -0.724908
    44  O   -0.558022
    45  H    0.366864
    46  H    0.221477
    47  H    0.216726
    48  H    0.196175
    49  H    0.365958
    50  H    0.368869
    51  N   -0.610652
    52  C   -0.075909
    53  C    0.604919
    54  O   -0.554338
    55  C   -0.267424
    56  C   -0.316657
    57  C   -0.159733
    58  N   -0.629829
    59  C    0.717950
    60  N   -0.753609
    61  N   -0.769538
    62  O   -0.599234
    63  H    0.366283
    64  H    0.164640
    65  H    0.172628
    66  H    0.152557
    67  H    0.185238
    68  H    0.170448
    69  H    0.188079
    70  H    0.175771
    71  H    0.418088
    72  H    0.377885
    73  H    0.392707
    74  H    0.392330
    75  H    0.379474
 Sum of Mulliken charges =   1.00000
 Mulliken charges with hydrogens summed into heavy atoms:
               1
     1  N    0.462519
     2  C    0.108039
     3  C    0.628637
     4  O   -0.511022
     5  C    0.014709
     6  C    0.637454
     7  N   -0.018772
     8  O   -0.534137
    17  N   -0.266475
    18  C    0.137470
    19  C    0.633972
    20  O   -0.557026
    21  C   -0.021710
    22  C    0.174530
    23  C   -0.028418
    24  C   -0.052782
    25  C    0.020749
    26  C    0.017455
    27  C   -0.009477
    37  N   -0.272521
    38  C    0.164990
    39  C    0.644167
    40  O   -0.583611
    41  C    0.017229
    42  C    0.620059
    43  N    0.009919
    44  O   -0.558022
    51  N   -0.244368
    52  C    0.088731
    53  C    0.604919
    54  O   -0.554338
    55  C    0.057762
    56  C    0.039029
    57  C    0.204117
    58  N   -0.211741
    59  C    0.717950
    60  N    0.016983
    61  N    0.002266
    62  O   -0.599234
 Electronic spatial extent (au):  <R**2>=         136290.7705
 Charge=              1.0000 electrons
 Dipole moment (field-independent basis, Debye):
    X=            -37.3143    Y=             -3.2267    Z=            -39.9976  Tot=             54.7958
 Quadrupole moment (field-independent basis, Debye-Ang):
   XX=             78.8720   YY=           -155.7114   ZZ=            161.5066
   XY=             17.8426   XZ=            318.5669   YZ=            -24.2098
 Traceless Quadrupole moment (field-independent basis, Debye-Ang):
   XX=             50.6496   YY=           -183.9338   ZZ=            133.2842
   XY=             17.8426   XZ=            318.5669   YZ=            -24.2098
 Octapole moment (field-independent basis, Debye-Ang**2):
  XXX=           2290.7397  YYY=            623.5462  ZZZ=           1101.4415  XYY=           1048.1385
  XXY=            279.0493  XXZ=           -958.4606  XZZ=          -1502.3468  YZZ=            805.0776
  YYZ=           1385.9650  XYZ=            244.7396
 Hexadecapole moment (field-independent basis, Debye-Ang**3):
 XXXX=         -51855.7350 YYYY=          -8452.2365 ZZZZ=         -43427.0508 XXXY=          -8162.6411
 XXXZ=         -13559.2155 YYYX=          -4787.9595 YYYZ=          -4148.4837 ZZZX=          -4225.1906
 ZZZY=         -11076.7847 XXYY=          -9533.2342 XXZZ=           -521.6991 YYZZ=         -14630.9421
 XXYZ=          -4450.7477 YYXZ=          -9336.8967 ZZXY=          -6675.4780
 N-N= 5.212232047604D+03 E-N=-1.486350470900D+04  KE= 1.899816146892D+03
 Unable to Open any file for archive entry.
 1\1\GINC-AMR-243\SP\RB3LYP\6-31G(d)\C23H36N9O7(1+)\KENGMITH\03-Jun-202
 2\0\\# B3LYP/6-31G* empiricaldispersion=gd3 guess=read geom=check nosy
 mm integral(ultrafinegrid)\\Candidate Structure: Conf:876 Charge calc 
 in gas phase\\1,1\N,0,-9.4242335737,-3.4768857007,-7.91531486\C,0,-9.3
 076765286,-3.2874187586,-6.431014812\C,0,-8.7475607135,-1.9184189328,-
 6.0105267444\O,0,-9.3513017571,-1.2509337527,-5.179910098\C,0,-8.43802
 8141,-4.4100531899,-5.8554522555\C,0,-9.0571500004,-5.7859543891,-6.08
 35155712\N,0,-8.6309587854,-6.750467851,-5.2424920767\O,0,-9.870013780
 9,-5.9932089339,-6.9904267258\H,0,-9.8431189852,-4.4179812634,-8.03863
 16212\H,0,-10.318276086,-3.3339094605,-6.0228151081\H,0,-7.4481223019,
 -4.3936237743,-6.3260610665\H,0,-8.2766235277,-4.2228064472,-4.7904792
 331\H,0,-8.9599501102,-7.6976793188,-5.3756412167\H,0,-7.9602015326,-6
 .5588767236,-4.510924918\H,0,-9.9740145033,-2.7170226032,-8.3458191972
 \H,0,-8.4583057163,-3.449256055,-8.371713344\N,0,-7.5413741755,-1.5503
 030677,-6.5353353487\C,0,-6.7195419563,-0.567715584,-5.8367840374\C,0,
 -6.3338550467,0.6507134635,-6.6914786317\O,0,-5.1905192427,1.124088466
 ,-6.6268850047\C,0,-5.4533982295,-1.2366109976,-5.2546355154\C,0,-5.75
 02746138,-2.4856519356,-4.4499358918\C,0,-6.5861040207,-2.444916278,-3
 .3233077106\C,0,-5.1817034277,-3.7118906402,-4.8159700324\C,0,-6.83909
 33899,-3.598488174,-2.5800283312\C,0,-5.4246398745,-4.8693774766,-4.07
 05744521\C,0,-6.2545553185,-4.8159549952,-2.9484224524\H,0,-7.07916522
 47,-2.173369055,-7.2039474857\H,0,-7.3471083152,-0.1858492703,-5.02319
 5241\H,0,-4.7805002427,-1.4893015306,-6.0822306414\H,0,-4.9253428353,-
 0.4937134868,-4.6485694251\H,0,-7.0448274394,-1.5069342313,-3.02166072
 32\H,0,-4.5368700466,-3.763806592,-5.6900964363\H,0,-7.4816390724,-3.5
 449645219,-1.7058224962\H,0,-4.9544569825,-5.8049178856,-4.3615327426\
 H,0,-6.4267293674,-5.7063296375,-2.3486283708\N,0,-7.2530949874,1.2330
 019589,-7.5059689006\C,0,-8.6365606411,0.8812585185,-7.8054814244\C,0,
 -8.7941902538,-0.2927945602,-8.79390848\O,0,-9.8640352878,-0.912425461
 9,-8.8196043891\C,0,-9.3723565611,2.1129607492,-8.3815034369\C,0,-8.75
 75227627,2.6063159299,-9.6927681458\N,0,-9.6202350953,2.9411362198,-10
 .6709852215\O,0,-7.5295963615,2.6952932293,-9.8414629408\H,0,-6.895403
 8048,2.0117092041,-8.0517271441\H,0,-9.1551349936,0.5730738708,-6.8943
 962638\H,0,-9.3192777657,2.9333423006,-7.6557671857\H,0,-10.4249716152
 ,1.8456426388,-8.5077669567\H,0,-9.2566915789,3.3448195134,-11.5250056
 02\H,0,-10.6221005699,2.8926005568,-10.553921804\N,0,-7.7477281159,-0.
 5283047465,-9.6086876461\C,0,-7.6129573504,-1.7070589157,-10.474955476
 4\C,0,-6.5118223497,-2.6013266841,-9.803178858\O,0,-5.3359243544,-2.57
 92850624,-10.2257591882\C,0,-7.5375995226,-1.3343734819,-11.9732867068
 \C,0,-6.306955299,-0.6641383006,-12.6254370442\C,0,-5.6691139557,0.527
 4378493,-11.8932773047\N,0,-4.8883994419,-0.0286229,-10.7867817087\C,0
 ,-4.4688054464,0.5528548683,-9.6699695302\N,0,-4.6193553792,1.87051022
 94,-9.4368922545\N,0,-3.835687207,-0.2162319477,-8.7578101306\O,0,-6.9
 040982981,-3.2327842608,-8.7676869702\H,0,-6.9325702874,0.0510429261,-
 9.4734368751\H,0,-8.5605965767,-2.2383644742,-10.3643218618\H,0,-7.725
 5801299,-2.2577680473,-12.5341597245\H,0,-8.4116232469,-0.6924098205,-
 12.1444085998\H,0,-5.5243116012,-1.4111741407,-12.7992095601\H,0,-6.62
 17738173,-0.3207916503,-13.6168942821\H,0,-5.0069386324,1.077476475,-1
 2.5719977427\H,0,-6.431868661,1.2250425384,-11.5241272473\H,0,-4.86940
 84312,-1.0658867091,-10.7653235646\H,0,-4.5064857099,2.1732327471,-8.4
 737849215\H,0,-5.301841401,2.3877861989,-9.9783991875\H,0,-3.828300485
 ,0.1070285004,-7.7952437075\H,0,-3.8588574552,-1.2205641241,-8.9072785
 623\\Version=ES64L-G16RevC.01\HF=-1917.54202\RMSD=5.476e-09\Dipole=-1.
 0143798,1.3566733,-1.1238877\Quadrupole=37.6567442,-136.7502805,99.093
 5363,13.2655278,236.8467013,-17.999397\PG=C01 [X(C23H36N9O7)]\\@
 The archive entry for this job was punched.


 IF THERE IS ONE WAY BETTER THAN ANOTHER IT IS THE WAY OF NATURE.

                          -- ARISTOTLE
 Job cpu time:       0 days  0 hours  2 minutes  7.9 seconds.
 Elapsed time:       0 days  0 hours  0 minutes 32.6 seconds.
 File lengths (MBytes):  RWF=    344 Int=      0 D2E=      0 Chk=     48 Scr=     16
 Normal termination of Gaussian 16 at Fri Jun  3 06:00:34 2022.
