 Entering Gaussian System, Link 0=/opt/software/Gaussian/g16-AVX2-C.01/g16/g16
 Input=charge-conf-255.com
 Output=charge-conf-255.log
 Initial command:
 /opt/software/Gaussian/g16-AVX2-C.01/g16/l1.exe "/mnt/gs18/scratch/users/kengmith/Gau-130686.inp" -scrdir="/mnt/gs18/scratch/users/kengmith/"
 Entering Link 1 = /opt/software/Gaussian/g16-AVX2-C.01/g16/l1.exe PID=    130696.
  
 Copyright (c) 1988-2019, Gaussian, Inc.  All Rights Reserved.
  
 This is part of the Gaussian(R) 16 program.  It is based on
 the Gaussian(R) 09 system (copyright 2009, Gaussian, Inc.),
 the Gaussian(R) 03 system (copyright 2003, Gaussian, Inc.),
 the Gaussian(R) 98 system (copyright 1998, Gaussian, Inc.),
 the Gaussian(R) 94 system (copyright 1995, Gaussian, Inc.),
 the Gaussian 92(TM) system (copyright 1992, Gaussian, Inc.),
 the Gaussian 90(TM) system (copyright 1990, Gaussian, Inc.),
 the Gaussian 88(TM) system (copyright 1988, Gaussian, Inc.),
 the Gaussian 86(TM) system (copyright 1986, Carnegie Mellon
 University), and the Gaussian 82(TM) system (copyright 1983,
 Carnegie Mellon University). Gaussian is a federally registered
 trademark of Gaussian, Inc.
  
 This software contains proprietary and confidential information,
 including trade secrets, belonging to Gaussian, Inc.
  
 This software is provided under written license and may be
 used, copied, transmitted, or stored only in accord with that
 written license.
  
 The following legend is applicable only to US Government
 contracts under FAR:
  
                    RESTRICTED RIGHTS LEGEND
  
 Use, reproduction and disclosure by the US Government is
 subject to restrictions as set forth in subparagraphs (a)
 and (c) of the Commercial Computer Software - Restricted
 Rights clause in FAR 52.227-19.
  
 Gaussian, Inc.
 340 Quinnipiac St., Bldg. 40, Wallingford CT 06492
  
  
 ---------------------------------------------------------------
 Warning -- This program may not be used in any manner that
 competes with the business of Gaussian, Inc. or will provide
 assistance to any competitor of Gaussian, Inc.  The licensee
 of this program is prohibited from giving any competitor of
 Gaussian, Inc. access to this program.  By using this program,
 the user acknowledges that Gaussian, Inc. is engaged in the
 business of creating and licensing software in the field of
 computational chemistry and represents and warrants to the
 licensee that it is not a competitor of Gaussian, Inc. and that
 it will not use this program in any manner prohibited above.
 ---------------------------------------------------------------
  

 Cite this work as:
 Gaussian 16, Revision C.01,
 M. J. Frisch, G. W. Trucks, H. B. Schlegel, G. E. Scuseria, 
 M. A. Robb, J. R. Cheeseman, G. Scalmani, V. Barone, 
 G. A. Petersson, H. Nakatsuji, X. Li, M. Caricato, A. V. Marenich, 
 J. Bloino, B. G. Janesko, R. Gomperts, B. Mennucci, H. P. Hratchian, 
 J. V. Ortiz, A. F. Izmaylov, J. L. Sonnenberg, D. Williams-Young, 
 F. Ding, F. Lipparini, F. Egidi, J. Goings, B. Peng, A. Petrone, 
 T. Henderson, D. Ranasinghe, V. G. Zakrzewski, J. Gao, N. Rega, 
 G. Zheng, W. Liang, M. Hada, M. Ehara, K. Toyota, R. Fukuda, 
 J. Hasegawa, M. Ishida, T. Nakajima, Y. Honda, O. Kitao, H. Nakai, 
 T. Vreven, K. Throssell, J. A. Montgomery, Jr., J. E. Peralta, 
 F. Ogliaro, M. J. Bearpark, J. J. Heyd, E. N. Brothers, K. N. Kudin, 
 V. N. Staroverov, T. A. Keith, R. Kobayashi, J. Normand, 
 K. Raghavachari, A. P. Rendell, J. C. Burant, S. S. Iyengar, 
 J. Tomasi, M. Cossi, J. M. Millam, M. Klene, C. Adamo, R. Cammi, 
 J. W. Ochterski, R. L. Martin, K. Morokuma, O. Farkas, 
 J. B. Foresman, and D. J. Fox, Gaussian, Inc., Wallingford CT, 2019.
 
 ******************************************
 Gaussian 16:  ES64L-G16RevC.01  3-Jul-2019
                 3-Jun-2022 
 ******************************************
 %mem=8gb
 %nproc=4
 Will use up to    4 processors via shared memory.
 %chk=conf-255.chk
 ----------------------------------------------------------------------
 # B3LYP/6-31G* empiricaldispersion=gd3 guess=read geom=check nosymm in
 tegral(ultrafinegrid)
 ----------------------------------------------------------------------
 1/29=2,38=1,172=1/1;
 2/12=2,15=1,40=1/2;
 3/5=1,6=6,7=1,11=2,14=-4,25=1,30=1,74=-5,75=-5,116=-2,124=31/1,2,3;
 4/5=1/1;
 5/5=2,38=6/2;
 6/7=2,8=2,9=2,10=2,28=1/1;
 99/5=1,9=1/99;
 ------------------------------------------------------
 Candidate Structure: Conf:255 Charge calc in gas phase
 ------------------------------------------------------
 Structure from the checkpoint file:  "conf-255.chk"
 Charge =  1 Multiplicity = 1
 Redundant internal coordinates found in file.  (old form).
 N,0,-4.331362287,-1.2383774237,-7.1547587066
 C,0,-4.3110585573,-1.515358968,-8.6301470822
 C,0,-5.617515169,-1.1557573823,-9.3563291873
 O,0,-5.5763944962,-0.4620561395,-10.3651749611
 C,0,-3.9829671637,-2.9954631808,-8.8535925867
 C,0,-2.6049326041,-3.3638207195,-8.3124390864
 N,0,-2.0475602252,-4.4599546941,-8.8665679034
 O,0,-2.0612132786,-2.7111163706,-7.4154369522
 H,0,-5.0761098611,-1.8325810119,-6.6750990852
 H,0,-3.5397768889,-0.8778394189,-9.0646057201
 H,0,-4.7309317436,-3.6218268115,-8.3533574363
 H,0,-4.0595436303,-3.2165185399,-9.9215298713
 H,0,-1.1584730387,-4.7896672484,-8.5143640255
 H,0,-2.5115496787,-4.9793817894,-9.5991523568
 H,0,-3.3899882591,-1.5082663804,-6.8117150369
 H,0,-4.5787370347,-0.2546395859,-6.9635277433
 N,0,-6.7641358775,-1.713594635,-8.8721113517
 C,0,-7.9360359699,-1.8351057696,-9.7301457657
 C,0,-9.1955872091,-1.2084775856,-9.1124067204
 O,0,-10.2675668181,-1.8336662538,-9.0853161542
 C,0,-8.1887685819,-3.3124726138,-10.1051532382
 C,0,-6.9508877288,-4.0214500284,-10.6175375318
 C,0,-6.2511242999,-3.5526662632,-11.7400683425
 C,0,-6.4837364765,-5.1737626936,-9.9732243264
 C,0,-5.1192480034,-4.2223713856,-12.2066666316
 C,0,-5.3556834719,-5.8541277996,-10.440970032
 C,0,-4.6689965526,-5.3798330987,-11.5609763518
 H,0,-6.7288580083,-2.284635238,-8.0214745429
 H,0,-7.7041539739,-1.2535347042,-10.6293953475
 H,0,-8.5670787332,-3.8386111471,-9.2218949454
 H,0,-8.9963457948,-3.3434469516,-10.8443636074
 H,0,-6.5867965355,-2.6557053991,-12.2534403646
 H,0,-7.0109412914,-5.5497175602,-9.0995495754
 H,0,-4.5955708522,-3.8477968606,-13.0815397645
 H,0,-5.0260467832,-6.7589936352,-9.9373399214
 H,0,-3.8056630193,-5.9172508921,-11.9454962408
 N,0,-9.1458669889,0.0544581363,-8.6174847992
 C,0,-8.0066387387,0.920478834,-8.3314168479
 C,0,-7.1929230718,0.5020337428,-7.0850631131
 O,0,-6.0350340823,0.9162071431,-6.9579313281
 C,0,-8.4985172286,2.3728749417,-8.1433014636
 C,0,-9.4847407977,2.523953706,-6.9820528921
 N,0,-9.3646772996,3.6413696351,-6.2397988154
 O,0,-10.3510388398,1.6690790963,-6.7430688503
 H,0,-10.0180156455,0.3826548924,-8.2091211709
 H,0,-7.300344143,0.9073228566,-9.1650252341
 H,0,-9.0064953005,2.6983978549,-9.0592839045
 H,0,-7.6206587018,3.0100290753,-8.0048527063
 H,0,-10.0474172159,3.8200283787,-5.5143292507
 H,0,-8.6757363053,4.3537141316,-6.4341009157
 N,0,-7.8398057154,-0.2671741058,-6.1897025387
 C,0,-7.2454442941,-0.9028929595,-5.0128952821
 C,0,-7.1616232688,-2.442782048,-5.3269240266
 O,0,-7.8866387529,-3.2517650069,-4.7143288414
 C,0,-7.9225979982,-0.4709699004,-3.6783269519
 C,0,-9.3587581233,0.104038585,-3.7304231847
 C,0,-10.4931796611,-0.9342251763,-3.6710341236
 N,0,-10.2852505393,-2.0652697812,-4.5713777578
 C,0,-10.6330325708,-2.1500470071,-5.8547921639
 N,0,-11.4137534852,-1.2340077124,-6.4621128399
 N,0,-10.2183577037,-3.2189281385,-6.5602979055
 O,0,-6.3577038146,-2.7461971244,-6.2698352941
 H,0,-8.7928340596,-0.5084464603,-6.4207291584
 H,0,-6.2139725529,-0.5441802542,-4.9877372959
 H,0,-7.8762300859,-1.3218400855,-2.9891536069
 H,0,-7.2880073845,0.3093384418,-3.2467123302
 H,0,-9.4941099909,0.7644730479,-2.8657183219
 H,0,-9.4798325309,0.7389113968,-4.6139640471
 H,0,-10.5539354863,-1.3618387318,-2.6655733626
 H,0,-11.4660406859,-0.4737768991,-3.8711926745
 H,0,-9.4775538654,-2.6620713324,-4.3275886379
 H,0,-11.4997866505,-1.3099079377,-7.4738358322
 H,0,-11.4926589182,-0.3006099899,-6.079942281
 H,0,-10.2927506408,-3.1878122985,-7.5726838604
 H,0,-9.5127787938,-3.8180732567,-6.1420285413
 Recover connectivity data from disk.
                           ----------------------------
                           !    Current Parameters    !
                           ! (Angstroms and Degrees)  !
 --------------------------                            --------------------------
 ! Name  Definition              Value                                          !
 --------------------------------------------------------------------------------
 ! R1    R(1,2)                  1.5013                                         !
 ! R2    R(1,9)                  1.0667                                         !
 ! R3    R(1,15)                 1.0376                                         !
 ! R4    R(1,16)                 1.0322                                         !
 ! R5    R(2,3)                  1.5374                                         !
 ! R6    R(2,5)                  1.5324                                         !
 ! R7    R(2,10)                 1.0909                                         !
 ! R8    R(3,4)                  1.225                                          !
 ! R9    R(3,17)                 1.364                                          !
 ! R10   R(5,6)                  1.5256                                         !
 ! R11   R(5,11)                 1.0964                                         !
 ! R12   R(5,12)                 1.0933                                         !
 ! R13   R(6,7)                  1.3488                                         !
 ! R14   R(6,8)                  1.2354                                         !
 ! R15   R(7,13)                 1.0116                                         !
 ! R16   R(7,14)                 1.0108                                         !
 ! R17   R(17,18)                1.4575                                         !
 ! R18   R(17,28)                1.0251                                         !
 ! R19   R(18,19)                1.5365                                         !
 ! R20   R(18,21)                1.545                                          !
 ! R21   R(18,29)                1.0957                                         !
 ! R22   R(19,20)                1.2413                                         !
 ! R23   R(19,37)                1.3574                                         !
 ! R24   R(21,22)                1.5158                                         !
 ! R25   R(21,30)                1.0955                                         !
 ! R26   R(21,31)                1.0952                                         !
 ! R27   R(22,23)                1.4034                                         !
 ! R28   R(22,24)                1.4004                                         !
 ! R29   R(23,25)                1.3955                                         !
 ! R30   R(23,32)                1.0866                                         !
 ! R31   R(24,26)                1.3979                                         !
 ! R32   R(24,33)                1.0875                                         !
 ! R33   R(25,27)                1.3998                                         !
 ! R34   R(25,34)                1.0863                                         !
 ! R35   R(26,27)                1.3967                                         !
 ! R36   R(26,35)                1.0868                                         !
 ! R37   R(27,36)                1.0872                                         !
 ! R38   R(37,38)                1.4593                                         !
 ! R39   R(37,45)                1.0174                                         !
 ! R40   R(38,39)                1.5462                                         !
 ! R41   R(38,41)                1.5449                                         !
 ! R42   R(38,46)                1.0927                                         !
 ! R43   R(39,40)                1.2363                                         !
 ! R44   R(39,51)                1.346                                          !
 ! R45   R(41,42)                1.531                                          !
 ! R46   R(41,47)                1.0968                                         !
 ! R47   R(41,48)                1.0935                                         !
 ! R48   R(42,43)                1.3468                                         !
 ! R49   R(42,44)                1.2403                                         !
 ! R50   R(43,49)                1.0121                                         !
 ! R51   R(43,50)                1.0099                                         !
 ! R52   R(51,52)                1.4637                                         !
 ! R53   R(51,63)                1.0099                                         !
 ! R54   R(52,53)                1.5738                                         !
 ! R55   R(52,55)                1.5576                                         !
 ! R56   R(52,64)                1.0924                                         !
 ! R57   R(53,54)                1.2471                                         !
 ! R58   R(53,62)                1.2757                                         !
 ! R59   R(55,56)                1.5479                                         !
 ! R60   R(55,65)                1.0959                                         !
 ! R61   R(55,66)                1.0945                                         !
 ! R62   R(56,57)                1.539                                          !
 ! R63   R(56,67)                1.0965                                         !
 ! R64   R(56,68)                1.0947                                         !
 ! R65   R(57,58)                1.4605                                         !
 ! R66   R(57,69)                1.0943                                         !
 ! R67   R(57,70)                1.0948                                         !
 ! R68   R(58,59)                1.3324                                         !
 ! R69   R(58,71)                1.0334                                         !
 ! R70   R(59,60)                1.3481                                         !
 ! R71   R(59,61)                1.3462                                         !
 ! R72   R(60,72)                1.0182                                         !
 ! R73   R(60,73)                1.0117                                         !
 ! R74   R(61,74)                1.0156                                         !
 ! R75   R(61,75)                1.0158                                         !
 ! A1    A(2,1,9)              110.4007                                         !
 ! A2    A(2,1,15)             105.3454                                         !
 ! A3    A(2,1,16)             111.1696                                         !
 ! A4    A(9,1,15)             109.8686                                         !
 ! A5    A(9,1,16)             106.2757                                         !
 ! A6    A(15,1,16)            113.8315                                         !
 ! A7    A(1,2,3)              114.1769                                         !
 ! A8    A(1,2,5)              108.9286                                         !
 ! A9    A(1,2,10)             107.0453                                         !
 ! A10   A(3,2,5)              109.8155                                         !
 ! A11   A(3,2,10)             106.0222                                         !
 ! A12   A(5,2,10)             110.7939                                         !
 ! A13   A(2,3,4)              119.5334                                         !
 ! A14   A(2,3,17)             116.8103                                         !
 ! A15   A(4,3,17)             123.5165                                         !
 ! A16   A(2,5,6)              112.0166                                         !
 ! A17   A(2,5,11)             109.829                                          !
 ! A18   A(2,5,12)             108.8284                                         !
 ! A19   A(6,5,11)             108.4478                                         !
 ! A20   A(6,5,12)             111.1581                                         !
 ! A21   A(11,5,12)            106.4032                                         !
 ! A22   A(5,6,7)              115.0719                                         !
 ! A23   A(5,6,8)              121.8377                                         !
 ! A24   A(7,6,8)              123.0782                                         !
 ! A25   A(6,7,13)             119.0162                                         !
 ! A26   A(6,7,14)             121.7133                                         !
 ! A27   A(13,7,14)            119.2287                                         !
 ! A28   A(3,17,18)            120.0679                                         !
 ! A29   A(3,17,28)            119.5687                                         !
 ! A30   A(18,17,28)           118.0159                                         !
 ! A31   A(17,18,19)           112.8576                                         !
 ! A32   A(17,18,21)           110.7401                                         !
 ! A33   A(17,18,29)           105.5888                                         !
 ! A34   A(19,18,21)           110.6994                                         !
 ! A35   A(19,18,29)           106.6769                                         !
 ! A36   A(21,18,29)           110.0558                                         !
 ! A37   A(18,19,20)           120.7524                                         !
 ! A38   A(18,19,37)           119.7379                                         !
 ! A39   A(20,19,37)           119.4925                                         !
 ! A40   A(18,21,22)           113.3103                                         !
 ! A41   A(18,21,30)           108.6652                                         !
 ! A42   A(18,21,31)           108.148                                          !
 ! A43   A(22,21,30)           109.2647                                         !
 ! A44   A(22,21,31)           111.1488                                         !
 ! A45   A(30,21,31)           106.0191                                         !
 ! A46   A(21,22,23)           121.4233                                         !
 ! A47   A(21,22,24)           120.1169                                         !
 ! A48   A(23,22,24)           118.4592                                         !
 ! A49   A(22,23,25)           120.7688                                         !
 ! A50   A(22,23,32)           119.9732                                         !
 ! A51   A(25,23,32)           119.2573                                         !
 ! A52   A(22,24,26)           121.0446                                         !
 ! A53   A(22,24,33)           119.497                                          !
 ! A54   A(26,24,33)           119.4569                                         !
 ! A55   A(23,25,27)           120.2317                                         !
 ! A56   A(23,25,34)           119.6591                                         !
 ! A57   A(27,25,34)           120.105                                          !
 ! A58   A(24,26,27)           119.9841                                         !
 ! A59   A(24,26,35)           119.6653                                         !
 ! A60   A(27,26,35)           120.3452                                         !
 ! A61   A(25,27,26)           119.5075                                         !
 ! A62   A(25,27,36)           120.0677                                         !
 ! A63   A(26,27,36)           120.4074                                         !
 ! A64   A(19,37,38)           130.7094                                         !
 ! A65   A(19,37,45)           114.5251                                         !
 ! A66   A(38,37,45)           113.5207                                         !
 ! A67   A(37,38,39)           114.095                                          !
 ! A68   A(37,38,41)           109.4641                                         !
 ! A69   A(37,38,46)           110.3595                                         !
 ! A70   A(39,38,41)           108.8948                                         !
 ! A71   A(39,38,46)           105.7556                                         !
 ! A72   A(41,38,46)           108.0601                                         !
 ! A73   A(38,39,40)           119.0212                                         !
 ! A74   A(38,39,51)           115.9723                                         !
 ! A75   A(40,39,51)           124.9703                                         !
 ! A76   A(38,41,42)           112.9682                                         !
 ! A77   A(38,41,47)           108.9521                                         !
 ! A78   A(38,41,48)           107.9142                                         !
 ! A79   A(42,41,47)           107.8067                                         !
 ! A80   A(42,41,48)           111.3216                                         !
 ! A81   A(47,41,48)           107.7344                                         !
 ! A82   A(41,42,43)           116.2607                                         !
 ! A83   A(41,42,44)           121.8738                                         !
 ! A84   A(43,42,44)           121.8641                                         !
 ! A85   A(42,43,49)           118.7735                                         !
 ! A86   A(42,43,50)           122.6843                                         !
 ! A87   A(49,43,50)           118.2682                                         !
 ! A88   A(39,51,52)           126.0062                                         !
 ! A89   A(39,51,63)           115.9692                                         !
 ! A90   A(52,51,63)           117.6059                                         !
 ! A91   A(51,52,53)           106.629                                          !
 ! A92   A(51,52,55)           113.0732                                         !
 ! A93   A(51,52,64)           105.0306                                         !
 ! A94   A(53,52,55)           117.7383                                         !
 ! A95   A(53,52,64)           105.9983                                         !
 ! A96   A(55,52,64)           107.4404                                         !
 ! A97   A(52,53,54)           120.3786                                         !
 ! A98   A(52,53,62)           114.4411                                         !
 ! A99   A(54,53,62)           125.1084                                         !
 ! A100  A(52,55,56)           118.5246                                         !
 ! A101  A(52,55,65)           107.7648                                         !
 ! A102  A(52,55,66)           106.4704                                         !
 ! A103  A(56,55,65)           110.416                                          !
 ! A104  A(56,55,66)           106.6419                                         !
 ! A105  A(65,55,66)           106.3201                                         !
 ! A106  A(55,56,57)           115.5953                                         !
 ! A107  A(55,56,67)           108.1648                                         !
 ! A108  A(55,56,68)           110.1956                                         !
 ! A109  A(57,56,67)           106.5551                                         !
 ! A110  A(57,56,68)           109.9307                                         !
 ! A111  A(67,56,68)           105.8748                                         !
 ! A112  A(56,57,58)           113.1864                                         !
 ! A113  A(56,57,69)           109.8775                                         !
 ! A114  A(56,57,70)           111.3608                                         !
 ! A115  A(58,57,69)           105.7654                                         !
 ! A116  A(58,57,70)           109.8472                                         !
 ! A117  A(69,57,70)           106.4393                                         !
 ! A118  A(57,58,59)           127.2939                                         !
 ! A119  A(57,58,71)           114.3976                                         !
 ! A120  A(59,58,71)           113.2341                                         !
 ! A121  A(58,59,60)           122.8096                                         !
 ! A122  A(58,59,61)           118.3547                                         !
 ! A123  A(60,59,61)           118.8038                                         !
 ! A124  A(59,60,72)           116.4809                                         !
 ! A125  A(59,60,73)           120.1253                                         !
 ! A126  A(72,60,73)           115.9467                                         !
 ! A127  A(59,61,74)           118.3941                                         !
 ! A128  A(59,61,75)           117.8083                                         !
 ! A129  A(74,61,75)           118.6485                                         !
 ! D1    D(9,1,2,3)             62.6088                                         !
 ! D2    D(9,1,2,5)            -60.5378                                         !
 ! D3    D(9,1,2,10)           179.6151                                         !
 ! D4    D(15,1,2,3)          -178.8315                                         !
 ! D5    D(15,1,2,5)            58.0218                                         !
 ! D6    D(15,1,2,10)          -61.8252                                         !
 ! D7    D(16,1,2,3)           -55.0808                                         !
 ! D8    D(16,1,2,5)          -178.2275                                         !
 ! D9    D(16,1,2,10)           61.9254                                         !
 ! D10   D(1,2,3,4)            129.3624                                         !
 ! D11   D(1,2,3,17)           -54.7847                                         !
 ! D12   D(5,2,3,4)           -107.973                                          !
 ! D13   D(5,2,3,17)            67.88                                           !
 ! D14   D(10,2,3,4)            11.7676                                         !
 ! D15   D(10,2,3,17)         -172.3794                                         !
 ! D16   D(1,2,5,6)            -61.8717                                         !
 ! D17   D(1,2,5,11)            58.7027                                         !
 ! D18   D(1,2,5,12)           174.8143                                         !
 ! D19   D(3,2,5,6)            172.4109                                         !
 ! D20   D(3,2,5,11)           -67.0147                                         !
 ! D21   D(3,2,5,12)            49.0969                                         !
 ! D22   D(10,2,5,6)            55.6253                                         !
 ! D23   D(10,2,5,11)          176.1997                                         !
 ! D24   D(10,2,5,12)          -67.6887                                         !
 ! D25   D(2,3,17,18)         -157.943                                          !
 ! D26   D(2,3,17,28)            4.3236                                         !
 ! D27   D(4,3,17,18)           17.7288                                         !
 ! D28   D(4,3,17,28)          179.9955                                         !
 ! D29   D(2,5,6,7)           -157.2627                                         !
 ! D30   D(2,5,6,8)             23.9669                                         !
 ! D31   D(11,5,6,7)            81.3643                                         !
 ! D32   D(11,5,6,8)           -97.4061                                         !
 ! D33   D(12,5,6,7)           -35.2716                                         !
 ! D34   D(12,5,6,8)           145.9581                                         !
 ! D35   D(5,6,7,13)          -176.4513                                         !
 ! D36   D(5,6,7,14)             1.177                                          !
 ! D37   D(8,6,7,13)             2.302                                          !
 ! D38   D(8,6,7,14)           179.9303                                         !
 ! D39   D(3,17,18,19)        -126.1525                                         !
 ! D40   D(3,17,18,21)         109.1117                                         !
 ! D41   D(3,17,18,29)          -9.9892                                         !
 ! D42   D(28,17,18,19)         71.3101                                         !
 ! D43   D(28,17,18,21)        -53.4257                                         !
 ! D44   D(28,17,18,29)       -172.5266                                         !
 ! D45   D(17,18,19,20)       -131.5172                                         !
 ! D46   D(17,18,19,37)         49.9955                                         !
 ! D47   D(21,18,19,20)         -6.7592                                         !
 ! D48   D(21,18,19,37)        174.7535                                         !
 ! D49   D(29,18,19,20)        112.9695                                         !
 ! D50   D(29,18,19,37)        -65.5178                                         !
 ! D51   D(17,18,21,22)        -49.4132                                         !
 ! D52   D(17,18,21,30)         72.2386                                         !
 ! D53   D(17,18,21,31)       -173.1003                                         !
 ! D54   D(19,18,21,22)       -175.3649                                         !
 ! D55   D(19,18,21,30)        -53.7132                                         !
 ! D56   D(19,18,21,31)         60.9479                                         !
 ! D57   D(29,18,21,22)         66.9555                                         !
 ! D58   D(29,18,21,30)       -171.3928                                         !
 ! D59   D(29,18,21,31)        -56.7317                                         !
 ! D60   D(18,19,37,38)        -12.4826                                         !
 ! D61   D(18,19,37,45)       -178.7109                                         !
 ! D62   D(20,19,37,38)        169.0109                                         !
 ! D63   D(20,19,37,45)          2.7827                                         !
 ! D64   D(18,21,22,23)        -58.1856                                         !
 ! D65   D(18,21,22,24)        122.0883                                         !
 ! D66   D(30,21,22,23)       -179.5009                                         !
 ! D67   D(30,21,22,24)          0.7729                                         !
 ! D68   D(31,21,22,23)         63.8425                                         !
 ! D69   D(31,21,22,24)       -115.8837                                         !
 ! D70   D(21,22,23,25)       -179.4722                                         !
 ! D71   D(21,22,23,32)          0.8183                                         !
 ! D72   D(24,22,23,25)          0.2584                                         !
 ! D73   D(24,22,23,32)       -179.4511                                         !
 ! D74   D(21,22,24,26)        179.0501                                         !
 ! D75   D(21,22,24,33)         -0.492                                          !
 ! D76   D(23,22,24,26)         -0.6841                                         !
 ! D77   D(23,22,24,33)        179.7738                                         !
 ! D78   D(22,23,25,27)          0.2968                                         !
 ! D79   D(22,23,25,34)        179.5541                                         !
 ! D80   D(32,23,25,27)       -179.9916                                         !
 ! D81   D(32,23,25,34)         -0.7343                                         !
 ! D82   D(22,24,26,27)          0.5539                                         !
 ! D83   D(22,24,26,35)       -178.6022                                         !
 ! D84   D(33,24,26,27)       -179.9039                                         !
 ! D85   D(33,24,26,35)          0.9401                                         !
 ! D86   D(23,25,27,26)         -0.4337                                         !
 ! D87   D(23,25,27,36)        178.0548                                         !
 ! D88   D(34,25,27,26)       -179.6877                                         !
 ! D89   D(34,25,27,36)         -1.1992                                         !
 ! D90   D(24,26,27,25)          0.0134                                         !
 ! D91   D(24,26,27,36)       -178.4698                                         !
 ! D92   D(35,26,27,25)        179.1637                                         !
 ! D93   D(35,26,27,36)          0.6804                                         !
 ! D94   D(19,37,38,39)        -72.7777                                         !
 ! D95   D(19,37,38,41)        164.9262                                         !
 ! D96   D(19,37,38,46)         46.1189                                         !
 ! D97   D(45,37,38,39)         93.5598                                         !
 ! D98   D(45,37,38,41)        -28.7363                                         !
 ! D99   D(45,37,38,46)       -147.5436                                         !
 ! D100  D(37,38,39,40)        160.4118                                         !
 ! D101  D(37,38,39,51)        -21.668                                          !
 ! D102  D(41,38,39,40)        -76.9807                                         !
 ! D103  D(41,38,39,51)        100.9395                                         !
 ! D104  D(46,38,39,40)         38.9339                                         !
 ! D105  D(46,38,39,51)       -143.1459                                         !
 ! D106  D(37,38,41,42)         60.638                                          !
 ! D107  D(37,38,41,47)        -59.1447                                         !
 ! D108  D(37,38,41,48)       -175.8551                                         !
 ! D109  D(39,38,41,42)        -64.7156                                         !
 ! D110  D(39,38,41,47)        175.5017                                         !
 ! D111  D(39,38,41,48)         58.7913                                         !
 ! D112  D(46,38,41,42)       -179.1393                                         !
 ! D113  D(46,38,41,47)         61.078                                          !
 ! D114  D(46,38,41,48)        -55.6324                                         !
 ! D115  D(38,39,51,52)        173.0589                                         !
 ! D116  D(38,39,51,63)          0.7028                                         !
 ! D117  D(40,39,51,52)         -9.1605                                         !
 ! D118  D(40,39,51,63)        178.4833                                         !
 ! D119  D(38,41,42,43)        141.4824                                         !
 ! D120  D(38,41,42,44)        -38.9376                                         !
 ! D121  D(47,41,42,43)        -98.0786                                         !
 ! D122  D(47,41,42,44)         81.5013                                         !
 ! D123  D(48,41,42,43)         19.8782                                         !
 ! D124  D(48,41,42,44)       -160.5418                                         !
 ! D125  D(41,42,43,49)        174.6692                                         !
 ! D126  D(41,42,43,50)          0.7915                                         !
 ! D127  D(44,42,43,49)         -4.9108                                         !
 ! D128  D(44,42,43,50)       -178.7885                                         !
 ! D129  D(39,51,52,53)       -107.4616                                         !
 ! D130  D(39,51,52,55)        121.6027                                         !
 ! D131  D(39,51,52,64)          4.7499                                         !
 ! D132  D(63,51,52,53)         64.7829                                         !
 ! D133  D(63,51,52,55)        -66.1528                                         !
 ! D134  D(63,51,52,64)        176.9944                                         !
 ! D135  D(51,52,53,54)       -110.9738                                         !
 ! D136  D(51,52,53,62)         66.0953                                         !
 ! D137  D(55,52,53,54)         17.2822                                         !
 ! D138  D(55,52,53,62)       -165.6487                                         !
 ! D139  D(64,52,53,54)        137.4838                                         !
 ! D140  D(64,52,53,62)        -45.4471                                         !
 ! D141  D(51,52,55,56)         21.4512                                         !
 ! D142  D(51,52,55,65)        147.6822                                         !
 ! D143  D(51,52,55,66)        -98.5881                                         !
 ! D144  D(53,52,55,56)       -103.6801                                         !
 ! D145  D(53,52,55,65)         22.5508                                         !
 ! D146  D(53,52,55,66)        136.2805                                         !
 ! D147  D(64,52,55,56)        136.8739                                         !
 ! D148  D(64,52,55,65)        -96.8952                                         !
 ! D149  D(64,52,55,66)         16.8345                                         !
 ! D150  D(52,55,56,57)         87.1168                                         !
 ! D151  D(52,55,56,67)       -153.5637                                         !
 ! D152  D(52,55,56,68)        -38.259                                          !
 ! D153  D(65,55,56,57)        -37.8318                                         !
 ! D154  D(65,55,56,67)         81.4877                                         !
 ! D155  D(65,55,56,68)       -163.2076                                         !
 ! D156  D(66,55,56,57)       -152.9322                                         !
 ! D157  D(66,55,56,67)        -33.6127                                         !
 ! D158  D(66,55,56,68)         81.692                                          !
 ! D159  D(55,56,57,58)        -46.6468                                         !
 ! D160  D(55,56,57,69)         71.3329                                         !
 ! D161  D(55,56,57,70)       -170.9872                                         !
 ! D162  D(67,56,57,58)       -166.8465                                         !
 ! D163  D(67,56,57,69)        -48.8668                                         !
 ! D164  D(67,56,57,70)         68.8131                                         !
 ! D165  D(68,56,57,58)         78.8649                                         !
 ! D166  D(68,56,57,69)       -163.1554                                         !
 ! D167  D(68,56,57,70)        -45.4755                                         !
 ! D168  D(56,57,58,59)        -86.8331                                         !
 ! D169  D(56,57,58,71)         66.0341                                         !
 ! D170  D(69,57,58,59)        152.8177                                         !
 ! D171  D(69,57,58,71)        -54.3151                                         !
 ! D172  D(70,57,58,59)         38.3276                                         !
 ! D173  D(70,57,58,71)       -168.8053                                         !
 ! D174  D(57,58,59,60)         -9.6093                                         !
 ! D175  D(57,58,59,61)        172.4709                                         !
 ! D176  D(71,58,59,60)       -162.7381                                         !
 ! D177  D(71,58,59,61)         19.342                                          !
 ! D178  D(58,59,60,72)        170.6439                                         !
 ! D179  D(58,59,60,73)         21.9696                                         !
 ! D180  D(61,59,60,72)        -11.4452                                         !
 ! D181  D(61,59,60,73)       -160.1194                                         !
 ! D182  D(58,59,61,74)       -166.1105                                         !
 ! D183  D(58,59,61,75)        -11.7856                                         !
 ! D184  D(60,59,61,74)         15.8847                                         !
 ! D185  D(60,59,61,75)        170.2095                                         !
 --------------------------------------------------------------------------------
 Symmetry turned off by external request.
 Stoichiometry    C23H36N9O7(1+)
 Framework group  C1[X(C23H36N9O7)]
 Deg. of freedom   219
 Full point group                 C1      NOp   1
                          Input orientation:                          
 ---------------------------------------------------------------------
 Center     Atomic      Atomic             Coordinates (Angstroms)
 Number     Number       Type             X           Y           Z
 ---------------------------------------------------------------------
      1          7           0       -4.331362   -1.238377   -7.154759
      2          6           0       -4.311059   -1.515359   -8.630147
      3          6           0       -5.617515   -1.155757   -9.356329
      4          8           0       -5.576394   -0.462056  -10.365175
      5          6           0       -3.982967   -2.995463   -8.853593
      6          6           0       -2.604933   -3.363821   -8.312439
      7          7           0       -2.047560   -4.459955   -8.866568
      8          8           0       -2.061213   -2.711116   -7.415437
      9          1           0       -5.076110   -1.832581   -6.675099
     10          1           0       -3.539777   -0.877839   -9.064606
     11          1           0       -4.730932   -3.621827   -8.353357
     12          1           0       -4.059544   -3.216519   -9.921530
     13          1           0       -1.158473   -4.789667   -8.514364
     14          1           0       -2.511550   -4.979382   -9.599152
     15          1           0       -3.389988   -1.508266   -6.811715
     16          1           0       -4.578737   -0.254640   -6.963528
     17          7           0       -6.764136   -1.713595   -8.872111
     18          6           0       -7.936036   -1.835106   -9.730146
     19          6           0       -9.195587   -1.208478   -9.112407
     20          8           0      -10.267567   -1.833666   -9.085316
     21          6           0       -8.188769   -3.312473  -10.105153
     22          6           0       -6.950888   -4.021450  -10.617538
     23          6           0       -6.251124   -3.552666  -11.740068
     24          6           0       -6.483736   -5.173763   -9.973224
     25          6           0       -5.119248   -4.222371  -12.206667
     26          6           0       -5.355683   -5.854128  -10.440970
     27          6           0       -4.668997   -5.379833  -11.560976
     28          1           0       -6.728858   -2.284635   -8.021475
     29          1           0       -7.704154   -1.253535  -10.629395
     30          1           0       -8.567079   -3.838611   -9.221895
     31          1           0       -8.996346   -3.343447  -10.844364
     32          1           0       -6.586797   -2.655705  -12.253440
     33          1           0       -7.010941   -5.549718   -9.099550
     34          1           0       -4.595571   -3.847797  -13.081540
     35          1           0       -5.026047   -6.758994   -9.937340
     36          1           0       -3.805663   -5.917251  -11.945496
     37          7           0       -9.145867    0.054458   -8.617485
     38          6           0       -8.006639    0.920479   -8.331417
     39          6           0       -7.192923    0.502034   -7.085063
     40          8           0       -6.035034    0.916207   -6.957931
     41          6           0       -8.498517    2.372875   -8.143301
     42          6           0       -9.484741    2.523954   -6.982053
     43          7           0       -9.364677    3.641370   -6.239799
     44          8           0      -10.351039    1.669079   -6.743069
     45          1           0      -10.018016    0.382655   -8.209121
     46          1           0       -7.300344    0.907323   -9.165025
     47          1           0       -9.006495    2.698398   -9.059284
     48          1           0       -7.620659    3.010029   -8.004853
     49          1           0      -10.047417    3.820028   -5.514329
     50          1           0       -8.675736    4.353714   -6.434101
     51          7           0       -7.839806   -0.267174   -6.189703
     52          6           0       -7.245444   -0.902893   -5.012895
     53          6           0       -7.161623   -2.442782   -5.326924
     54          8           0       -7.886639   -3.251765   -4.714329
     55          6           0       -7.922598   -0.470970   -3.678327
     56          6           0       -9.358758    0.104039   -3.730423
     57          6           0      -10.493180   -0.934225   -3.671034
     58          7           0      -10.285251   -2.065270   -4.571378
     59          6           0      -10.633033   -2.150047   -5.854792
     60          7           0      -11.413753   -1.234008   -6.462113
     61          7           0      -10.218358   -3.218928   -6.560298
     62          8           0       -6.357704   -2.746197   -6.269835
     63          1           0       -8.792834   -0.508446   -6.420729
     64          1           0       -6.213973   -0.544180   -4.987737
     65          1           0       -7.876230   -1.321840   -2.989154
     66          1           0       -7.288007    0.309338   -3.246712
     67          1           0       -9.494110    0.764473   -2.865718
     68          1           0       -9.479833    0.738911   -4.613964
     69          1           0      -10.553935   -1.361839   -2.665573
     70          1           0      -11.466041   -0.473777   -3.871193
     71          1           0       -9.477554   -2.662071   -4.327589
     72          1           0      -11.499787   -1.309908   -7.473836
     73          1           0      -11.492659   -0.300610   -6.079942
     74          1           0      -10.292751   -3.187812   -7.572684
     75          1           0       -9.512779   -3.818073   -6.142029
 ---------------------------------------------------------------------
 Rotational constants (GHZ):           0.1526253           0.0712702           0.0695925
 Standard basis: 6-31G(d) (6D, 7F)
   657 basis functions,  1236 primitive gaussians,   657 cartesian basis functions
   146 alpha electrons      146 beta electrons
       nuclear repulsion energy      5210.8193972283 Hartrees.
 NAtoms=   75 NActive=   75 NUniq=   75 SFac= 1.00D+00 NAtFMM=   60 NAOKFM=T Big=T
 Integral buffers will be    131072 words long.
 Raffenetti 2 integral format.
 Two-electron integral symmetry is turned off.
 Nuclear repulsion after empirical dispersion term =     5210.6895194444 Hartrees.
 One-electron integrals computed using PRISM.
 NBasis=   657 RedAO= T EigKep=  4.64D-04  NBF=   657
 NBsUse=   657 1.00D-06 EigRej= -1.00D+00 NBFU=   657
 Initial guess from the checkpoint file:  "conf-255.chk"
 B after Tr=     0.000000    0.000000    0.000000
         Rot=    1.000000    0.000000    0.000000    0.000000 Ang=   0.00 deg.
 Requested convergence on RMS density matrix=1.00D-08 within 128 cycles.
 Requested convergence on MAX density matrix=1.00D-06.
 Requested convergence on             energy=1.00D-06.
 No special actions if energy rises.
 SCF Done:  E(RB3LYP) =  -1917.54512990     A.U. after    3 cycles
            NFock=  3  Conv=0.76D-09     -V/T= 2.0093

 **********************************************************************

            Population analysis using the SCF Density.

 **********************************************************************

 Alpha  occ. eigenvalues --  -19.24948 -19.24434 -19.23853 -19.22921 -19.22494
 Alpha  occ. eigenvalues --  -19.21355 -19.21162 -14.51576 -14.48714 -14.48366
 Alpha  occ. eigenvalues --  -14.48289 -14.47958 -14.47645 -14.47607 -14.46635
 Alpha  occ. eigenvalues --  -14.46114 -10.44639 -10.42553 -10.41513 -10.41024
 Alpha  occ. eigenvalues --  -10.40215 -10.40063 -10.39220 -10.36116 -10.36113
 Alpha  occ. eigenvalues --  -10.34684 -10.33764 -10.33733 -10.32742 -10.30846
 Alpha  occ. eigenvalues --  -10.29426 -10.29423 -10.29309 -10.29232 -10.28375
 Alpha  occ. eigenvalues --  -10.28305 -10.28239 -10.28185 -10.28114  -1.16687
 Alpha  occ. eigenvalues --   -1.16084  -1.15612  -1.14915  -1.14509  -1.14087
 Alpha  occ. eigenvalues --   -1.13251  -1.07880  -1.05975  -1.05429  -1.03931
 Alpha  occ. eigenvalues --   -1.03491  -1.03123  -1.02728  -1.01236  -1.01074
 Alpha  occ. eigenvalues --   -0.94911  -0.91060  -0.90159  -0.89697  -0.88204
 Alpha  occ. eigenvalues --   -0.85366  -0.83921  -0.83583  -0.80559  -0.79053
 Alpha  occ. eigenvalues --   -0.78537  -0.76624  -0.75060  -0.72822  -0.71354
 Alpha  occ. eigenvalues --   -0.71031  -0.70469  -0.70324  -0.69841  -0.69554
 Alpha  occ. eigenvalues --   -0.69067  -0.68795  -0.67212  -0.66819  -0.66343
 Alpha  occ. eigenvalues --   -0.66274  -0.65330  -0.63866  -0.63564  -0.62656
 Alpha  occ. eigenvalues --   -0.62011  -0.61304  -0.61248  -0.60571  -0.59868
 Alpha  occ. eigenvalues --   -0.58992  -0.58660  -0.58397  -0.58148  -0.57663
 Alpha  occ. eigenvalues --   -0.56840  -0.56515  -0.56400  -0.55315  -0.55020
 Alpha  occ. eigenvalues --   -0.54948  -0.54518  -0.54148  -0.53949  -0.53101
 Alpha  occ. eigenvalues --   -0.52904  -0.52683  -0.52339  -0.52162  -0.51651
 Alpha  occ. eigenvalues --   -0.51384  -0.51069  -0.50775  -0.50572  -0.49833
 Alpha  occ. eigenvalues --   -0.49643  -0.49446  -0.49003  -0.48509  -0.47879
 Alpha  occ. eigenvalues --   -0.47760  -0.46785  -0.46587  -0.46108  -0.44782
 Alpha  occ. eigenvalues --   -0.44547  -0.44390  -0.43309  -0.43011  -0.41006
 Alpha  occ. eigenvalues --   -0.40061  -0.39721  -0.39242  -0.39018  -0.38765
 Alpha  occ. eigenvalues --   -0.37499  -0.37359  -0.37290  -0.37015  -0.36316
 Alpha  occ. eigenvalues --   -0.36270  -0.35752  -0.35231  -0.34332  -0.34282
 Alpha  occ. eigenvalues --   -0.33871
 Alpha virt. eigenvalues --   -0.11691  -0.10853  -0.10776  -0.09961  -0.09802
 Alpha virt. eigenvalues --   -0.09555  -0.09364  -0.07475  -0.07063  -0.04398
 Alpha virt. eigenvalues --   -0.03334  -0.01965  -0.01719  -0.00882  -0.00337
 Alpha virt. eigenvalues --    0.00497   0.01138   0.01315   0.01665   0.01975
 Alpha virt. eigenvalues --    0.02089   0.02932   0.03093   0.03417   0.03584
 Alpha virt. eigenvalues --    0.04299   0.04575   0.04896   0.04985   0.05295
 Alpha virt. eigenvalues --    0.05559   0.05969   0.06161   0.06600   0.06706
 Alpha virt. eigenvalues --    0.07054   0.07364   0.07771   0.07896   0.08011
 Alpha virt. eigenvalues --    0.08444   0.08627   0.09242   0.09419   0.09977
 Alpha virt. eigenvalues --    0.10191   0.10469   0.10932   0.11681   0.12090
 Alpha virt. eigenvalues --    0.12667   0.12827   0.13175   0.13680   0.14132
 Alpha virt. eigenvalues --    0.14439   0.14666   0.15243   0.15467   0.16296
 Alpha virt. eigenvalues --    0.16691   0.17486   0.17737   0.18274   0.20207
 Alpha virt. eigenvalues --    0.21455   0.21768   0.22978   0.23372   0.23496
 Alpha virt. eigenvalues --    0.24183   0.24471   0.24953   0.26213   0.26663
 Alpha virt. eigenvalues --    0.27313   0.28941   0.29320   0.29798   0.31013
 Alpha virt. eigenvalues --    0.31942   0.32656   0.33380   0.36420   0.36802
 Alpha virt. eigenvalues --    0.37440   0.38087   0.39284   0.39374   0.39816
 Alpha virt. eigenvalues --    0.40738   0.41406   0.42115   0.42726   0.43194
 Alpha virt. eigenvalues --    0.43956   0.44345   0.44882   0.45177   0.46054
 Alpha virt. eigenvalues --    0.46365   0.46518   0.46675   0.46948   0.47356
 Alpha virt. eigenvalues --    0.47590   0.48187   0.48733   0.49171   0.49550
 Alpha virt. eigenvalues --    0.49881   0.50256   0.51289   0.51375   0.51644
 Alpha virt. eigenvalues --    0.52063   0.52424   0.52764   0.53035   0.53172
 Alpha virt. eigenvalues --    0.53481   0.53645   0.54273   0.54457   0.54710
 Alpha virt. eigenvalues --    0.55287   0.55355   0.55702   0.55924   0.56050
 Alpha virt. eigenvalues --    0.56569   0.56732   0.57730   0.57883   0.58468
 Alpha virt. eigenvalues --    0.59087   0.59583   0.60304   0.60944   0.61429
 Alpha virt. eigenvalues --    0.62552   0.62753   0.63261   0.64051   0.64477
 Alpha virt. eigenvalues --    0.64658   0.65991   0.66076   0.66714   0.67530
 Alpha virt. eigenvalues --    0.68198   0.69353   0.69825   0.70111   0.70838
 Alpha virt. eigenvalues --    0.71383   0.71854   0.71912   0.72503   0.72990
 Alpha virt. eigenvalues --    0.73790   0.73873   0.74486   0.74580   0.74886
 Alpha virt. eigenvalues --    0.75164   0.75617   0.75787   0.76154   0.76410
 Alpha virt. eigenvalues --    0.76866   0.77307   0.77508   0.77782   0.78367
 Alpha virt. eigenvalues --    0.78696   0.78802   0.79779   0.80611   0.81078
 Alpha virt. eigenvalues --    0.81361   0.81860   0.82024   0.82333   0.82848
 Alpha virt. eigenvalues --    0.83277   0.83405   0.83520   0.84173   0.84609
 Alpha virt. eigenvalues --    0.85011   0.85149   0.85708   0.85911   0.86673
 Alpha virt. eigenvalues --    0.87499   0.87983   0.88830   0.89332   0.90328
 Alpha virt. eigenvalues --    0.90595   0.91170   0.92344   0.92504   0.93654
 Alpha virt. eigenvalues --    0.94363   0.94709   0.96027   0.96161   0.96725
 Alpha virt. eigenvalues --    0.97408   0.98335   0.99192   0.99999   1.00794
 Alpha virt. eigenvalues --    1.01371   1.01422   1.01896   1.02453   1.03454
 Alpha virt. eigenvalues --    1.04415   1.05177   1.05840   1.07228   1.07398
 Alpha virt. eigenvalues --    1.08218   1.08975   1.09242   1.09683   1.10191
 Alpha virt. eigenvalues --    1.10893   1.11441   1.12572   1.12922   1.14065
 Alpha virt. eigenvalues --    1.14499   1.15002   1.15649   1.16407   1.17087
 Alpha virt. eigenvalues --    1.17660   1.17881   1.18243   1.19287   1.19723
 Alpha virt. eigenvalues --    1.20148   1.21719   1.22770   1.23763   1.24821
 Alpha virt. eigenvalues --    1.25677   1.25977   1.26513   1.27881   1.28587
 Alpha virt. eigenvalues --    1.29124   1.29266   1.30372   1.31271   1.32380
 Alpha virt. eigenvalues --    1.33337   1.33594   1.34089   1.34625   1.34796
 Alpha virt. eigenvalues --    1.35811   1.36758   1.37608   1.38361   1.38555
 Alpha virt. eigenvalues --    1.38962   1.39188   1.39583   1.40595   1.40969
 Alpha virt. eigenvalues --    1.42041   1.42442   1.42706   1.44633   1.45537
 Alpha virt. eigenvalues --    1.46391   1.48030   1.48943   1.49075   1.51027
 Alpha virt. eigenvalues --    1.52815   1.53704   1.53842   1.54219   1.55881
 Alpha virt. eigenvalues --    1.56055   1.56532   1.57173   1.58195   1.58690
 Alpha virt. eigenvalues --    1.60619   1.61385   1.61875   1.62534   1.62786
 Alpha virt. eigenvalues --    1.63134   1.64206   1.64599   1.65774   1.65801
 Alpha virt. eigenvalues --    1.66442   1.67240   1.67779   1.69335   1.69732
 Alpha virt. eigenvalues --    1.69958   1.70454   1.71151   1.71381   1.71903
 Alpha virt. eigenvalues --    1.72417   1.72889   1.73750   1.74034   1.74725
 Alpha virt. eigenvalues --    1.75015   1.75319   1.76037   1.76852   1.77300
 Alpha virt. eigenvalues --    1.77836   1.78233   1.78903   1.79335   1.79624
 Alpha virt. eigenvalues --    1.80167   1.80668   1.81232   1.81706   1.82658
 Alpha virt. eigenvalues --    1.83014   1.83285   1.83805   1.84444   1.84910
 Alpha virt. eigenvalues --    1.85385   1.85694   1.86990   1.88080   1.88504
 Alpha virt. eigenvalues --    1.89142   1.89575   1.90038   1.90317   1.91478
 Alpha virt. eigenvalues --    1.92318   1.93123   1.93380   1.93800   1.94599
 Alpha virt. eigenvalues --    1.95252   1.96285   1.96898   1.97647   1.98389
 Alpha virt. eigenvalues --    1.99248   1.99870   2.00425   2.01321   2.01682
 Alpha virt. eigenvalues --    2.02102   2.02538   2.03915   2.04507   2.05137
 Alpha virt. eigenvalues --    2.05514   2.06373   2.07392   2.08437   2.09507
 Alpha virt. eigenvalues --    2.10380   2.11114   2.11751   2.12141   2.13811
 Alpha virt. eigenvalues --    2.14594   2.14773   2.16060   2.16360   2.17662
 Alpha virt. eigenvalues --    2.18612   2.19079   2.19562   2.19987   2.20630
 Alpha virt. eigenvalues --    2.22457   2.22881   2.23055   2.23815   2.25131
 Alpha virt. eigenvalues --    2.26536   2.26864   2.27837   2.28427   2.28802
 Alpha virt. eigenvalues --    2.30573   2.31065   2.31406   2.32458   2.32528
 Alpha virt. eigenvalues --    2.34271   2.34984   2.36051   2.37540   2.38058
 Alpha virt. eigenvalues --    2.39315   2.39887   2.40358   2.41207   2.41717
 Alpha virt. eigenvalues --    2.44300   2.45244   2.45564   2.46968   2.47875
 Alpha virt. eigenvalues --    2.48713   2.49714   2.50119   2.50709   2.51063
 Alpha virt. eigenvalues --    2.51423   2.52212   2.52636   2.53785   2.54777
 Alpha virt. eigenvalues --    2.55361   2.55818   2.56503   2.56702   2.58149
 Alpha virt. eigenvalues --    2.58990   2.59963   2.60873   2.62651   2.63143
 Alpha virt. eigenvalues --    2.63696   2.64559   2.65782   2.66607   2.67147
 Alpha virt. eigenvalues --    2.67823   2.69831   2.72065   2.73035   2.76330
 Alpha virt. eigenvalues --    2.77400   2.81066   2.83785   2.85104   2.88355
 Alpha virt. eigenvalues --    2.88633   2.89739   2.90320   2.90658   2.91133
 Alpha virt. eigenvalues --    2.91821   2.93266   2.93986   2.96552   2.98346
 Alpha virt. eigenvalues --    2.98711   2.99149   3.03566   3.04058   3.05562
 Alpha virt. eigenvalues --    3.09658   3.31506   3.68453   3.73502   3.75186
 Alpha virt. eigenvalues --    3.80127   3.81799   3.86715   3.90204   3.95776
 Alpha virt. eigenvalues --    3.97257   3.98346   4.00224   4.01731   4.05131
 Alpha virt. eigenvalues --    4.06202   4.08011   4.09841   4.12179   4.12634
 Alpha virt. eigenvalues --    4.14147   4.16699   4.20979   4.22039   4.23679
 Alpha virt. eigenvalues --    4.28197   4.29441   4.31237   4.32331   4.35224
 Alpha virt. eigenvalues --    4.38042   4.39375   4.40335   4.42858   4.48676
 Alpha virt. eigenvalues --    4.51274   4.55093   4.58933   4.62513   4.65042
 Alpha virt. eigenvalues --    4.67957
          Condensed to atoms (all electrons):
 Mulliken charges:
               1
     1  N   -0.813572
     2  C   -0.109875
     3  C    0.630420
     4  O   -0.514495
     5  C   -0.415440
     6  C    0.637863
     7  N   -0.741777
     8  O   -0.534129
     9  H    0.430459
    10  H    0.217063
    11  H    0.218854
    12  H    0.212160
    13  H    0.365940
    14  H    0.357695
    15  H    0.418490
    16  H    0.427513
    17  N   -0.651667
    18  C   -0.081007
    19  C    0.625677
    20  O   -0.555532
    21  C   -0.356301
    22  C    0.173442
    23  C   -0.178983
    24  C   -0.197353
    25  C   -0.138091
    26  C   -0.136823
    27  C   -0.159179
    28  H    0.389904
    29  H    0.219992
    30  H    0.144279
    31  H    0.194909
    32  H    0.152265
    33  H    0.143424
    34  H    0.158288
    35  H    0.152090
    36  H    0.150187
    37  N   -0.631994
    38  C   -0.060695
    39  C    0.642098
    40  O   -0.583306
    41  C   -0.395602
    42  C    0.626589
    43  N   -0.725795
    44  O   -0.560823
    45  H    0.370131
    46  H    0.221321
    47  H    0.217646
    48  H    0.197537
    49  H    0.366334
    50  H    0.367958
    51  N   -0.605649
    52  C   -0.058905
    53  C    0.602551
    54  O   -0.553201
    55  C   -0.301259
    56  C   -0.301949
    57  C   -0.178582
    58  N   -0.592164
    59  C    0.718763
    60  N   -0.767663
    61  N   -0.781040
    62  O   -0.604586
    63  H    0.361148
    64  H    0.169790
    65  H    0.177867
    66  H    0.166079
    67  H    0.166705
    68  H    0.165329
    69  H    0.193982
    70  H    0.174171
    71  H    0.403643
    72  H    0.385805
    73  H    0.386756
    74  H    0.398399
    75  H    0.385919
 Sum of Mulliken charges =   1.00000
 Mulliken charges with hydrogens summed into heavy atoms:
               1
     1  N    0.462891
     2  C    0.107189
     3  C    0.630420
     4  O   -0.514495
     5  C    0.015574
     6  C    0.637863
     7  N   -0.018141
     8  O   -0.534129
    17  N   -0.261762
    18  C    0.138985
    19  C    0.625677
    20  O   -0.555532
    21  C   -0.017113
    22  C    0.173442
    23  C   -0.026718
    24  C   -0.053929
    25  C    0.020197
    26  C    0.015267
    27  C   -0.008992
    37  N   -0.261863
    38  C    0.160626
    39  C    0.642098
    40  O   -0.583306
    41  C    0.019581
    42  C    0.626589
    43  N    0.008497
    44  O   -0.560823
    51  N   -0.244501
    52  C    0.110885
    53  C    0.602551
    54  O   -0.553201
    55  C    0.042687
    56  C    0.030084
    57  C    0.189570
    58  N   -0.188521
    59  C    0.718763
    60  N    0.004897
    61  N    0.003278
    62  O   -0.604586
 Electronic spatial extent (au):  <R**2>=         137106.9039
 Charge=              1.0000 electrons
 Dipole moment (field-independent basis, Debye):
    X=            -36.1788    Y=             -2.7333    Z=            -35.1519  Tot=             50.5177
 Quadrupole moment (field-independent basis, Debye-Ang):
   XX=             92.7389   YY=           -162.6762   ZZ=             62.0125
   XY=            -19.1968   XZ=            235.3420   YZ=             50.5998
 Traceless Quadrupole moment (field-independent basis, Debye-Ang):
   XX=             95.3805   YY=           -160.0346   ZZ=             64.6541
   XY=            -19.1968   XZ=            235.3420   YZ=             50.5998
 Octapole moment (field-independent basis, Debye-Ang**2):
  XXX=           1946.4629  YYY=            995.5143  ZZZ=           2717.9692  XYY=           1307.9076
  XXY=            633.5661  XXZ=           -181.1334  XZZ=            -95.7680  YZZ=           -272.7465
  YYZ=           1182.4789  XYZ=             13.5593
 Hexadecapole moment (field-independent basis, Debye-Ang**3):
 XXXX=         -51439.2113 YYYY=          -8705.1936 ZZZZ=         -65137.2035 XXXY=          -8935.3089
 XXXZ=         -19283.9900 YYYX=          -6748.4789 YYYZ=          -8558.4411 ZZZX=         -22477.7804
 ZZZY=          -2814.0895 XXYY=         -12512.2782 XXZZ=         -14820.4922 YYZZ=         -11370.7139
 XXYZ=          -4619.8138 YYXZ=          -9527.4133 ZZXY=          -1255.3186
 N-N= 5.210689519444D+03 E-N=-1.486043343984D+04  KE= 1.899812387661D+03
 Unable to Open any file for archive entry.
 1\1\GINC-AMR-175\SP\RB3LYP\6-31G(d)\C23H36N9O7(1+)\KENGMITH\03-Jun-202
 2\0\\# B3LYP/6-31G* empiricaldispersion=gd3 guess=read geom=check nosy
 mm integral(ultrafinegrid)\\Candidate Structure: Conf:255 Charge calc 
 in gas phase\\1,1\N,0,-4.331362287,-1.2383774237,-7.1547587066\C,0,-4.
 3110585573,-1.515358968,-8.6301470822\C,0,-5.617515169,-1.1557573823,-
 9.3563291873\O,0,-5.5763944962,-0.4620561395,-10.3651749611\C,0,-3.982
 9671637,-2.9954631808,-8.8535925867\C,0,-2.6049326041,-3.3638207195,-8
 .3124390864\N,0,-2.0475602252,-4.4599546941,-8.8665679034\O,0,-2.06121
 32786,-2.7111163706,-7.4154369522\H,0,-5.0761098611,-1.8325810119,-6.6
 750990852\H,0,-3.5397768889,-0.8778394189,-9.0646057201\H,0,-4.7309317
 436,-3.6218268115,-8.3533574363\H,0,-4.0595436303,-3.2165185399,-9.921
 5298713\H,0,-1.1584730387,-4.7896672484,-8.5143640255\H,0,-2.511549678
 7,-4.9793817894,-9.5991523568\H,0,-3.3899882591,-1.5082663804,-6.81171
 50369\H,0,-4.5787370347,-0.2546395859,-6.9635277433\N,0,-6.7641358775,
 -1.713594635,-8.8721113517\C,0,-7.9360359699,-1.8351057696,-9.73014576
 57\C,0,-9.1955872091,-1.2084775856,-9.1124067204\O,0,-10.2675668181,-1
 .8336662538,-9.0853161542\C,0,-8.1887685819,-3.3124726138,-10.10515323
 82\C,0,-6.9508877288,-4.0214500284,-10.6175375318\C,0,-6.2511242999,-3
 .5526662632,-11.7400683425\C,0,-6.4837364765,-5.1737626936,-9.97322432
 64\C,0,-5.1192480034,-4.2223713856,-12.2066666316\C,0,-5.3556834719,-5
 .8541277996,-10.440970032\C,0,-4.6689965526,-5.3798330987,-11.56097635
 18\H,0,-6.7288580083,-2.284635238,-8.0214745429\H,0,-7.7041539739,-1.2
 535347042,-10.6293953475\H,0,-8.5670787332,-3.8386111471,-9.2218949454
 \H,0,-8.9963457948,-3.3434469516,-10.8443636074\H,0,-6.5867965355,-2.6
 557053991,-12.2534403646\H,0,-7.0109412914,-5.5497175602,-9.0995495754
 \H,0,-4.5955708522,-3.8477968606,-13.0815397645\H,0,-5.0260467832,-6.7
 589936352,-9.9373399214\H,0,-3.8056630193,-5.9172508921,-11.9454962408
 \N,0,-9.1458669889,0.0544581363,-8.6174847992\C,0,-8.0066387387,0.9204
 78834,-8.3314168479\C,0,-7.1929230718,0.5020337428,-7.0850631131\O,0,-
 6.0350340823,0.9162071431,-6.9579313281\C,0,-8.4985172286,2.3728749417
 ,-8.1433014636\C,0,-9.4847407977,2.523953706,-6.9820528921\N,0,-9.3646
 772996,3.6413696351,-6.2397988154\O,0,-10.3510388398,1.6690790963,-6.7
 430688503\H,0,-10.0180156455,0.3826548924,-8.2091211709\H,0,-7.3003441
 43,0.9073228566,-9.1650252341\H,0,-9.0064953005,2.6983978549,-9.059283
 9045\H,0,-7.6206587018,3.0100290753,-8.0048527063\H,0,-10.0474172159,3
 .8200283787,-5.5143292507\H,0,-8.6757363053,4.3537141316,-6.4341009157
 \N,0,-7.8398057154,-0.2671741058,-6.1897025387\C,0,-7.2454442941,-0.90
 28929595,-5.0128952821\C,0,-7.1616232688,-2.442782048,-5.3269240266\O,
 0,-7.8866387529,-3.2517650069,-4.7143288414\C,0,-7.9225979982,-0.47096
 99004,-3.6783269519\C,0,-9.3587581233,0.104038585,-3.7304231847\C,0,-1
 0.4931796611,-0.9342251763,-3.6710341236\N,0,-10.2852505393,-2.0652697
 812,-4.5713777578\C,0,-10.6330325708,-2.1500470071,-5.8547921639\N,0,-
 11.4137534852,-1.2340077124,-6.4621128399\N,0,-10.2183577037,-3.218928
 1385,-6.5602979055\O,0,-6.3577038146,-2.7461971244,-6.2698352941\H,0,-
 8.7928340596,-0.5084464603,-6.4207291584\H,0,-6.2139725529,-0.54418025
 42,-4.9877372959\H,0,-7.8762300859,-1.3218400855,-2.9891536069\H,0,-7.
 2880073845,0.3093384418,-3.2467123302\H,0,-9.4941099909,0.7644730479,-
 2.8657183219\H,0,-9.4798325309,0.7389113968,-4.6139640471\H,0,-10.5539
 354863,-1.3618387318,-2.6655733626\H,0,-11.4660406859,-0.4737768991,-3
 .8711926745\H,0,-9.4775538654,-2.6620713324,-4.3275886379\H,0,-11.4997
 866505,-1.3099079377,-7.4738358322\H,0,-11.4926589182,-0.3006099899,-6
 .079942281\H,0,-10.2927506408,-3.1878122985,-7.5726838604\H,0,-9.51277
 87938,-3.8180732567,-6.1420285413\\Version=ES64L-G16RevC.01\HF=-1917.5
 451299\RMSD=7.585e-10\Dipole=-0.5070801,1.8934483,0.7363149\Quadrupole
 =70.9130533,-118.9817739,48.0687206,-14.2723443,174.9710405,37.6196856
 \PG=C01 [X(C23H36N9O7)]\\@
 The archive entry for this job was punched.


 CHILDREN YOU ARE VERY LITTLE,
 AND YOUR BONES ARE VERY BRITTLE;
 IF YOU WOULD GROW GREAT AND STATELY
 YOU MUST TRY TO WALK SEDATELY.
 YOU MUST STILL BE BRIGHT AND QUIET,
 AND CONTENT WITH SIMPLE DIET;
 AND REMAIN, THROUGH ALL BEWILD'RING
 INNOCENT AND HONEST CHILDREN.
     -- A CHILD'S GARDEN OF VERSE,
        ROBERT LOUIS STEVENSON
 Job cpu time:       0 days  0 hours  4 minutes 36.0 seconds.
 Elapsed time:       0 days  0 hours  1 minutes  9.6 seconds.
 File lengths (MBytes):  RWF=    344 Int=      0 D2E=      0 Chk=     48 Scr=     16
 Normal termination of Gaussian 16 at Fri Jun  3 06:01:08 2022.
