 Entering Gaussian System, Link 0=/opt/software/Gaussian/g16-AVX2-C.01/g16/g16
 Input=charge-conf-898.com
 Output=charge-conf-898.log
 Initial command:
 /opt/software/Gaussian/g16-AVX2-C.01/g16/l1.exe "/mnt/gs18/scratch/users/kengmith/Gau-24855.inp" -scrdir="/mnt/gs18/scratch/users/kengmith/"
 Entering Link 1 = /opt/software/Gaussian/g16-AVX2-C.01/g16/l1.exe PID=     24888.
  
 Copyright (c) 1988-2019, Gaussian, Inc.  All Rights Reserved.
  
 This is part of the Gaussian(R) 16 program.  It is based on
 the Gaussian(R) 09 system (copyright 2009, Gaussian, Inc.),
 the Gaussian(R) 03 system (copyright 2003, Gaussian, Inc.),
 the Gaussian(R) 98 system (copyright 1998, Gaussian, Inc.),
 the Gaussian(R) 94 system (copyright 1995, Gaussian, Inc.),
 the Gaussian 92(TM) system (copyright 1992, Gaussian, Inc.),
 the Gaussian 90(TM) system (copyright 1990, Gaussian, Inc.),
 the Gaussian 88(TM) system (copyright 1988, Gaussian, Inc.),
 the Gaussian 86(TM) system (copyright 1986, Carnegie Mellon
 University), and the Gaussian 82(TM) system (copyright 1983,
 Carnegie Mellon University). Gaussian is a federally registered
 trademark of Gaussian, Inc.
  
 This software contains proprietary and confidential information,
 including trade secrets, belonging to Gaussian, Inc.
  
 This software is provided under written license and may be
 used, copied, transmitted, or stored only in accord with that
 written license.
  
 The following legend is applicable only to US Government
 contracts under FAR:
  
                    RESTRICTED RIGHTS LEGEND
  
 Use, reproduction and disclosure by the US Government is
 subject to restrictions as set forth in subparagraphs (a)
 and (c) of the Commercial Computer Software - Restricted
 Rights clause in FAR 52.227-19.
  
 Gaussian, Inc.
 340 Quinnipiac St., Bldg. 40, Wallingford CT 06492
  
  
 ---------------------------------------------------------------
 Warning -- This program may not be used in any manner that
 competes with the business of Gaussian, Inc. or will provide
 assistance to any competitor of Gaussian, Inc.  The licensee
 of this program is prohibited from giving any competitor of
 Gaussian, Inc. access to this program.  By using this program,
 the user acknowledges that Gaussian, Inc. is engaged in the
 business of creating and licensing software in the field of
 computational chemistry and represents and warrants to the
 licensee that it is not a competitor of Gaussian, Inc. and that
 it will not use this program in any manner prohibited above.
 ---------------------------------------------------------------
  

 Cite this work as:
 Gaussian 16, Revision C.01,
 M. J. Frisch, G. W. Trucks, H. B. Schlegel, G. E. Scuseria, 
 M. A. Robb, J. R. Cheeseman, G. Scalmani, V. Barone, 
 G. A. Petersson, H. Nakatsuji, X. Li, M. Caricato, A. V. Marenich, 
 J. Bloino, B. G. Janesko, R. Gomperts, B. Mennucci, H. P. Hratchian, 
 J. V. Ortiz, A. F. Izmaylov, J. L. Sonnenberg, D. Williams-Young, 
 F. Ding, F. Lipparini, F. Egidi, J. Goings, B. Peng, A. Petrone, 
 T. Henderson, D. Ranasinghe, V. G. Zakrzewski, J. Gao, N. Rega, 
 G. Zheng, W. Liang, M. Hada, M. Ehara, K. Toyota, R. Fukuda, 
 J. Hasegawa, M. Ishida, T. Nakajima, Y. Honda, O. Kitao, H. Nakai, 
 T. Vreven, K. Throssell, J. A. Montgomery, Jr., J. E. Peralta, 
 F. Ogliaro, M. J. Bearpark, J. J. Heyd, E. N. Brothers, K. N. Kudin, 
 V. N. Staroverov, T. A. Keith, R. Kobayashi, J. Normand, 
 K. Raghavachari, A. P. Rendell, J. C. Burant, S. S. Iyengar, 
 J. Tomasi, M. Cossi, J. M. Millam, M. Klene, C. Adamo, R. Cammi, 
 J. W. Ochterski, R. L. Martin, K. Morokuma, O. Farkas, 
 J. B. Foresman, and D. J. Fox, Gaussian, Inc., Wallingford CT, 2019.
 
 ******************************************
 Gaussian 16:  ES64L-G16RevC.01  3-Jul-2019
                 3-Jun-2022 
 ******************************************
 %mem=8gb
 %nproc=4
 Will use up to    4 processors via shared memory.
 %chk=conf-898.chk
 ----------------------------------------------------------------------
 # B3LYP/6-31G* empiricaldispersion=gd3 guess=read geom=check nosymm in
 tegral(ultrafinegrid)
 ----------------------------------------------------------------------
 1/29=2,38=1,172=1/1;
 2/12=2,15=1,40=1/2;
 3/5=1,6=6,7=1,11=2,14=-4,25=1,30=1,74=-5,75=-5,116=-2,124=31/1,2,3;
 4/5=1/1;
 5/5=2,38=6/2;
 6/7=2,8=2,9=2,10=2,28=1/1;
 99/5=1,9=1/99;
 ------------------------------------------------------
 Candidate Structure: Conf:898 Charge calc in gas phase
 ------------------------------------------------------
 Structure from the checkpoint file:  "conf-898.chk"
 Charge =  1 Multiplicity = 1
 Redundant internal coordinates found in file.  (old form).
 N,0,-9.1098040667,-2.6375040591,-9.9474801225
 C,0,-8.8917706837,-3.8653669147,-9.1060030154
 C,0,-8.5382035518,-3.5689741932,-7.6369023846
 O,0,-9.1334931913,-4.1466895097,-6.7371156584
 C,0,-7.7871580515,-4.7093957623,-9.7506043651
 C,0,-8.1527364076,-5.1542193338,-11.1642562354
 N,0,-7.3860986186,-6.1446044913,-11.6660726911
 O,0,-9.0693292216,-4.6239179265,-11.8001194803
 H,0,-9.4045303766,-2.9945607417,-10.8749826404
 H,0,-9.8375012493,-4.4085732601,-9.0892175277
 H,0,-6.8577508501,-4.1313971709,-9.8022226609
 H,0,-7.5737556067,-5.5718925073,-9.1119004166
 H,0,-7.5270176989,-6.4313474844,-12.6257671003
 H,0,-6.5951619113,-6.5119715623,-11.1546348261
 H,0,-9.796842304,-1.9992634044,-9.5132800466
 H,0,-8.2099018846,-2.0796607375,-10.0529090964
 N,0,-7.5027511783,-2.707377583,-7.4219758946
 C,0,-6.7213672422,-2.7719967601,-6.1905857919
 C,0,-6.8831272864,-1.5999042332,-5.203766746
 O,0,-5.995659445,-1.3954533779,-4.3687891682
 C,0,-5.2197071974,-2.8973821843,-6.5635179866
 C,0,-4.9431548892,-4.0093633413,-7.5525531164
 C,0,-5.1611454572,-5.3511736594,-7.2084122268
 C,0,-4.475496887,-3.7061139389,-8.838509936
 C,0,-4.9100582505,-6.3714211764,-8.1268490436
 C,0,-4.2147622679,-4.7269282819,-9.757694517
 C,0,-4.4298059123,-6.061449238,-9.404426026
 H,0,-7.0106871504,-2.3516022611,-8.244523892
 H,0,-7.0501199252,-3.6672538141,-5.6498872836
 H,0,-4.8992252438,-1.9430402882,-6.9987228117
 H,0,-4.6579098779,-3.0406628192,-5.6370506967
 H,0,-5.5210755995,-5.6020976734,-6.2130600919
 H,0,-4.3456903869,-2.6671370149,-9.1297775038
 H,0,-5.0702904015,-7.4071572635,-7.8402843279
 H,0,-3.8418632119,-4.4759975749,-10.7468403463
 H,0,-4.1980668147,-6.8584384923,-10.1075003788
 N,0,-7.9553352356,-0.7568690483,-5.2404834806
 C,0,-9.2302026263,-0.8224971501,-5.9477027067
 C,0,-9.1590523501,-0.3951993719,-7.4244042229
 O,0,-10.0624759974,-0.7447333766,-8.1942510139
 C,0,-10.274748248,0.0660399383,-5.2321582975
 C,0,-9.8833992205,1.5434675771,-5.237550772
 N,0,-10.8234386397,2.4149689778,-5.649310127
 O,0,-8.7551078863,1.9133049491,-4.8830213397
 H,0,-7.8751043425,0.0023157262,-4.5715810692
 H,0,-9.6075542086,-1.8479181892,-5.9486273195
 H,0,-10.3665108481,-0.2555163465,-4.188117139
 H,0,-11.2391354188,-0.0979685391,-5.7198608728
 H,0,-10.6214842264,3.406018653,-5.6114899917
 H,0,-11.7496821305,2.1255069682,-5.9283808755
 N,0,-8.1196399858,0.3930779914,-7.7571849956
 C,0,-7.6983745113,0.6631073076,-9.1389335134
 C,0,-6.4624829194,-0.2674324481,-9.3623803638
 O,0,-5.3429862153,0.0793668556,-8.9130850722
 C,0,-7.5788343215,2.1698149617,-9.4384672384
 C,0,-6.4736631034,3.0379148095,-8.8047370713
 C,0,-6.3560020599,3.008356912,-7.2725103151
 N,0,-5.579548169,1.8202927791,-6.8952298471
 C,0,-5.2539581769,1.4258477748,-5.6707690061
 N,0,-5.8514198261,1.9430239633,-4.5837427269
 N,0,-4.2676569871,0.5134323544,-5.5071452521
 O,0,-6.7159894777,-1.4045080174,-9.8701415066
 H,0,-7.4296912103,0.5426818827,-7.0322928113
 H,0,-8.5115848887,0.2918351563,-9.7644155743
 H,0,-7.482828976,2.2686520748,-10.5266246765
 H,0,-8.5542390788,2.6003495126,-9.1757673699
 H,0,-5.4989227398,2.7830545747,-9.2347805415
 H,0,-6.6777687897,4.0727381037,-9.1005637006
 H,0,-5.8296439062,3.8986592047,-6.9102361157
 H,0,-7.3471722934,2.9882839155,-6.8018931952
 H,0,-5.3009850294,1.2038642362,-7.6907216683
 H,0,-5.5495310576,1.612156221,-3.6771325698
 H,0,-6.811994613,2.2709105923,-4.6498089312
 H,0,-4.4576287924,-0.229526642,-4.835020867
 H,0,-3.7863212131,0.2132932012,-6.3464967887
 Recover connectivity data from disk.
                           ----------------------------
                           !    Current Parameters    !
                           ! (Angstroms and Degrees)  !
 --------------------------                            --------------------------
 ! Name  Definition              Value                                          !
 --------------------------------------------------------------------------------
 ! R1    R(1,2)                  1.5044                                         !
 ! R2    R(1,9)                  1.0366                                         !
 ! R3    R(1,15)                 1.0334                                         !
 ! R4    R(1,16)                 1.064                                          !
 ! R5    R(2,3)                  1.5398                                         !
 ! R6    R(2,5)                  1.5323                                         !
 ! R7    R(2,10)                 1.0908                                         !
 ! R8    R(3,4)                  1.2238                                         !
 ! R9    R(3,17)                 1.3641                                         !
 ! R10   R(5,6)                  1.5264                                         !
 ! R11   R(5,11)                 1.0957                                         !
 ! R12   R(5,12)                 1.0943                                         !
 ! R13   R(6,7)                  1.3492                                         !
 ! R14   R(6,8)                  1.2352                                         !
 ! R15   R(7,13)                 1.0115                                         !
 ! R16   R(7,14)                 1.011                                          !
 ! R17   R(17,18)                1.4598                                         !
 ! R18   R(17,28)                1.0224                                         !
 ! R19   R(18,19)                1.5407                                         !
 ! R20   R(18,21)                1.5523                                         !
 ! R21   R(18,29)                1.0963                                         !
 ! R22   R(19,20)                1.2356                                         !
 ! R23   R(19,37)                1.3644                                         !
 ! R24   R(21,22)                1.5137                                         !
 ! R25   R(21,30)                1.0968                                         !
 ! R26   R(21,31)                1.0929                                         !
 ! R27   R(22,23)                1.4023                                         !
 ! R28   R(22,24)                1.4016                                         !
 ! R29   R(23,25)                1.3955                                         !
 ! R30   R(23,32)                1.0878                                         !
 ! R31   R(24,26)                1.3982                                         !
 ! R32   R(24,33)                1.0868                                         !
 ! R33   R(25,27)                1.3996                                         !
 ! R34   R(25,34)                1.0865                                         !
 ! R35   R(26,27)                1.3971                                         !
 ! R36   R(26,35)                1.0865                                         !
 ! R37   R(27,36)                1.0878                                         !
 ! R38   R(37,38)                1.4594                                         !
 ! R39   R(37,45)                1.015                                          !
 ! R40   R(38,39)                1.5389                                         !
 ! R41   R(38,41)                1.5468                                         !
 ! R42   R(38,46)                1.0926                                         !
 ! R43   R(39,40)                1.2373                                         !
 ! R44   R(39,51)                1.3463                                         !
 ! R45   R(41,42)                1.5284                                         !
 ! R46   R(41,47)                1.0963                                         !
 ! R47   R(41,48)                1.0931                                         !
 ! R48   R(42,43)                1.3464                                         !
 ! R49   R(42,44)                1.2392                                         !
 ! R50   R(43,49)                1.0121                                         !
 ! R51   R(43,50)                1.0098                                         !
 ! R52   R(51,52)                1.4696                                         !
 ! R53   R(51,63)                1.0119                                         !
 ! R54   R(52,53)                1.5631                                         !
 ! R55   R(52,55)                1.5408                                         !
 ! R56   R(52,64)                1.091                                          !
 ! R57   R(53,54)                1.2552                                         !
 ! R58   R(53,62)                1.2708                                         !
 ! R59   R(55,56)                1.5416                                         !
 ! R60   R(55,65)                1.0968                                         !
 ! R61   R(55,66)                1.0981                                         !
 ! R62   R(56,57)                1.537                                          !
 ! R63   R(56,67)                1.0954                                         !
 ! R64   R(56,68)                1.0955                                         !
 ! R65   R(57,58)                1.4686                                         !
 ! R66   R(57,69)                1.0959                                         !
 ! R67   R(57,70)                1.0974                                         !
 ! R68   R(58,59)                1.327                                          !
 ! R69   R(58,71)                1.0442                                         !
 ! R70   R(59,60)                1.3439                                         !
 ! R71   R(59,61)                1.3535                                         !
 ! R72   R(60,72)                1.0112                                         !
 ! R73   R(60,73)                1.0171                                         !
 ! R74   R(61,74)                1.0197                                         !
 ! R75   R(61,75)                1.0131                                         !
 ! A1    A(2,1,9)              105.1019                                         !
 ! A2    A(2,1,15)             111.4334                                         !
 ! A3    A(2,1,16)             111.1463                                         !
 ! A4    A(9,1,15)             113.556                                          !
 ! A5    A(9,1,16)             109.4137                                         !
 ! A6    A(15,1,16)            106.2674                                         !
 ! A7    A(1,2,3)              114.1935                                         !
 ! A8    A(1,2,5)              108.5866                                         !
 ! A9    A(1,2,10)             106.8225                                         !
 ! A10   A(3,2,5)              109.989                                          !
 ! A11   A(3,2,10)             106.2756                                         !
 ! A12   A(5,2,10)             110.9274                                         !
 ! A13   A(2,3,4)              119.9272                                         !
 ! A14   A(2,3,17)             116.5                                            !
 ! A15   A(4,3,17)             123.474                                          !
 ! A16   A(2,5,6)              112.1762                                         !
 ! A17   A(2,5,11)             109.9208                                         !
 ! A18   A(2,5,12)             109.2202                                         !
 ! A19   A(6,5,11)             108.2554                                         !
 ! A20   A(6,5,12)             110.9518                                         !
 ! A21   A(11,5,12)            106.133                                          !
 ! A22   A(5,6,7)              114.9786                                         !
 ! A23   A(5,6,8)              121.9633                                         !
 ! A24   A(7,6,8)              123.0469                                         !
 ! A25   A(6,7,13)             118.8041                                         !
 ! A26   A(6,7,14)             121.5409                                         !
 ! A27   A(13,7,14)            119.0753                                         !
 ! A28   A(3,17,18)            120.7477                                         !
 ! A29   A(3,17,28)            117.2821                                         !
 ! A30   A(18,17,28)           115.8764                                         !
 ! A31   A(17,18,19)           116.7696                                         !
 ! A32   A(17,18,21)           108.5852                                         !
 ! A33   A(17,18,29)           106.9574                                         !
 ! A34   A(19,18,21)           108.4744                                         !
 ! A35   A(19,18,29)           105.8939                                         !
 ! A36   A(21,18,29)           110.0356                                         !
 ! A37   A(18,19,20)           118.9022                                         !
 ! A38   A(18,19,37)           122.3648                                         !
 ! A39   A(20,19,37)           118.7106                                         !
 ! A40   A(18,21,22)           113.1443                                         !
 ! A41   A(18,21,30)           107.9214                                         !
 ! A42   A(18,21,31)           107.7093                                         !
 ! A43   A(22,21,30)           109.0608                                         !
 ! A44   A(22,21,31)           111.3254                                         !
 ! A45   A(30,21,31)           107.4723                                         !
 ! A46   A(21,22,23)           120.9434                                         !
 ! A47   A(21,22,24)           120.1012                                         !
 ! A48   A(23,22,24)           118.9522                                         !
 ! A49   A(22,23,25)           120.6687                                         !
 ! A50   A(22,23,32)           119.784                                          !
 ! A51   A(25,23,32)           119.545                                          !
 ! A52   A(22,24,26)           120.4936                                         !
 ! A53   A(22,24,33)           119.5113                                         !
 ! A54   A(26,24,33)           119.967                                          !
 ! A55   A(23,25,27)           120.0377                                         !
 ! A56   A(23,25,34)           119.7885                                         !
 ! A57   A(27,25,34)           120.1632                                         !
 ! A58   A(24,26,27)           120.1619                                         !
 ! A59   A(24,26,35)           119.5971                                         !
 ! A60   A(27,26,35)           120.2408                                         !
 ! A61   A(25,27,26)           119.6804                                         !
 ! A62   A(25,27,36)           120.0548                                         !
 ! A63   A(26,27,36)           120.2406                                         !
 ! A64   A(19,37,38)           132.2009                                         !
 ! A65   A(19,37,45)           112.4756                                         !
 ! A66   A(38,37,45)           114.9642                                         !
 ! A67   A(37,38,39)           114.3392                                         !
 ! A68   A(37,38,41)           109.8715                                         !
 ! A69   A(37,38,46)           110.1395                                         !
 ! A70   A(39,38,41)           108.398                                          !
 ! A71   A(39,38,46)           106.0056                                         !
 ! A72   A(41,38,46)           107.8345                                         !
 ! A73   A(38,39,40)           119.0013                                         !
 ! A74   A(38,39,51)           115.8145                                         !
 ! A75   A(40,39,51)           125.1216                                         !
 ! A76   A(38,41,42)           112.3795                                         !
 ! A77   A(38,41,47)           109.183                                          !
 ! A78   A(38,41,48)           107.6503                                         !
 ! A79   A(42,41,47)           107.9584                                         !
 ! A80   A(42,41,48)           111.6772                                         !
 ! A81   A(47,41,48)           107.8819                                         !
 ! A82   A(41,42,43)           116.6163                                         !
 ! A83   A(41,42,44)           121.3753                                         !
 ! A84   A(43,42,44)           122.0081                                         !
 ! A85   A(42,43,49)           118.8862                                         !
 ! A86   A(42,43,50)           122.6444                                         !
 ! A87   A(49,43,50)           118.2981                                         !
 ! A88   A(39,51,52)           124.1471                                         !
 ! A89   A(39,51,63)           115.8438                                         !
 ! A90   A(52,51,63)           116.8049                                         !
 ! A91   A(51,52,53)           104.5767                                         !
 ! A92   A(51,52,55)           112.625                                          !
 ! A93   A(51,52,64)           105.2387                                         !
 ! A94   A(53,52,55)           119.5381                                         !
 ! A95   A(53,52,64)           107.7456                                         !
 ! A96   A(55,52,64)           106.2085                                         !
 ! A97   A(52,53,54)           119.3115                                         !
 ! A98   A(52,53,62)           115.5979                                         !
 ! A99   A(54,53,62)           124.6221                                         !
 ! A100  A(52,55,56)           121.7584                                         !
 ! A101  A(52,55,65)           106.724                                          !
 ! A102  A(52,55,66)           105.5437                                         !
 ! A103  A(56,55,65)           107.1175                                         !
 ! A104  A(56,55,66)           108.522                                          !
 ! A105  A(65,55,66)           106.2458                                         !
 ! A106  A(55,56,57)           116.9907                                         !
 ! A107  A(55,56,67)           110.2126                                         !
 ! A108  A(55,56,68)           106.6997                                         !
 ! A109  A(57,56,67)           108.5878                                         !
 ! A110  A(57,56,68)           107.5558                                         !
 ! A111  A(67,56,68)           106.2334                                         !
 ! A112  A(56,57,58)           108.1877                                         !
 ! A113  A(56,57,69)           110.5298                                         !
 ! A114  A(56,57,70)           111.0215                                         !
 ! A115  A(58,57,69)           108.564                                          !
 ! A116  A(58,57,70)           110.644                                          !
 ! A117  A(69,57,70)           107.8728                                         !
 ! A118  A(57,58,59)           127.3908                                         !
 ! A119  A(57,58,71)           115.0179                                         !
 ! A120  A(59,58,71)           117.5175                                         !
 ! A121  A(58,59,60)           121.5266                                         !
 ! A122  A(58,59,61)           119.3872                                         !
 ! A123  A(60,59,61)           119.0511                                         !
 ! A124  A(59,60,72)           117.8106                                         !
 ! A125  A(59,60,73)           119.4305                                         !
 ! A126  A(72,60,73)           116.4648                                         !
 ! A127  A(59,61,74)           115.7896                                         !
 ! A128  A(59,61,75)           116.4732                                         !
 ! A129  A(74,61,75)           114.7567                                         !
 ! D1    D(9,1,2,3)           -175.914                                          !
 ! D2    D(9,1,2,5)             60.9615                                         !
 ! D3    D(9,1,2,10)           -58.7319                                         !
 ! D4    D(15,1,2,3)           -52.5036                                         !
 ! D5    D(15,1,2,5)          -175.6281                                         !
 ! D6    D(15,1,2,10)           64.6785                                         !
 ! D7    D(16,1,2,3)            65.8235                                         !
 ! D8    D(16,1,2,5)           -57.3011                                         !
 ! D9    D(16,1,2,10)         -176.9945                                         !
 ! D10   D(1,2,3,4)            131.2816                                         !
 ! D11   D(1,2,3,17)           -52.2085                                         !
 ! D12   D(5,2,3,4)           -106.3571                                         !
 ! D13   D(5,2,3,17)            70.1528                                         !
 ! D14   D(10,2,3,4)            13.7852                                         !
 ! D15   D(10,2,3,17)         -169.7048                                         !
 ! D16   D(1,2,5,6)            -60.2765                                         !
 ! D17   D(1,2,5,11)            60.2226                                         !
 ! D18   D(1,2,5,12)           176.2847                                         !
 ! D19   D(3,2,5,6)            174.1034                                         !
 ! D20   D(3,2,5,11)           -65.3975                                         !
 ! D21   D(3,2,5,12)            50.6645                                         !
 ! D22   D(10,2,5,6)            56.8202                                         !
 ! D23   D(10,2,5,11)          177.3192                                         !
 ! D24   D(10,2,5,12)          -66.6187                                         !
 ! D25   D(2,3,17,18)         -153.9563                                         !
 ! D26   D(2,3,17,28)           -2.5322                                         !
 ! D27   D(4,3,17,18)           22.4173                                         !
 ! D28   D(4,3,17,28)          173.8414                                         !
 ! D29   D(2,5,6,7)           -165.0453                                         !
 ! D30   D(2,5,6,8)             16.1376                                         !
 ! D31   D(11,5,6,7)            73.4957                                         !
 ! D32   D(11,5,6,8)          -105.3215                                         !
 ! D33   D(12,5,6,7)           -42.5834                                         !
 ! D34   D(12,5,6,8)           138.5995                                         !
 ! D35   D(5,6,7,13)          -174.9538                                         !
 ! D36   D(5,6,7,14)            -3.7674                                         !
 ! D37   D(8,6,7,13)             3.849                                          !
 ! D38   D(8,6,7,14)           175.0354                                         !
 ! D39   D(3,17,18,19)        -110.7188                                         !
 ! D40   D(3,17,18,21)         126.3198                                         !
 ! D41   D(3,17,18,29)           7.6076                                         !
 ! D42   D(28,17,18,19)         97.477                                          !
 ! D43   D(28,17,18,21)        -25.4844                                         !
 ! D44   D(28,17,18,29)       -144.1966                                         !
 ! D45   D(17,18,19,20)       -158.9588                                         !
 ! D46   D(17,18,19,37)         19.2939                                         !
 ! D47   D(21,18,19,20)        -35.9402                                         !
 ! D48   D(21,18,19,37)        142.3125                                         !
 ! D49   D(29,18,19,20)         82.1401                                         !
 ! D50   D(29,18,19,37)        -99.6072                                         !
 ! D51   D(17,18,21,22)        -51.2005                                         !
 ! D52   D(17,18,21,30)         69.5636                                         !
 ! D53   D(17,18,21,31)       -174.6816                                         !
 ! D54   D(19,18,21,22)       -179.0321                                         !
 ! D55   D(19,18,21,30)        -58.268                                          !
 ! D56   D(19,18,21,31)         57.4868                                         !
 ! D57   D(29,18,21,22)         65.5528                                         !
 ! D58   D(29,18,21,30)       -173.6831                                         !
 ! D59   D(29,18,21,31)        -57.9283                                         !
 ! D60   D(18,19,37,38)         11.812                                          !
 ! D61   D(18,19,37,45)       -175.5722                                         !
 ! D62   D(20,19,37,38)       -169.9321                                         !
 ! D63   D(20,19,37,45)          2.6837                                         !
 ! D64   D(18,21,22,23)        -64.9317                                         !
 ! D65   D(18,21,22,24)        114.3975                                         !
 ! D66   D(30,21,22,23)        174.9526                                         !
 ! D67   D(30,21,22,24)         -5.7181                                         !
 ! D68   D(31,21,22,23)         56.5349                                         !
 ! D69   D(31,21,22,24)       -124.1359                                         !
 ! D70   D(21,22,23,25)        179.7043                                         !
 ! D71   D(21,22,23,32)         -0.8484                                         !
 ! D72   D(24,22,23,25)          0.3675                                         !
 ! D73   D(24,22,23,32)        179.8147                                         !
 ! D74   D(21,22,24,26)        179.8685                                         !
 ! D75   D(21,22,24,33)         -2.0602                                         !
 ! D76   D(23,22,24,26)         -0.7889                                         !
 ! D77   D(23,22,24,33)        177.2823                                         !
 ! D78   D(22,23,25,27)          0.2985                                         !
 ! D79   D(22,23,25,34)        179.1183                                         !
 ! D80   D(32,23,25,27)       -179.1501                                         !
 ! D81   D(32,23,25,34)         -0.3303                                         !
 ! D82   D(22,24,26,27)          0.5463                                         !
 ! D83   D(22,24,26,35)       -179.3066                                         !
 ! D84   D(33,24,26,27)       -177.5162                                         !
 ! D85   D(33,24,26,35)          2.631                                          !
 ! D86   D(23,25,27,26)         -0.5474                                         !
 ! D87   D(23,25,27,36)        177.6708                                         !
 ! D88   D(34,25,27,26)       -179.3628                                         !
 ! D89   D(34,25,27,36)         -1.1446                                         !
 ! D90   D(24,26,27,25)          0.128                                          !
 ! D91   D(24,26,27,36)       -178.0869                                         !
 ! D92   D(35,26,27,25)        179.9799                                         !
 ! D93   D(35,26,27,36)          1.7651                                         !
 ! D94   D(19,37,38,39)        -80.121                                          !
 ! D95   D(19,37,38,41)        157.75                                           !
 ! D96   D(19,37,38,46)         39.1028                                         !
 ! D97   D(45,37,38,39)        107.4062                                         !
 ! D98   D(45,37,38,41)        -14.7227                                         !
 ! D99   D(45,37,38,46)       -133.3699                                         !
 ! D100  D(37,38,39,40)        160.7292                                         !
 ! D101  D(37,38,39,51)        -22.0027                                         !
 ! D102  D(41,38,39,40)        -76.3403                                         !
 ! D103  D(41,38,39,51)        100.9278                                         !
 ! D104  D(46,38,39,40)         39.2031                                         !
 ! D105  D(46,38,39,51)       -143.5288                                         !
 ! D106  D(37,38,41,42)         62.9956                                         !
 ! D107  D(37,38,41,47)        -56.7595                                         !
 ! D108  D(37,38,41,48)       -173.623                                          !
 ! D109  D(39,38,41,42)        -62.5996                                         !
 ! D110  D(39,38,41,47)        177.6453                                         !
 ! D111  D(39,38,41,48)         60.7818                                         !
 ! D112  D(46,38,41,42)       -176.9468                                         !
 ! D113  D(46,38,41,47)         63.2981                                         !
 ! D114  D(46,38,41,48)        -53.5654                                         !
 ! D115  D(38,39,51,52)        165.744                                          !
 ! D116  D(38,39,51,63)          6.6824                                         !
 ! D117  D(40,39,51,52)        -17.1773                                         !
 ! D118  D(40,39,51,63)       -176.2389                                         !
 ! D119  D(38,41,42,43)        129.9893                                         !
 ! D120  D(38,41,42,44)        -49.8247                                         !
 ! D121  D(47,41,42,43)       -109.5461                                         !
 ! D122  D(47,41,42,44)         70.6398                                         !
 ! D123  D(48,41,42,43)          8.89                                           !
 ! D124  D(48,41,42,44)       -170.9241                                         !
 ! D125  D(41,42,43,49)        176.1933                                         !
 ! D126  D(41,42,43,50)          1.0347                                         !
 ! D127  D(44,42,43,49)         -3.9939                                         !
 ! D128  D(44,42,43,50)       -179.1525                                         !
 ! D129  D(39,51,52,53)       -101.2265                                         !
 ! D130  D(39,51,52,55)        127.4546                                         !
 ! D131  D(39,51,52,64)         12.1797                                         !
 ! D132  D(63,51,52,53)         57.6523                                         !
 ! D133  D(63,51,52,55)        -73.6666                                         !
 ! D134  D(63,51,52,64)        171.0585                                         !
 ! D135  D(51,52,53,54)        -79.5316                                         !
 ! D136  D(51,52,53,62)         92.9781                                         !
 ! D137  D(55,52,53,54)         47.6418                                         !
 ! D138  D(55,52,53,62)       -139.8485                                         !
 ! D139  D(64,52,53,54)        168.8534                                         !
 ! D140  D(64,52,53,62)        -18.637                                          !
 ! D141  D(51,52,55,56)         69.0968                                         !
 ! D142  D(51,52,55,65)       -167.7111                                         !
 ! D143  D(51,52,55,66)        -54.9569                                         !
 ! D144  D(53,52,55,56)        -54.2397                                         !
 ! D145  D(53,52,55,65)         68.9524                                         !
 ! D146  D(53,52,55,66)       -178.2934                                         !
 ! D147  D(64,52,55,56)       -176.2143                                         !
 ! D148  D(64,52,55,65)        -53.0222                                         !
 ! D149  D(64,52,55,66)         59.732                                          !
 ! D150  D(52,55,56,57)        -53.9823                                         !
 ! D151  D(52,55,56,67)         70.6784                                         !
 ! D152  D(52,55,56,68)       -174.3941                                         !
 ! D153  D(65,55,56,57)       -176.9908                                         !
 ! D154  D(65,55,56,67)        -52.33                                           !
 ! D155  D(65,55,56,68)         62.5974                                         !
 ! D156  D(66,55,56,57)         68.6852                                         !
 ! D157  D(66,55,56,67)       -166.654                                          !
 ! D158  D(66,55,56,68)        -51.7266                                         !
 ! D159  D(55,56,57,58)         82.3583                                         !
 ! D160  D(55,56,57,69)       -158.8998                                         !
 ! D161  D(55,56,57,70)        -39.2304                                         !
 ! D162  D(67,56,57,58)        -43.1176                                         !
 ! D163  D(67,56,57,69)         75.6243                                         !
 ! D164  D(67,56,57,70)       -164.7063                                         !
 ! D165  D(68,56,57,58)       -157.6835                                         !
 ! D166  D(68,56,57,69)        -38.9416                                         !
 ! D167  D(68,56,57,70)         80.7278                                         !
 ! D168  D(56,57,58,59)       -179.8541                                         !
 ! D169  D(56,57,58,71)         -3.0813                                         !
 ! D170  D(69,57,58,59)         60.1634                                         !
 ! D171  D(69,57,58,71)       -123.0638                                         !
 ! D172  D(70,57,58,59)        -58.0328                                         !
 ! D173  D(70,57,58,71)        118.74                                           !
 ! D174  D(57,58,59,60)         14.3513                                         !
 ! D175  D(57,58,59,61)       -163.4726                                         !
 ! D176  D(71,58,59,60)       -162.3512                                         !
 ! D177  D(71,58,59,61)         19.8249                                         !
 ! D178  D(58,59,60,72)       -179.0536                                         !
 ! D179  D(58,59,60,73)         29.7727                                         !
 ! D180  D(61,59,60,72)         -1.2226                                         !
 ! D181  D(61,59,60,73)       -152.3962                                         !
 ! D182  D(58,59,61,74)       -136.1285                                         !
 ! D183  D(58,59,61,75)          3.3533                                         !
 ! D184  D(60,59,61,74)         45.9933                                         !
 ! D185  D(60,59,61,75)       -174.5249                                         !
 --------------------------------------------------------------------------------
 Symmetry turned off by external request.
 Stoichiometry    C23H36N9O7(1+)
 Framework group  C1[X(C23H36N9O7)]
 Deg. of freedom   219
 Full point group                 C1      NOp   1
                          Input orientation:                          
 ---------------------------------------------------------------------
 Center     Atomic      Atomic             Coordinates (Angstroms)
 Number     Number       Type             X           Y           Z
 ---------------------------------------------------------------------
      1          7           0       -9.109804   -2.637504   -9.947480
      2          6           0       -8.891771   -3.865367   -9.106003
      3          6           0       -8.538204   -3.568974   -7.636902
      4          8           0       -9.133493   -4.146690   -6.737116
      5          6           0       -7.787158   -4.709396   -9.750604
      6          6           0       -8.152736   -5.154219  -11.164256
      7          7           0       -7.386099   -6.144604  -11.666073
      8          8           0       -9.069329   -4.623918  -11.800119
      9          1           0       -9.404530   -2.994561  -10.874983
     10          1           0       -9.837501   -4.408573   -9.089218
     11          1           0       -6.857751   -4.131397   -9.802223
     12          1           0       -7.573756   -5.571893   -9.111900
     13          1           0       -7.527018   -6.431347  -12.625767
     14          1           0       -6.595162   -6.511972  -11.154635
     15          1           0       -9.796842   -1.999263   -9.513280
     16          1           0       -8.209902   -2.079661  -10.052909
     17          7           0       -7.502751   -2.707378   -7.421976
     18          6           0       -6.721367   -2.771997   -6.190586
     19          6           0       -6.883127   -1.599904   -5.203767
     20          8           0       -5.995659   -1.395453   -4.368789
     21          6           0       -5.219707   -2.897382   -6.563518
     22          6           0       -4.943155   -4.009363   -7.552553
     23          6           0       -5.161145   -5.351174   -7.208412
     24          6           0       -4.475497   -3.706114   -8.838510
     25          6           0       -4.910058   -6.371421   -8.126849
     26          6           0       -4.214762   -4.726928   -9.757695
     27          6           0       -4.429806   -6.061449   -9.404426
     28          1           0       -7.010687   -2.351602   -8.244524
     29          1           0       -7.050120   -3.667254   -5.649887
     30          1           0       -4.899225   -1.943040   -6.998723
     31          1           0       -4.657910   -3.040663   -5.637051
     32          1           0       -5.521076   -5.602098   -6.213060
     33          1           0       -4.345690   -2.667137   -9.129778
     34          1           0       -5.070290   -7.407157   -7.840284
     35          1           0       -3.841863   -4.475998  -10.746840
     36          1           0       -4.198067   -6.858438  -10.107500
     37          7           0       -7.955335   -0.756869   -5.240483
     38          6           0       -9.230203   -0.822497   -5.947703
     39          6           0       -9.159052   -0.395199   -7.424404
     40          8           0      -10.062476   -0.744733   -8.194251
     41          6           0      -10.274748    0.066040   -5.232158
     42          6           0       -9.883399    1.543468   -5.237551
     43          7           0      -10.823439    2.414969   -5.649310
     44          8           0       -8.755108    1.913305   -4.883021
     45          1           0       -7.875104    0.002316   -4.571581
     46          1           0       -9.607554   -1.847918   -5.948627
     47          1           0      -10.366511   -0.255516   -4.188117
     48          1           0      -11.239135   -0.097969   -5.719861
     49          1           0      -10.621484    3.406019   -5.611490
     50          1           0      -11.749682    2.125507   -5.928381
     51          7           0       -8.119640    0.393078   -7.757185
     52          6           0       -7.698375    0.663107   -9.138934
     53          6           0       -6.462483   -0.267432   -9.362380
     54          8           0       -5.342986    0.079367   -8.913085
     55          6           0       -7.578834    2.169815   -9.438467
     56          6           0       -6.473663    3.037915   -8.804737
     57          6           0       -6.356002    3.008357   -7.272510
     58          7           0       -5.579548    1.820293   -6.895230
     59          6           0       -5.253958    1.425848   -5.670769
     60          7           0       -5.851420    1.943024   -4.583743
     61          7           0       -4.267657    0.513432   -5.507145
     62          8           0       -6.715989   -1.404508   -9.870142
     63          1           0       -7.429691    0.542682   -7.032293
     64          1           0       -8.511585    0.291835   -9.764416
     65          1           0       -7.482829    2.268652  -10.526625
     66          1           0       -8.554239    2.600350   -9.175767
     67          1           0       -5.498923    2.783055   -9.234781
     68          1           0       -6.677769    4.072738   -9.100564
     69          1           0       -5.829644    3.898659   -6.910236
     70          1           0       -7.347172    2.988284   -6.801893
     71          1           0       -5.300985    1.203864   -7.690722
     72          1           0       -5.549531    1.612156   -3.677133
     73          1           0       -6.811995    2.270911   -4.649809
     74          1           0       -4.457629   -0.229527   -4.835021
     75          1           0       -3.786321    0.213293   -6.346497
 ---------------------------------------------------------------------
 Rotational constants (GHZ):           0.1517965           0.0764890           0.0707411
 Standard basis: 6-31G(d) (6D, 7F)
   657 basis functions,  1236 primitive gaussians,   657 cartesian basis functions
   146 alpha electrons      146 beta electrons
       nuclear repulsion energy      5246.5346475207 Hartrees.
 NAtoms=   75 NActive=   75 NUniq=   75 SFac= 1.00D+00 NAtFMM=   60 NAOKFM=T Big=T
 Integral buffers will be    131072 words long.
 Raffenetti 2 integral format.
 Two-electron integral symmetry is turned off.
 Nuclear repulsion after empirical dispersion term =     5246.4041270220 Hartrees.
 One-electron integrals computed using PRISM.
 NBasis=   657 RedAO= T EigKep=  4.64D-04  NBF=   657
 NBsUse=   657 1.00D-06 EigRej= -1.00D+00 NBFU=   657
 Initial guess from the checkpoint file:  "conf-898.chk"
 B after Tr=     0.000000    0.000000    0.000000
         Rot=    1.000000    0.000000    0.000000    0.000000 Ang=   0.00 deg.
 Requested convergence on RMS density matrix=1.00D-08 within 128 cycles.
 Requested convergence on MAX density matrix=1.00D-06.
 Requested convergence on             energy=1.00D-06.
 No special actions if energy rises.
 SCF Done:  E(RB3LYP) =  -1917.54256948     A.U. after    1 cycles
            NFock=  1  Conv=0.80D-08     -V/T= 2.0093

 **********************************************************************

            Population analysis using the SCF Density.

 **********************************************************************

 Alpha  occ. eigenvalues --  -19.24965 -19.23690 -19.23114 -19.22862 -19.22310
 Alpha  occ. eigenvalues --  -19.21329 -19.21277 -14.51597 -14.48778 -14.48678
 Alpha  occ. eigenvalues --  -14.48084 -14.47846 -14.47710 -14.47617 -14.46424
 Alpha  occ. eigenvalues --  -14.45831 -10.44801 -10.42554 -10.40751 -10.40746
 Alpha  occ. eigenvalues --  -10.40041 -10.39877 -10.39192 -10.35987 -10.35826
 Alpha  occ. eigenvalues --  -10.34501 -10.33761 -10.33443 -10.32600 -10.30647
 Alpha  occ. eigenvalues --  -10.29408 -10.29342 -10.29231 -10.28873 -10.28071
 Alpha  occ. eigenvalues --  -10.28001 -10.27903 -10.27858 -10.27406  -1.16560
 Alpha  occ. eigenvalues --   -1.15744  -1.15101  -1.14758  -1.14433  -1.13914
 Alpha  occ. eigenvalues --   -1.13453  -1.07800  -1.05561  -1.05257  -1.03607
 Alpha  occ. eigenvalues --   -1.03520  -1.02996  -1.02644  -1.01553  -1.00845
 Alpha  occ. eigenvalues --   -0.94543  -0.90910  -0.90083  -0.89743  -0.87969
 Alpha  occ. eigenvalues --   -0.85331  -0.83485  -0.83196  -0.80474  -0.78874
 Alpha  occ. eigenvalues --   -0.78201  -0.76070  -0.75144  -0.72316  -0.71530
 Alpha  occ. eigenvalues --   -0.70974  -0.70311  -0.69987  -0.69660  -0.69394
 Alpha  occ. eigenvalues --   -0.68738  -0.68296  -0.67005  -0.66724  -0.66610
 Alpha  occ. eigenvalues --   -0.66186  -0.65159  -0.63642  -0.63578  -0.62537
 Alpha  occ. eigenvalues --   -0.62490  -0.61677  -0.60890  -0.60844  -0.59826
 Alpha  occ. eigenvalues --   -0.58836  -0.58613  -0.58185  -0.57827  -0.57387
 Alpha  occ. eigenvalues --   -0.56398  -0.56317  -0.55863  -0.55265  -0.54657
 Alpha  occ. eigenvalues --   -0.54385  -0.54236  -0.53728  -0.53469  -0.53039
 Alpha  occ. eigenvalues --   -0.52587  -0.52450  -0.52107  -0.51600  -0.51346
 Alpha  occ. eigenvalues --   -0.50956  -0.50719  -0.50649  -0.50191  -0.49745
 Alpha  occ. eigenvalues --   -0.49630  -0.49244  -0.48751  -0.48459  -0.47966
 Alpha  occ. eigenvalues --   -0.47512  -0.46680  -0.45929  -0.45302  -0.45154
 Alpha  occ. eigenvalues --   -0.44311  -0.44062  -0.42945  -0.42640  -0.40883
 Alpha  occ. eigenvalues --   -0.40089  -0.39679  -0.39203  -0.38948  -0.38752
 Alpha  occ. eigenvalues --   -0.38091  -0.37438  -0.37097  -0.36653  -0.36007
 Alpha  occ. eigenvalues --   -0.35857  -0.35399  -0.35254  -0.34357  -0.33780
 Alpha  occ. eigenvalues --   -0.33471
 Alpha virt. eigenvalues --   -0.11169  -0.11036  -0.10807  -0.10255  -0.09940
 Alpha virt. eigenvalues --   -0.09121  -0.08954  -0.07431  -0.06388  -0.04495
 Alpha virt. eigenvalues --   -0.03495  -0.01733  -0.01229  -0.00929  -0.00388
 Alpha virt. eigenvalues --    0.00285   0.00688   0.01073   0.01880   0.02515
 Alpha virt. eigenvalues --    0.02943   0.03064   0.03274   0.03476   0.03922
 Alpha virt. eigenvalues --    0.04120   0.04269   0.04643   0.05360   0.05448
 Alpha virt. eigenvalues --    0.05692   0.06100   0.06597   0.06838   0.06922
 Alpha virt. eigenvalues --    0.07234   0.07362   0.08017   0.08095   0.08170
 Alpha virt. eigenvalues --    0.08396   0.08978   0.09425   0.09560   0.09934
 Alpha virt. eigenvalues --    0.10484   0.10753   0.10952   0.11576   0.11858
 Alpha virt. eigenvalues --    0.12147   0.12399   0.13289   0.13629   0.13868
 Alpha virt. eigenvalues --    0.14503   0.14873   0.15525   0.16082   0.16442
 Alpha virt. eigenvalues --    0.16704   0.17741   0.18420   0.19160   0.19535
 Alpha virt. eigenvalues --    0.21630   0.21921   0.22758   0.23309   0.23511
 Alpha virt. eigenvalues --    0.24381   0.24905   0.25479   0.25831   0.27195
 Alpha virt. eigenvalues --    0.27656   0.28350   0.29377   0.29927   0.31257
 Alpha virt. eigenvalues --    0.31907   0.32562   0.33222   0.36184   0.37233
 Alpha virt. eigenvalues --    0.37681   0.38409   0.39001   0.39599   0.40718
 Alpha virt. eigenvalues --    0.41063   0.41623   0.41890   0.42630   0.43037
 Alpha virt. eigenvalues --    0.43479   0.43939   0.44389   0.45041   0.45541
 Alpha virt. eigenvalues --    0.46007   0.46802   0.46862   0.47179   0.47294
 Alpha virt. eigenvalues --    0.47543   0.48133   0.49210   0.49400   0.49855
 Alpha virt. eigenvalues --    0.49969   0.50568   0.51929   0.52079   0.52560
 Alpha virt. eigenvalues --    0.52693   0.52872   0.53021   0.53404   0.53553
 Alpha virt. eigenvalues --    0.53997   0.54196   0.54974   0.55032   0.55581
 Alpha virt. eigenvalues --    0.55606   0.55991   0.56341   0.56528   0.56964
 Alpha virt. eigenvalues --    0.57302   0.57901   0.58086   0.58338   0.58743
 Alpha virt. eigenvalues --    0.59632   0.60473   0.60930   0.61945   0.62588
 Alpha virt. eigenvalues --    0.62875   0.63269   0.64344   0.64477   0.65243
 Alpha virt. eigenvalues --    0.65688   0.66207   0.66685   0.67079   0.67617
 Alpha virt. eigenvalues --    0.67754   0.69661   0.70133   0.70364   0.71024
 Alpha virt. eigenvalues --    0.71238   0.71832   0.72629   0.73241   0.73553
 Alpha virt. eigenvalues --    0.73718   0.74269   0.74587   0.74956   0.75281
 Alpha virt. eigenvalues --    0.75638   0.75750   0.76100   0.76375   0.76611
 Alpha virt. eigenvalues --    0.77008   0.77453   0.77719   0.77898   0.78393
 Alpha virt. eigenvalues --    0.79227   0.79835   0.80033   0.80377   0.80603
 Alpha virt. eigenvalues --    0.80797   0.81398   0.81598   0.82123   0.82311
 Alpha virt. eigenvalues --    0.82948   0.83488   0.84184   0.84409   0.84557
 Alpha virt. eigenvalues --    0.85065   0.85339   0.85892   0.86190   0.87125
 Alpha virt. eigenvalues --    0.87418   0.87972   0.88559   0.88959   0.89346
 Alpha virt. eigenvalues --    0.90304   0.90478   0.91716   0.92166   0.93228
 Alpha virt. eigenvalues --    0.94077   0.94255   0.94576   0.95887   0.96435
 Alpha virt. eigenvalues --    0.96778   0.97177   0.98240   0.98650   0.99567
 Alpha virt. eigenvalues --    0.99919   1.01432   1.02364   1.02545   1.03390
 Alpha virt. eigenvalues --    1.03702   1.04582   1.05354   1.05923   1.06305
 Alpha virt. eigenvalues --    1.07026   1.07946   1.08349   1.08556   1.10310
 Alpha virt. eigenvalues --    1.10705   1.11139   1.11430   1.12299   1.12753
 Alpha virt. eigenvalues --    1.14089   1.14488   1.15052   1.15785   1.16770
 Alpha virt. eigenvalues --    1.17909   1.18441   1.18995   1.20330   1.21551
 Alpha virt. eigenvalues --    1.21626   1.23142   1.23832   1.24456   1.25887
 Alpha virt. eigenvalues --    1.26184   1.26718   1.27361   1.28137   1.29073
 Alpha virt. eigenvalues --    1.29407   1.30045   1.30202   1.30729   1.31901
 Alpha virt. eigenvalues --    1.33336   1.33633   1.34378   1.34635   1.35366
 Alpha virt. eigenvalues --    1.35617   1.36797   1.37768   1.38803   1.38969
 Alpha virt. eigenvalues --    1.39767   1.39938   1.40579   1.40992   1.41500
 Alpha virt. eigenvalues --    1.42514   1.42930   1.43604   1.44894   1.45924
 Alpha virt. eigenvalues --    1.47462   1.48478   1.49257   1.49898   1.51068
 Alpha virt. eigenvalues --    1.51856   1.52872   1.53630   1.54359   1.55134
 Alpha virt. eigenvalues --    1.55555   1.56127   1.57399   1.58861   1.60382
 Alpha virt. eigenvalues --    1.61163   1.61759   1.61843   1.62626   1.63437
 Alpha virt. eigenvalues --    1.64142   1.64463   1.64903   1.65618   1.66663
 Alpha virt. eigenvalues --    1.67468   1.67933   1.68510   1.69410   1.70104
 Alpha virt. eigenvalues --    1.70484   1.70912   1.71255   1.71578   1.72276
 Alpha virt. eigenvalues --    1.72445   1.72836   1.73487   1.74124   1.74522
 Alpha virt. eigenvalues --    1.75319   1.76766   1.76854   1.77463   1.77974
 Alpha virt. eigenvalues --    1.78431   1.78929   1.79732   1.79962   1.80539
 Alpha virt. eigenvalues --    1.80551   1.81014   1.81925   1.82870   1.83062
 Alpha virt. eigenvalues --    1.83476   1.83848   1.84483   1.85182   1.85923
 Alpha virt. eigenvalues --    1.86507   1.86827   1.88059   1.88657   1.89355
 Alpha virt. eigenvalues --    1.89675   1.90155   1.90952   1.91168   1.91541
 Alpha virt. eigenvalues --    1.92270   1.93356   1.93413   1.93889   1.95078
 Alpha virt. eigenvalues --    1.96311   1.97128   1.97516   1.98506   1.99190
 Alpha virt. eigenvalues --    2.00017   2.00221   2.00680   2.01615   2.02378
 Alpha virt. eigenvalues --    2.03156   2.03725   2.04120   2.05394   2.05688
 Alpha virt. eigenvalues --    2.06322   2.07493   2.08007   2.08862   2.09597
 Alpha virt. eigenvalues --    2.10280   2.10672   2.11640   2.12679   2.13782
 Alpha virt. eigenvalues --    2.14090   2.14762   2.15194   2.16031   2.16683
 Alpha virt. eigenvalues --    2.17411   2.18375   2.19098   2.20109   2.21452
 Alpha virt. eigenvalues --    2.22062   2.22423   2.23282   2.23901   2.25072
 Alpha virt. eigenvalues --    2.25864   2.27563   2.28459   2.29062   2.29473
 Alpha virt. eigenvalues --    2.30700   2.31332   2.31743   2.32439   2.33556
 Alpha virt. eigenvalues --    2.34531   2.35042   2.36274   2.38191   2.38396
 Alpha virt. eigenvalues --    2.39066   2.40204   2.41120   2.42059   2.42529
 Alpha virt. eigenvalues --    2.43435   2.45494   2.46509   2.46834   2.48408
 Alpha virt. eigenvalues --    2.48879   2.49675   2.49801   2.51154   2.51651
 Alpha virt. eigenvalues --    2.51957   2.52664   2.53479   2.54289   2.54545
 Alpha virt. eigenvalues --    2.55507   2.56098   2.56544   2.57711   2.58295
 Alpha virt. eigenvalues --    2.59212   2.60047   2.61557   2.63101   2.63536
 Alpha virt. eigenvalues --    2.64292   2.65470   2.66108   2.66739   2.67449
 Alpha virt. eigenvalues --    2.68344   2.69967   2.72893   2.73163   2.76612
 Alpha virt. eigenvalues --    2.77202   2.81349   2.81996   2.84528   2.87482
 Alpha virt. eigenvalues --    2.88986   2.89709   2.90058   2.90705   2.91563
 Alpha virt. eigenvalues --    2.92408   2.93325   2.95080   2.96524   2.98639
 Alpha virt. eigenvalues --    3.00530   3.01390   3.03123   3.04187   3.04910
 Alpha virt. eigenvalues --    3.10022   3.31824   3.67935   3.72299   3.74024
 Alpha virt. eigenvalues --    3.77832   3.82277   3.87941   3.94171   3.95233
 Alpha virt. eigenvalues --    3.96284   3.97011   4.02509   4.03033   4.05410
 Alpha virt. eigenvalues --    4.08663   4.09279   4.09843   4.13712   4.13742
 Alpha virt. eigenvalues --    4.16307   4.17225   4.18953   4.23657   4.24328
 Alpha virt. eigenvalues --    4.26512   4.27213   4.33083   4.34389   4.35564
 Alpha virt. eigenvalues --    4.39457   4.40340   4.41943   4.44647   4.46675
 Alpha virt. eigenvalues --    4.51940   4.56095   4.61552   4.63394   4.65641
 Alpha virt. eigenvalues --    4.68999
          Condensed to atoms (all electrons):
 Mulliken charges:
               1
     1  N   -0.816575
     2  C   -0.110692
     3  C    0.616533
     4  O   -0.503200
     5  C   -0.418569
     6  C    0.632534
     7  N   -0.741505
     8  O   -0.533980
     9  H    0.418682
    10  H    0.217817
    11  H    0.230725
    12  H    0.207454
    13  H    0.364717
    14  H    0.358320
    15  H    0.430976
    16  H    0.430725
    17  N   -0.675004
    18  C   -0.059214
    19  C    0.637441
    20  O   -0.553130
    21  C   -0.401707
    22  C    0.164827
    23  C   -0.180855
    24  C   -0.203580
    25  C   -0.139689
    26  C   -0.139056
    27  C   -0.158858
    28  H    0.404826
    29  H    0.217514
    30  H    0.154140
    31  H    0.194327
    32  H    0.145122
    33  H    0.175559
    34  H    0.154251
    35  H    0.154256
    36  H    0.146192
    37  N   -0.647818
    38  C   -0.045850
    39  C    0.639172
    40  O   -0.587455
    41  C   -0.398512
    42  C    0.621209
    43  N   -0.723465
    44  O   -0.558354
    45  H    0.359190
    46  H    0.223254
    47  H    0.215153
    48  H    0.194484
    49  H    0.365194
    50  H    0.369356
    51  N   -0.609945
    52  C   -0.066229
    53  C    0.620178
    54  O   -0.571457
    55  C   -0.272921
    56  C   -0.314262
    57  C   -0.148424
    58  N   -0.648646
    59  C    0.716013
    60  N   -0.752127
    61  N   -0.752564
    62  O   -0.597578
    63  H    0.369062
    64  H    0.165800
    65  H    0.172548
    66  H    0.153099
    67  H    0.183205
    68  H    0.171951
    69  H    0.189118
    70  H    0.172976
    71  H    0.418747
    72  H    0.372918
    73  H    0.410288
    74  H    0.398711
    75  H    0.372660
 Sum of Mulliken charges =   1.00000
 Mulliken charges with hydrogens summed into heavy atoms:
               1
     1  N    0.463807
     2  C    0.107126
     3  C    0.616533
     4  O   -0.503200
     5  C    0.019609
     6  C    0.632534
     7  N   -0.018469
     8  O   -0.533980
    17  N   -0.270178
    18  C    0.158300
    19  C    0.637441
    20  O   -0.553130
    21  C   -0.053240
    22  C    0.164827
    23  C   -0.035733
    24  C   -0.028021
    25  C    0.014562
    26  C    0.015201
    27  C   -0.012667
    37  N   -0.288628
    38  C    0.177404
    39  C    0.639172
    40  O   -0.587455
    41  C    0.011126
    42  C    0.621209
    43  N    0.011084
    44  O   -0.558354
    51  N   -0.240883
    52  C    0.099571
    53  C    0.620178
    54  O   -0.571457
    55  C    0.052726
    56  C    0.040894
    57  C    0.213670
    58  N   -0.229899
    59  C    0.716013
    60  N    0.031080
    61  N    0.018807
    62  O   -0.597578
 Electronic spatial extent (au):  <R**2>=         135173.7190
 Charge=              1.0000 electrons
 Dipole moment (field-independent basis, Debye):
    X=            -37.2277    Y=             -2.1964    Z=            -35.4264  Tot=             51.4369
 Quadrupole moment (field-independent basis, Debye-Ang):
   XX=             91.7539   YY=           -145.6421   ZZ=             66.3589
   XY=             -7.1132   XZ=            267.3098   YZ=             53.0923
 Traceless Quadrupole moment (field-independent basis, Debye-Ang):
   XX=             87.5970   YY=           -149.7990   ZZ=             62.2020
   XY=             -7.1132   XZ=            267.3098   YZ=             53.0923
 Octapole moment (field-independent basis, Debye-Ang**2):
  XXX=           1904.1225  YYY=            677.3793  ZZZ=           2560.6122  XYY=           1113.0539
  XXY=            621.1476  XXZ=           -443.6328  XZZ=           -504.5337  YZZ=           -415.9728
  YYZ=            932.7039  XYZ=           -194.3178
 Hexadecapole moment (field-independent basis, Debye-Ang**3):
 XXXX=         -45169.2296 YYYY=         -11009.4566 ZZZZ=         -59931.5313 XXXY=         -11017.8949
 XXXZ=         -18038.7779 YYYX=          -4935.7799 YYYZ=          -5646.4467 ZZZX=         -18819.2942
 ZZZY=           -119.1411 XXYY=         -11557.4466 XXZZ=         -10402.4071 YYZZ=          -8223.6333
 XXYZ=          -3542.8995 YYXZ=          -7442.0361 ZZXY=           1503.8384
 N-N= 5.246404127022D+03 E-N=-1.493240972171D+04  KE= 1.899832738727D+03
 Unable to Open any file for archive entry.
 1\1\GINC-AMR-134\SP\RB3LYP\6-31G(d)\C23H36N9O7(1+)\KENGMITH\03-Jun-202
 2\0\\# B3LYP/6-31G* empiricaldispersion=gd3 guess=read geom=check nosy
 mm integral(ultrafinegrid)\\Candidate Structure: Conf:898 Charge calc 
 in gas phase\\1,1\N,0,-9.1098040667,-2.6375040591,-9.9474801225\C,0,-8
 .8917706837,-3.8653669147,-9.1060030154\C,0,-8.5382035518,-3.568974193
 2,-7.6369023846\O,0,-9.1334931913,-4.1466895097,-6.7371156584\C,0,-7.7
 871580515,-4.7093957623,-9.7506043651\C,0,-8.1527364076,-5.1542193338,
 -11.1642562354\N,0,-7.3860986186,-6.1446044913,-11.6660726911\O,0,-9.0
 693292216,-4.6239179265,-11.8001194803\H,0,-9.4045303766,-2.9945607417
 ,-10.8749826404\H,0,-9.8375012493,-4.4085732601,-9.0892175277\H,0,-6.8
 577508501,-4.1313971709,-9.8022226609\H,0,-7.5737556067,-5.5718925073,
 -9.1119004166\H,0,-7.5270176989,-6.4313474844,-12.6257671003\H,0,-6.59
 51619113,-6.5119715623,-11.1546348261\H,0,-9.796842304,-1.9992634044,-
 9.5132800466\H,0,-8.2099018846,-2.0796607375,-10.0529090964\N,0,-7.502
 7511783,-2.707377583,-7.4219758946\C,0,-6.7213672422,-2.7719967601,-6.
 1905857919\C,0,-6.8831272864,-1.5999042332,-5.203766746\O,0,-5.9956594
 45,-1.3954533779,-4.3687891682\C,0,-5.2197071974,-2.8973821843,-6.5635
 179866\C,0,-4.9431548892,-4.0093633413,-7.5525531164\C,0,-5.1611454572
 ,-5.3511736594,-7.2084122268\C,0,-4.475496887,-3.7061139389,-8.8385099
 36\C,0,-4.9100582505,-6.3714211764,-8.1268490436\C,0,-4.2147622679,-4.
 7269282819,-9.757694517\C,0,-4.4298059123,-6.061449238,-9.404426026\H,
 0,-7.0106871504,-2.3516022611,-8.244523892\H,0,-7.0501199252,-3.667253
 8141,-5.6498872836\H,0,-4.8992252438,-1.9430402882,-6.9987228117\H,0,-
 4.6579098779,-3.0406628192,-5.6370506967\H,0,-5.5210755995,-5.60209767
 34,-6.2130600919\H,0,-4.3456903869,-2.6671370149,-9.1297775038\H,0,-5.
 0702904015,-7.4071572635,-7.8402843279\H,0,-3.8418632119,-4.4759975749
 ,-10.7468403463\H,0,-4.1980668147,-6.8584384923,-10.1075003788\N,0,-7.
 9553352356,-0.7568690483,-5.2404834806\C,0,-9.2302026263,-0.8224971501
 ,-5.9477027067\C,0,-9.1590523501,-0.3951993719,-7.4244042229\O,0,-10.0
 624759974,-0.7447333766,-8.1942510139\C,0,-10.274748248,0.0660399383,-
 5.2321582975\C,0,-9.8833992205,1.5434675771,-5.237550772\N,0,-10.82343
 86397,2.4149689778,-5.649310127\O,0,-8.7551078863,1.9133049491,-4.8830
 213397\H,0,-7.8751043425,0.0023157262,-4.5715810692\H,0,-9.6075542086,
 -1.8479181892,-5.9486273195\H,0,-10.3665108481,-0.2555163465,-4.188117
 139\H,0,-11.2391354188,-0.0979685391,-5.7198608728\H,0,-10.6214842264,
 3.406018653,-5.6114899917\H,0,-11.7496821305,2.1255069682,-5.928380875
 5\N,0,-8.1196399858,0.3930779914,-7.7571849956\C,0,-7.6983745113,0.663
 1073076,-9.1389335134\C,0,-6.4624829194,-0.2674324481,-9.3623803638\O,
 0,-5.3429862153,0.0793668556,-8.9130850722\C,0,-7.5788343215,2.1698149
 617,-9.4384672384\C,0,-6.4736631034,3.0379148095,-8.8047370713\C,0,-6.
 3560020599,3.008356912,-7.2725103151\N,0,-5.579548169,1.8202927791,-6.
 8952298471\C,0,-5.2539581769,1.4258477748,-5.6707690061\N,0,-5.8514198
 261,1.9430239633,-4.5837427269\N,0,-4.2676569871,0.5134323544,-5.50714
 52521\O,0,-6.7159894777,-1.4045080174,-9.8701415066\H,0,-7.4296912103,
 0.5426818827,-7.0322928113\H,0,-8.5115848887,0.2918351563,-9.764415574
 3\H,0,-7.482828976,2.2686520748,-10.5266246765\H,0,-8.5542390788,2.600
 3495126,-9.1757673699\H,0,-5.4989227398,2.7830545747,-9.2347805415\H,0
 ,-6.6777687897,4.0727381037,-9.1005637006\H,0,-5.8296439062,3.89865920
 47,-6.9102361157\H,0,-7.3471722934,2.9882839155,-6.8018931952\H,0,-5.3
 009850294,1.2038642362,-7.6907216683\H,0,-5.5495310576,1.612156221,-3.
 6771325698\H,0,-6.811994613,2.2709105923,-4.6498089312\H,0,-4.45762879
 24,-0.229526642,-4.835020867\H,0,-3.7863212131,0.2132932012,-6.3464967
 887\\Version=ES64L-G16RevC.01\HF=-1917.5425695\RMSD=7.989e-09\Dipole=-
 0.9988076,1.9039835,0.5835498\Quadrupole=65.1262268,-111.3718786,46.24
 56518,-5.2885147,198.738279,39.4728554\PG=C01 [X(C23H36N9O7)]\\@
 The archive entry for this job was punched.


 ON INDUCTION, OR "WHY DO YOU BELIEVE THE SUN WILL RISE TOMORROW?":

 ... THE FARMER WHO HAS FED THE CHICKEN EVERY DAY THROUGHOUT ITS
 LIFE AT LAST WRINGS ITS NECK INSTEAD, SHOWING THAT MORE REFINED VIEWS
 AS TO THE UNIFORMITY OF NATURE WOULD HAVE BEEN USEFUL TO THE CHICKEN.

                               -- BERTRAND RUSSELL
 Job cpu time:       0 days  0 hours  2 minutes  3.5 seconds.
 Elapsed time:       0 days  0 hours  0 minutes 31.5 seconds.
 File lengths (MBytes):  RWF=    344 Int=      0 D2E=      0 Chk=     48 Scr=     16
 Normal termination of Gaussian 16 at Fri Jun  3 06:00:33 2022.
