 Entering Gaussian System, Link 0=/opt/software/Gaussian/g16-AVX2-C.01/g16/g16
 Input=charge-conf-617.com
 Output=charge-conf-617.log
 Initial command:
 /opt/software/Gaussian/g16-AVX2-C.01/g16/l1.exe "/mnt/gs18/scratch/users/kengmith/Gau-118297.inp" -scrdir="/mnt/gs18/scratch/users/kengmith/"
 Entering Link 1 = /opt/software/Gaussian/g16-AVX2-C.01/g16/l1.exe PID=    118321.
  
 Copyright (c) 1988-2019, Gaussian, Inc.  All Rights Reserved.
  
 This is part of the Gaussian(R) 16 program.  It is based on
 the Gaussian(R) 09 system (copyright 2009, Gaussian, Inc.),
 the Gaussian(R) 03 system (copyright 2003, Gaussian, Inc.),
 the Gaussian(R) 98 system (copyright 1998, Gaussian, Inc.),
 the Gaussian(R) 94 system (copyright 1995, Gaussian, Inc.),
 the Gaussian 92(TM) system (copyright 1992, Gaussian, Inc.),
 the Gaussian 90(TM) system (copyright 1990, Gaussian, Inc.),
 the Gaussian 88(TM) system (copyright 1988, Gaussian, Inc.),
 the Gaussian 86(TM) system (copyright 1986, Carnegie Mellon
 University), and the Gaussian 82(TM) system (copyright 1983,
 Carnegie Mellon University). Gaussian is a federally registered
 trademark of Gaussian, Inc.
  
 This software contains proprietary and confidential information,
 including trade secrets, belonging to Gaussian, Inc.
  
 This software is provided under written license and may be
 used, copied, transmitted, or stored only in accord with that
 written license.
  
 The following legend is applicable only to US Government
 contracts under FAR:
  
                    RESTRICTED RIGHTS LEGEND
  
 Use, reproduction and disclosure by the US Government is
 subject to restrictions as set forth in subparagraphs (a)
 and (c) of the Commercial Computer Software - Restricted
 Rights clause in FAR 52.227-19.
  
 Gaussian, Inc.
 340 Quinnipiac St., Bldg. 40, Wallingford CT 06492
  
  
 ---------------------------------------------------------------
 Warning -- This program may not be used in any manner that
 competes with the business of Gaussian, Inc. or will provide
 assistance to any competitor of Gaussian, Inc.  The licensee
 of this program is prohibited from giving any competitor of
 Gaussian, Inc. access to this program.  By using this program,
 the user acknowledges that Gaussian, Inc. is engaged in the
 business of creating and licensing software in the field of
 computational chemistry and represents and warrants to the
 licensee that it is not a competitor of Gaussian, Inc. and that
 it will not use this program in any manner prohibited above.
 ---------------------------------------------------------------
  

 Cite this work as:
 Gaussian 16, Revision C.01,
 M. J. Frisch, G. W. Trucks, H. B. Schlegel, G. E. Scuseria, 
 M. A. Robb, J. R. Cheeseman, G. Scalmani, V. Barone, 
 G. A. Petersson, H. Nakatsuji, X. Li, M. Caricato, A. V. Marenich, 
 J. Bloino, B. G. Janesko, R. Gomperts, B. Mennucci, H. P. Hratchian, 
 J. V. Ortiz, A. F. Izmaylov, J. L. Sonnenberg, D. Williams-Young, 
 F. Ding, F. Lipparini, F. Egidi, J. Goings, B. Peng, A. Petrone, 
 T. Henderson, D. Ranasinghe, V. G. Zakrzewski, J. Gao, N. Rega, 
 G. Zheng, W. Liang, M. Hada, M. Ehara, K. Toyota, R. Fukuda, 
 J. Hasegawa, M. Ishida, T. Nakajima, Y. Honda, O. Kitao, H. Nakai, 
 T. Vreven, K. Throssell, J. A. Montgomery, Jr., J. E. Peralta, 
 F. Ogliaro, M. J. Bearpark, J. J. Heyd, E. N. Brothers, K. N. Kudin, 
 V. N. Staroverov, T. A. Keith, R. Kobayashi, J. Normand, 
 K. Raghavachari, A. P. Rendell, J. C. Burant, S. S. Iyengar, 
 J. Tomasi, M. Cossi, J. M. Millam, M. Klene, C. Adamo, R. Cammi, 
 J. W. Ochterski, R. L. Martin, K. Morokuma, O. Farkas, 
 J. B. Foresman, and D. J. Fox, Gaussian, Inc., Wallingford CT, 2019.
 
 ******************************************
 Gaussian 16:  ES64L-G16RevC.01  3-Jul-2019
                 3-Jun-2022 
 ******************************************
 %mem=8gb
 %nproc=4
 Will use up to    4 processors via shared memory.
 %chk=conf-617.chk
 ----------------------------------------------------------------------
 # B3LYP/6-31G* empiricaldispersion=gd3 guess=read geom=check nosymm in
 tegral(ultrafinegrid)
 ----------------------------------------------------------------------
 1/29=2,38=1,172=1/1;
 2/12=2,15=1,40=1/2;
 3/5=1,6=6,7=1,11=2,14=-4,25=1,30=1,74=-5,75=-5,116=-2,124=31/1,2,3;
 4/5=1/1;
 5/5=2,38=6/2;
 6/7=2,8=2,9=2,10=2,28=1/1;
 99/5=1,9=1/99;
 ------------------------------------------------------
 Candidate Structure: Conf:617 Charge calc in gas phase
 ------------------------------------------------------
 Structure from the checkpoint file:  "conf-617.chk"
 Charge =  1 Multiplicity = 1
 Redundant internal coordinates found in file.  (old form).
 N,0,-9.2730038006,1.0013682009,-5.6491951019
 C,0,-9.8251079228,-0.3985459132,-5.5626120357
 C,0,-8.7161604264,-1.4402879165,-5.275710086
 O,0,-8.4579369413,-1.6926627487,-4.103473845
 C,0,-10.723204422,-0.6569281226,-6.7749688407
 C,0,-11.9033233712,0.3204980521,-6.7825650708
 N,0,-12.9191050986,0.0074917037,-7.6166878388
 O,0,-11.9183333132,1.3291309778,-6.0735647962
 H,0,-8.9251769768,1.2008591905,-6.6262416166
 H,0,-10.4268795041,-0.4142071313,-4.6521570138
 H,0,-10.1595402842,-0.5246356178,-7.7073580737
 H,0,-11.0877979886,-1.6889973203,-6.7329241263
 H,0,-13.6936200171,0.65307742,-7.6966153284
 H,0,-12.8989848034,-0.7996487943,-8.2218922385
 H,0,-10.0715024083,1.6311085372,-5.4736999651
 H,0,-8.4809647525,1.1356936271,-5.0107578834
 N,0,-8.1380669617,-2.0767179261,-6.3293917332
 C,0,-7.3312561719,-3.2744108733,-6.1028981769
 C,0,-5.9738933613,-3.2119161531,-6.8183875096
 O,0,-5.7061654276,-3.971502897,-7.7547888386
 C,0,-8.1021839745,-4.5757197589,-6.4357327203
 C,0,-8.5083615385,-4.8323878285,-7.8756859996
 C,0,-9.4164921089,-4.0058845489,-8.5535156273
 C,0,-8.0186711831,-5.9618839534,-8.5481905669
 C,0,-9.8114737821,-4.288794649,-9.8622607342
 C,0,-8.4269297716,-6.2641473552,-9.8482028219
 C,0,-9.3250938187,-5.4242102172,-10.5153945474
 H,0,-8.2079025143,-1.7073822182,-7.2833656589
 H,0,-7.137576929,-3.2948053674,-5.0258065749
 H,0,-7.4900851047,-5.4127653357,-6.0843217497
 H,0,-8.9985604943,-4.5583484966,-5.8032120367
 H,0,-9.8283802342,-3.1364701122,-8.0541974242
 H,0,-7.3073276965,-6.6107250789,-8.045320591
 H,0,-10.5135049082,-3.6300579162,-10.3664354519
 H,0,-8.0482005145,-7.1580592488,-10.3366300182
 H,0,-9.6582679103,-5.6637419574,-11.5218399332
 N,0,-5.021044933,-2.3571222675,-6.3647915615
 C,0,-5.1461986404,-1.2353557287,-5.4417324756
 C,0,-5.7708761486,0.0147704835,-6.0987912121
 O,0,-6.5954380248,0.6869998706,-5.4707682724
 C,0,-3.7822299912,-0.9191023589,-4.7996335297
 C,0,-2.6852776628,-0.5641842382,-5.8097347891
 N,0,-1.6047072874,0.0602281815,-5.2956176019
 O,0,-2.7632612961,-0.8510844747,-7.0103119971
 H,0,-4.175689322,-2.3563755073,-6.9303317836
 H,0,-5.8447187154,-1.4932313518,-4.6413337189
 H,0,-3.4462038406,-1.7962713283,-4.2320553269
 H,0,-3.9157729209,-0.1022234327,-4.0815959124
 H,0,-0.8218976743,0.255129535,-5.906070531
 H,0,-1.5170761049,0.2842721031,-4.3149475999
 N,0,-5.4033156494,0.2989277194,-7.3643741807
 C,0,-6.2286189129,1.1884588662,-8.1805209461
 C,0,-7.5895059696,0.4778140419,-8.4448628835
 O,0,-7.5594373254,-0.7577077012,-8.7378339273
 C,0,-5.5045552971,1.6917363236,-9.4431511806
 C,0,-5.3723752661,0.771089433,-10.6723649748
 C,0,-4.5621694702,-0.5311547731,-10.4826238046
 N,0,-5.40094679,-1.6706836469,-10.1067840675
 C,0,-5.7880861542,-2.647171667,-10.9344093453
 N,0,-5.5370280158,-2.6070516826,-12.2618672655
 N,0,-6.4100219471,-3.7094618569,-10.4263534044
 O,0,-8.630276817,1.1579924891,-8.2708510542
 H,0,-4.6630443451,-0.2565881129,-7.7716227551
 H,0,-6.453702535,2.0624018861,-7.5660101912
 H,0,-6.0468417552,2.585489275,-9.7706863659
 H,0,-4.5058362389,2.0315002351,-9.1378704345
 H,0,-6.367650332,0.5112169401,-11.0532929368
 H,0,-4.8843300199,1.3670536939,-11.4529649819
 H,0,-4.0137100106,-0.7885816369,-11.3925217729
 H,0,-3.7927333581,-0.4060748519,-9.7104858454
 H,0,-6.0887357108,-1.4717256511,-9.3530943186
 H,0,-5.614217507,-3.443515301,-12.8208619304
 H,0,-5.3603049236,-1.7378074203,-12.7403239154
 H,0,-7.0413388833,-4.2771522243,-10.9749898483
 H,0,-6.3652707062,-3.8866320257,-9.4182484216
 Recover connectivity data from disk.
                           ----------------------------
                           !    Current Parameters    !
                           ! (Angstroms and Degrees)  !
 --------------------------                            --------------------------
 ! Name  Definition              Value                                          !
 --------------------------------------------------------------------------------
 ! R1    R(1,2)                  1.5073                                         !
 ! R2    R(1,9)                  1.0561                                         !
 ! R3    R(1,15)                 1.032                                          !
 ! R4    R(1,16)                 1.0261                                         !
 ! R5    R(2,3)                  1.5483                                         !
 ! R6    R(2,5)                  1.5307                                         !
 ! R7    R(2,10)                 1.0915                                         !
 ! R8    R(3,4)                  1.2266                                         !
 ! R9    R(3,17)                 1.36                                           !
 ! R10   R(5,6)                  1.5324                                         !
 ! R11   R(5,11)                 1.0975                                         !
 ! R12   R(5,12)                 1.0954                                         !
 ! R13   R(6,7)                  1.3511                                         !
 ! R14   R(6,8)                  1.233                                          !
 ! R15   R(7,13)                 1.0115                                         !
 ! R16   R(7,14)                 1.009                                          !
 ! R17   R(17,18)                1.4617                                         !
 ! R18   R(17,28)                1.0254                                         !
 ! R19   R(18,19)                1.5357                                         !
 ! R20   R(18,21)                1.5487                                         !
 ! R21   R(18,29)                1.0946                                         !
 ! R22   R(19,20)                1.2351                                         !
 ! R23   R(19,37)                1.3581                                         !
 ! R24   R(21,22)                1.518                                          !
 ! R25   R(21,30)                1.0949                                         !
 ! R26   R(21,31)                1.0972                                         !
 ! R27   R(22,23)                1.4026                                         !
 ! R28   R(22,24)                1.4028                                         !
 ! R29   R(23,25)                1.396                                          !
 ! R30   R(23,32)                1.0839                                         !
 ! R31   R(24,26)                1.3957                                         !
 ! R32   R(24,33)                1.0862                                         !
 ! R33   R(25,27)                1.3973                                         !
 ! R34   R(25,34)                1.0867                                         !
 ! R35   R(26,27)                1.399                                          !
 ! R36   R(26,35)                1.0868                                         !
 ! R37   R(27,36)                1.0869                                         !
 ! R38   R(37,38)                1.4581                                         !
 ! R39   R(37,45)                1.0171                                         !
 ! R40   R(38,39)                1.5443                                         !
 ! R41   R(38,41)                1.5404                                         !
 ! R42   R(38,46)                1.0932                                         !
 ! R43   R(39,40)                1.2354                                         !
 ! R44   R(39,51)                1.3482                                         !
 ! R45   R(41,42)                1.5328                                         !
 ! R46   R(41,47)                1.0975                                         !
 ! R47   R(41,48)                1.0958                                         !
 ! R48   R(42,43)                1.3498                                         !
 ! R49   R(42,44)                1.2368                                         !
 ! R50   R(43,49)                1.0116                                         !
 ! R51   R(43,50)                1.0097                                         !
 ! R52   R(51,52)                1.4624                                         !
 ! R53   R(51,63)                1.0112                                         !
 ! R54   R(52,53)                1.5579                                         !
 ! R55   R(52,55)                1.5401                                         !
 ! R56   R(52,64)                1.0918                                         !
 ! R57   R(53,54)                1.2701                                         !
 ! R58   R(53,62)                1.2554                                         !
 ! R59   R(55,56)                1.5414                                         !
 ! R60   R(55,65)                1.0955                                         !
 ! R61   R(55,66)                1.0982                                         !
 ! R62   R(56,57)                1.5454                                         !
 ! R63   R(56,67)                1.0969                                         !
 ! R64   R(56,68)                1.0967                                         !
 ! R65   R(57,58)                1.464                                          !
 ! R66   R(57,69)                1.0932                                         !
 ! R67   R(57,70)                1.0972                                         !
 ! R68   R(58,59)                1.3373                                         !
 ! R69   R(58,71)                1.0396                                         !
 ! R70   R(59,60)                1.3516                                         !
 ! R71   R(59,61)                1.3317                                         !
 ! R72   R(60,72)                1.009                                          !
 ! R73   R(60,73)                1.0078                                         !
 ! R74   R(61,74)                1.0109                                         !
 ! R75   R(61,75)                1.0245                                         !
 ! A1    A(2,1,9)              110.4383                                         !
 ! A2    A(2,1,15)             105.8762                                         !
 ! A3    A(2,1,16)             111.6262                                         !
 ! A4    A(9,1,15)             107.2709                                         !
 ! A5    A(9,1,16)             107.2567                                         !
 ! A6    A(15,1,16)            114.302                                          !
 ! A7    A(1,2,3)              111.9116                                         !
 ! A8    A(1,2,5)              109.0365                                         !
 ! A9    A(1,2,10)             105.2591                                         !
 ! A10   A(3,2,5)              116.9623                                         !
 ! A11   A(3,2,10)             103.3361                                         !
 ! A12   A(5,2,10)             109.558                                          !
 ! A13   A(2,3,4)              117.7947                                         !
 ! A14   A(2,3,17)             118.4083                                         !
 ! A15   A(4,3,17)             123.6889                                         !
 ! A16   A(2,5,6)              110.3714                                         !
 ! A17   A(2,5,11)             110.5592                                         !
 ! A18   A(2,5,12)             108.9004                                         !
 ! A19   A(6,5,11)             108.3262                                         !
 ! A20   A(6,5,12)             110.1724                                         !
 ! A21   A(11,5,12)            108.4888                                         !
 ! A22   A(5,6,7)              115.7396                                         !
 ! A23   A(5,6,8)              121.8921                                         !
 ! A24   A(7,6,8)              122.3679                                         !
 ! A25   A(6,7,13)             118.4641                                         !
 ! A26   A(6,7,14)             122.7244                                         !
 ! A27   A(13,7,14)            118.5833                                         !
 ! A28   A(3,17,18)            119.8686                                         !
 ! A29   A(3,17,28)            121.5562                                         !
 ! A30   A(18,17,28)           118.4823                                         !
 ! A31   A(17,18,19)           112.4779                                         !
 ! A32   A(17,18,21)           112.3593                                         !
 ! A33   A(17,18,29)           105.3912                                         !
 ! A34   A(19,18,21)           111.9659                                         !
 ! A35   A(19,18,29)           107.628                                          !
 ! A36   A(21,18,29)           106.4935                                         !
 ! A37   A(18,19,20)           121.3191                                         !
 ! A38   A(18,19,37)           119.3509                                         !
 ! A39   A(20,19,37)           119.2242                                         !
 ! A40   A(18,21,22)           118.6285                                         !
 ! A41   A(18,21,30)           107.164                                          !
 ! A42   A(18,21,31)           105.6331                                         !
 ! A43   A(22,21,30)           108.9519                                         !
 ! A44   A(22,21,31)           109.3247                                         !
 ! A45   A(30,21,31)           106.487                                          !
 ! A46   A(21,22,23)           122.1429                                         !
 ! A47   A(21,22,24)           119.8343                                         !
 ! A48   A(23,22,24)           117.9567                                         !
 ! A49   A(22,23,25)           121.1199                                         !
 ! A50   A(22,23,32)           119.7406                                         !
 ! A51   A(25,23,32)           119.1373                                         !
 ! A52   A(22,24,26)           121.2511                                         !
 ! A53   A(22,24,33)           119.1847                                         !
 ! A54   A(26,24,33)           119.5641                                         !
 ! A55   A(23,25,27)           120.2921                                         !
 ! A56   A(23,25,34)           119.6612                                         !
 ! A57   A(27,25,34)           120.0385                                         !
 ! A58   A(24,26,27)           120.1291                                         !
 ! A59   A(24,26,35)           119.6567                                         !
 ! A60   A(27,26,35)           120.2131                                         !
 ! A61   A(25,27,26)           119.2363                                         !
 ! A62   A(25,27,36)           120.3464                                         !
 ! A63   A(26,27,36)           120.4031                                         !
 ! A64   A(19,37,38)           129.4536                                         !
 ! A65   A(19,37,45)           113.447                                          !
 ! A66   A(38,37,45)           115.0102                                         !
 ! A67   A(37,38,39)           112.8402                                         !
 ! A68   A(37,38,41)           110.2329                                         !
 ! A69   A(37,38,46)           109.6861                                         !
 ! A70   A(39,38,41)           111.6754                                         !
 ! A71   A(39,38,46)           104.1234                                         !
 ! A72   A(41,38,46)           108.0007                                         !
 ! A73   A(38,39,40)           119.6164                                         !
 ! A74   A(38,39,51)           117.3717                                         !
 ! A75   A(40,39,51)           122.9904                                         !
 ! A76   A(38,41,42)           113.9871                                         !
 ! A77   A(38,41,47)           108.8201                                         !
 ! A78   A(38,41,48)           108.5599                                         !
 ! A79   A(42,41,47)           107.8633                                         !
 ! A80   A(42,41,48)           110.2685                                         !
 ! A81   A(47,41,48)           107.113                                          !
 ! A82   A(41,42,43)           115.406                                          !
 ! A83   A(41,42,44)           122.7398                                         !
 ! A84   A(43,42,44)           121.8376                                         !
 ! A85   A(42,43,49)           118.6044                                         !
 ! A86   A(42,43,50)           122.8233                                         !
 ! A87   A(49,43,50)           118.4341                                         !
 ! A88   A(39,51,52)           119.885                                          !
 ! A89   A(39,51,63)           117.5088                                         !
 ! A90   A(52,51,63)           121.5052                                         !
 ! A91   A(51,52,53)           108.0731                                         !
 ! A92   A(51,52,55)           113.0173                                         !
 ! A93   A(51,52,64)           106.8058                                         !
 ! A94   A(53,52,55)           114.8765                                         !
 ! A95   A(53,52,64)           106.2933                                         !
 ! A96   A(55,52,64)           107.2648                                         !
 ! A97   A(52,53,54)           117.5289                                         !
 ! A98   A(52,53,62)           116.9703                                         !
 ! A99   A(54,53,62)           125.3533                                         !
 ! A100  A(52,55,56)           119.9291                                         !
 ! A101  A(52,55,65)           106.2003                                         !
 ! A102  A(52,55,66)           107.503                                          !
 ! A103  A(56,55,65)           106.9355                                         !
 ! A104  A(56,55,66)           109.1761                                         !
 ! A105  A(65,55,66)           106.3121                                         !
 ! A106  A(55,56,57)           116.7653                                         !
 ! A107  A(55,56,67)           109.915                                          !
 ! A108  A(55,56,68)           106.332                                          !
 ! A109  A(57,56,67)           108.5839                                         !
 ! A110  A(57,56,68)           108.18                                           !
 ! A111  A(67,56,68)           106.5797                                         !
 ! A112  A(56,57,58)           112.7705                                         !
 ! A113  A(56,57,69)           111.0558                                         !
 ! A114  A(56,57,70)           110.9769                                         !
 ! A115  A(58,57,69)           108.5322                                         !
 ! A116  A(58,57,70)           108.05                                           !
 ! A117  A(69,57,70)           105.1151                                         !
 ! A118  A(57,58,59)           125.1232                                         !
 ! A119  A(57,58,71)           114.5959                                         !
 ! A120  A(59,58,71)           113.385                                          !
 ! A121  A(58,59,60)           122.1665                                         !
 ! A122  A(58,59,61)           118.788                                          !
 ! A123  A(60,59,61)           119.0212                                         !
 ! A124  A(59,60,72)           120.3509                                         !
 ! A125  A(59,60,73)           121.6301                                         !
 ! A126  A(72,60,73)           117.7363                                         !
 ! A127  A(59,61,74)           122.1811                                         !
 ! A128  A(59,61,75)           119.5341                                         !
 ! A129  A(74,61,75)           117.6588                                         !
 ! D1    D(9,1,2,3)             85.5348                                         !
 ! D2    D(9,1,2,5)            -45.4432                                         !
 ! D3    D(9,1,2,10)          -162.9075                                         !
 ! D4    D(15,1,2,3)          -158.6553                                         !
 ! D5    D(15,1,2,5)            70.3667                                         !
 ! D6    D(15,1,2,10)          -47.0976                                         !
 ! D7    D(16,1,2,3)           -33.694                                          !
 ! D8    D(16,1,2,5)          -164.6719                                         !
 ! D9    D(16,1,2,10)           77.8637                                         !
 ! D10   D(1,2,3,4)             89.6414                                         !
 ! D11   D(1,2,3,17)           -93.9972                                         !
 ! D12   D(5,2,3,4)           -143.5563                                         !
 ! D13   D(5,2,3,17)            32.8052                                         !
 ! D14   D(10,2,3,4)           -23.1198                                         !
 ! D15   D(10,2,3,17)          153.2417                                         !
 ! D16   D(1,2,5,6)            -61.4049                                         !
 ! D17   D(1,2,5,11)            58.4292                                         !
 ! D18   D(1,2,5,12)           177.5339                                         !
 ! D19   D(3,2,5,6)            170.3936                                         !
 ! D20   D(3,2,5,11)           -69.7723                                         !
 ! D21   D(3,2,5,12)            49.3324                                         !
 ! D22   D(10,2,5,6)            53.3057                                         !
 ! D23   D(10,2,5,11)          173.1398                                         !
 ! D24   D(10,2,5,12)          -67.7554                                         !
 ! D25   D(2,3,17,18)         -165.4789                                         !
 ! D26   D(2,3,17,28)           18.0792                                         !
 ! D27   D(4,3,17,18)           10.6523                                         !
 ! D28   D(4,3,17,28)         -165.7896                                         !
 ! D29   D(2,5,6,7)           -165.6161                                         !
 ! D30   D(2,5,6,8)             14.5887                                         !
 ! D31   D(11,5,6,7)            73.2117                                         !
 ! D32   D(11,5,6,8)          -106.5834                                         !
 ! D33   D(12,5,6,7)           -45.3157                                         !
 ! D34   D(12,5,6,8)           134.8891                                         !
 ! D35   D(5,6,7,13)          -176.3319                                         !
 ! D36   D(5,6,7,14)            -1.9037                                         !
 ! D37   D(8,6,7,13)             3.4621                                         !
 ! D38   D(8,6,7,14)           177.8904                                         !
 ! D39   D(3,17,18,19)        -131.1492                                         !
 ! D40   D(3,17,18,21)         101.4119                                         !
 ! D41   D(3,17,18,29)         -14.1598                                         !
 ! D42   D(28,17,18,19)         45.4014                                         !
 ! D43   D(28,17,18,21)        -82.0374                                         !
 ! D44   D(28,17,18,29)        162.3909                                         !
 ! D45   D(17,18,19,20)       -112.9131                                         !
 ! D46   D(17,18,19,37)         70.8577                                         !
 ! D47   D(21,18,19,20)         14.7342                                         !
 ! D48   D(21,18,19,37)       -161.495                                          !
 ! D49   D(29,18,19,20)        131.4379                                         !
 ! D50   D(29,18,19,37)        -44.7913                                         !
 ! D51   D(17,18,21,22)         65.3629                                         !
 ! D52   D(17,18,21,30)       -170.8675                                         !
 ! D53   D(17,18,21,31)        -57.6099                                         !
 ! D54   D(19,18,21,22)        -62.3478                                         !
 ! D55   D(19,18,21,30)         61.4218                                         !
 ! D56   D(19,18,21,31)        174.6793                                         !
 ! D57   D(29,18,21,22)       -179.7335                                         !
 ! D58   D(29,18,21,30)        -55.9639                                         !
 ! D59   D(29,18,21,31)         57.2937                                         !
 ! D60   D(18,19,37,38)        -14.7044                                         !
 ! D61   D(18,19,37,45)       -177.2125                                         !
 ! D62   D(20,19,37,38)        168.9866                                         !
 ! D63   D(20,19,37,45)          6.4785                                         !
 ! D64   D(18,21,22,23)        -64.1641                                         !
 ! D65   D(18,21,22,24)        118.8545                                         !
 ! D66   D(30,21,22,23)        172.9529                                         !
 ! D67   D(30,21,22,24)         -4.0284                                         !
 ! D68   D(31,21,22,23)         56.9512                                         !
 ! D69   D(31,21,22,24)       -120.0302                                         !
 ! D70   D(21,22,23,25)       -177.7004                                         !
 ! D71   D(21,22,23,32)          1.7451                                         !
 ! D72   D(24,22,23,25)         -0.6649                                         !
 ! D73   D(24,22,23,32)        178.7806                                         !
 ! D74   D(21,22,24,26)        176.6338                                         !
 ! D75   D(21,22,24,33)         -3.4526                                         !
 ! D76   D(23,22,24,26)         -0.4727                                         !
 ! D77   D(23,22,24,33)        179.4409                                         !
 ! D78   D(22,23,25,27)          1.277                                          !
 ! D79   D(22,23,25,34)       -179.7584                                         !
 ! D80   D(32,23,25,27)       -178.1719                                         !
 ! D81   D(32,23,25,34)          0.7928                                         !
 ! D82   D(22,24,26,27)          1.0036                                         !
 ! D83   D(22,24,26,35)       -178.628                                          !
 ! D84   D(33,24,26,27)       -178.9096                                         !
 ! D85   D(33,24,26,35)          1.4587                                         !
 ! D86   D(23,25,27,26)         -0.7334                                         !
 ! D87   D(23,25,27,36)        177.8981                                         !
 ! D88   D(34,25,27,26)       -179.6941                                         !
 ! D89   D(34,25,27,36)         -1.0626                                         !
 ! D90   D(24,26,27,25)         -0.3894                                         !
 ! D91   D(24,26,27,36)       -179.02                                           !
 ! D92   D(35,26,27,25)        179.2402                                         !
 ! D93   D(35,26,27,36)          0.6095                                         !
 ! D94   D(19,37,38,39)        -76.7537                                         !
 ! D95   D(19,37,38,41)        157.6289                                         !
 ! D96   D(19,37,38,46)         38.8346                                         !
 ! D97   D(45,37,38,39)         85.5312                                         !
 ! D98   D(45,37,38,41)        -40.0862                                         !
 ! D99   D(45,37,38,46)       -158.8806                                         !
 ! D100  D(37,38,39,40)        139.1355                                         !
 ! D101  D(37,38,39,51)        -39.2263                                         !
 ! D102  D(41,38,39,40)        -96.0295                                         !
 ! D103  D(41,38,39,51)         85.6087                                         !
 ! D104  D(46,38,39,40)         20.2605                                         !
 ! D105  D(46,38,39,51)       -158.1013                                         !
 ! D106  D(37,38,41,42)         59.0365                                         !
 ! D107  D(37,38,41,47)        -61.3849                                         !
 ! D108  D(37,38,41,48)       -177.6399                                         !
 ! D109  D(39,38,41,42)        -67.2383                                         !
 ! D110  D(39,38,41,47)        172.3402                                         !
 ! D111  D(39,38,41,48)         56.0852                                         !
 ! D112  D(46,38,41,42)        178.8556                                         !
 ! D113  D(46,38,41,47)         58.4341                                         !
 ! D114  D(46,38,41,48)        -57.8209                                         !
 ! D115  D(38,39,51,52)        161.2509                                         !
 ! D116  D(38,39,51,63)         -6.936                                          !
 ! D117  D(40,39,51,52)        -17.0511                                         !
 ! D118  D(40,39,51,63)        174.7619                                         !
 ! D119  D(38,41,42,43)        162.7674                                         !
 ! D120  D(38,41,42,44)        -18.6955                                         !
 ! D121  D(47,41,42,43)        -76.2766                                         !
 ! D122  D(47,41,42,44)        102.2605                                         !
 ! D123  D(48,41,42,43)         40.3762                                         !
 ! D124  D(48,41,42,44)       -141.0866                                         !
 ! D125  D(41,42,43,49)        175.5111                                         !
 ! D126  D(41,42,43,50)         -0.1453                                         !
 ! D127  D(44,42,43,49)         -3.0405                                         !
 ! D128  D(44,42,43,50)       -178.697                                          !
 ! D129  D(39,51,52,53)        -66.4293                                         !
 ! D130  D(39,51,52,55)        165.2978                                         !
 ! D131  D(39,51,52,64)         47.5773                                         !
 ! D132  D(63,51,52,53)        101.2745                                         !
 ! D133  D(63,51,52,55)        -26.9984                                         !
 ! D134  D(63,51,52,64)       -144.7189                                         !
 ! D135  D(51,52,53,54)        -42.6829                                         !
 ! D136  D(51,52,53,62)        133.142                                          !
 ! D137  D(55,52,53,54)         84.5231                                         !
 ! D138  D(55,52,53,62)        -99.652                                          !
 ! D139  D(64,52,53,54)       -157.0288                                         !
 ! D140  D(64,52,53,62)         18.7961                                         !
 ! D141  D(51,52,55,56)         78.3016                                         !
 ! D142  D(51,52,55,65)       -160.5486                                         !
 ! D143  D(51,52,55,66)        -47.0763                                         !
 ! D144  D(53,52,55,56)        -46.3459                                         !
 ! D145  D(53,52,55,65)         74.8039                                         !
 ! D146  D(53,52,55,66)       -171.7239                                         !
 ! D147  D(64,52,55,56)       -164.247                                          !
 ! D148  D(64,52,55,65)        -43.0973                                         !
 ! D149  D(64,52,55,66)         70.375                                          !
 ! D150  D(52,55,56,57)        -62.7556                                         !
 ! D151  D(52,55,56,67)         61.4642                                         !
 ! D152  D(52,55,56,68)        176.4518                                         !
 ! D153  D(65,55,56,57)        176.4591                                         !
 ! D154  D(65,55,56,67)        -59.3211                                         !
 ! D155  D(65,55,56,68)         55.6665                                         !
 ! D156  D(66,55,56,57)         61.8298                                         !
 ! D157  D(66,55,56,67)       -173.9504                                         !
 ! D158  D(66,55,56,68)        -58.9629                                         !
 ! D159  D(55,56,57,58)         92.5578                                         !
 ! D160  D(55,56,57,69)       -145.3716                                         !
 ! D161  D(55,56,57,70)        -28.8298                                         !
 ! D162  D(67,56,57,58)        -32.337                                          !
 ! D163  D(67,56,57,69)         89.7336                                         !
 ! D164  D(67,56,57,70)       -153.7245                                         !
 ! D165  D(68,56,57,58)       -147.6319                                         !
 ! D166  D(68,56,57,69)        -25.5613                                         !
 ! D167  D(68,56,57,70)         90.9806                                         !
 ! D168  D(56,57,58,59)        102.6273                                         !
 ! D169  D(56,57,58,71)        -46.2075                                         !
 ! D170  D(69,57,58,59)        -20.8541                                         !
 ! D171  D(69,57,58,71)       -169.6889                                         !
 ! D172  D(70,57,58,59)       -134.3386                                         !
 ! D173  D(70,57,58,71)         76.8267                                         !
 ! D174  D(57,58,59,60)         -6.4691                                         !
 ! D175  D(57,58,59,61)        171.7185                                         !
 ! D176  D(71,58,59,60)        142.6895                                         !
 ! D177  D(71,58,59,61)        -39.1229                                         !
 ! D178  D(58,59,60,72)        163.7548                                         !
 ! D179  D(58,59,60,73)        -22.4905                                         !
 ! D180  D(61,59,60,72)        -14.4288                                         !
 ! D181  D(61,59,60,73)        159.3259                                         !
 ! D182  D(58,59,61,74)        154.6392                                         !
 ! D183  D(58,59,61,75)        -16.0749                                         !
 ! D184  D(60,59,61,74)        -27.1153                                         !
 ! D185  D(60,59,61,75)        162.1706                                         !
 --------------------------------------------------------------------------------
 Symmetry turned off by external request.
 Stoichiometry    C23H36N9O7(1+)
 Framework group  C1[X(C23H36N9O7)]
 Deg. of freedom   219
 Full point group                 C1      NOp   1
                          Input orientation:                          
 ---------------------------------------------------------------------
 Center     Atomic      Atomic             Coordinates (Angstroms)
 Number     Number       Type             X           Y           Z
 ---------------------------------------------------------------------
      1          7           0       -9.273004    1.001368   -5.649195
      2          6           0       -9.825108   -0.398546   -5.562612
      3          6           0       -8.716160   -1.440288   -5.275710
      4          8           0       -8.457937   -1.692663   -4.103474
      5          6           0      -10.723204   -0.656928   -6.774969
      6          6           0      -11.903323    0.320498   -6.782565
      7          7           0      -12.919105    0.007492   -7.616688
      8          8           0      -11.918333    1.329131   -6.073565
      9          1           0       -8.925177    1.200859   -6.626242
     10          1           0      -10.426880   -0.414207   -4.652157
     11          1           0      -10.159540   -0.524636   -7.707358
     12          1           0      -11.087798   -1.688997   -6.732924
     13          1           0      -13.693620    0.653077   -7.696615
     14          1           0      -12.898985   -0.799649   -8.221892
     15          1           0      -10.071502    1.631109   -5.473700
     16          1           0       -8.480965    1.135694   -5.010758
     17          7           0       -8.138067   -2.076718   -6.329392
     18          6           0       -7.331256   -3.274411   -6.102898
     19          6           0       -5.973893   -3.211916   -6.818388
     20          8           0       -5.706165   -3.971503   -7.754789
     21          6           0       -8.102184   -4.575720   -6.435733
     22          6           0       -8.508362   -4.832388   -7.875686
     23          6           0       -9.416492   -4.005885   -8.553516
     24          6           0       -8.018671   -5.961884   -8.548191
     25          6           0       -9.811474   -4.288795   -9.862261
     26          6           0       -8.426930   -6.264147   -9.848203
     27          6           0       -9.325094   -5.424210  -10.515395
     28          1           0       -8.207903   -1.707382   -7.283366
     29          1           0       -7.137577   -3.294805   -5.025807
     30          1           0       -7.490085   -5.412765   -6.084322
     31          1           0       -8.998560   -4.558348   -5.803212
     32          1           0       -9.828380   -3.136470   -8.054197
     33          1           0       -7.307328   -6.610725   -8.045321
     34          1           0      -10.513505   -3.630058  -10.366435
     35          1           0       -8.048201   -7.158059  -10.336630
     36          1           0       -9.658268   -5.663742  -11.521840
     37          7           0       -5.021045   -2.357122   -6.364792
     38          6           0       -5.146199   -1.235356   -5.441732
     39          6           0       -5.770876    0.014770   -6.098791
     40          8           0       -6.595438    0.687000   -5.470768
     41          6           0       -3.782230   -0.919102   -4.799634
     42          6           0       -2.685278   -0.564184   -5.809735
     43          7           0       -1.604707    0.060228   -5.295618
     44          8           0       -2.763261   -0.851084   -7.010312
     45          1           0       -4.175689   -2.356376   -6.930332
     46          1           0       -5.844719   -1.493231   -4.641334
     47          1           0       -3.446204   -1.796271   -4.232055
     48          1           0       -3.915773   -0.102223   -4.081596
     49          1           0       -0.821898    0.255130   -5.906071
     50          1           0       -1.517076    0.284272   -4.314948
     51          7           0       -5.403316    0.298928   -7.364374
     52          6           0       -6.228619    1.188459   -8.180521
     53          6           0       -7.589506    0.477814   -8.444863
     54          8           0       -7.559437   -0.757708   -8.737834
     55          6           0       -5.504555    1.691736   -9.443151
     56          6           0       -5.372375    0.771089  -10.672365
     57          6           0       -4.562169   -0.531155  -10.482624
     58          7           0       -5.400947   -1.670684  -10.106784
     59          6           0       -5.788086   -2.647172  -10.934409
     60          7           0       -5.537028   -2.607052  -12.261867
     61          7           0       -6.410022   -3.709462  -10.426353
     62          8           0       -8.630277    1.157992   -8.270851
     63          1           0       -4.663044   -0.256588   -7.771623
     64          1           0       -6.453703    2.062402   -7.566010
     65          1           0       -6.046842    2.585489   -9.770686
     66          1           0       -4.505836    2.031500   -9.137870
     67          1           0       -6.367650    0.511217  -11.053293
     68          1           0       -4.884330    1.367054  -11.452965
     69          1           0       -4.013710   -0.788582  -11.392522
     70          1           0       -3.792733   -0.406075   -9.710486
     71          1           0       -6.088736   -1.471726   -9.353094
     72          1           0       -5.614218   -3.443515  -12.820862
     73          1           0       -5.360305   -1.737807  -12.740324
     74          1           0       -7.041339   -4.277152  -10.974990
     75          1           0       -6.365271   -3.886632   -9.418248
 ---------------------------------------------------------------------
 Rotational constants (GHZ):           0.1040366           0.0927225           0.0733798
 Standard basis: 6-31G(d) (6D, 7F)
   657 basis functions,  1236 primitive gaussians,   657 cartesian basis functions
   146 alpha electrons      146 beta electrons
       nuclear repulsion energy      5183.4268113325 Hartrees.
 NAtoms=   75 NActive=   75 NUniq=   75 SFac= 1.00D+00 NAtFMM=   60 NAOKFM=T Big=T
 Integral buffers will be    131072 words long.
 Raffenetti 2 integral format.
 Two-electron integral symmetry is turned off.
 Nuclear repulsion after empirical dispersion term =     5183.3042364872 Hartrees.
 One-electron integrals computed using PRISM.
 NBasis=   657 RedAO= T EigKep=  4.45D-04  NBF=   657
 NBsUse=   657 1.00D-06 EigRej= -1.00D+00 NBFU=   657
 Initial guess from the checkpoint file:  "conf-617.chk"
 B after Tr=     0.000000    0.000000    0.000000
         Rot=    1.000000    0.000000    0.000000    0.000000 Ang=   0.00 deg.
 Requested convergence on RMS density matrix=1.00D-08 within 128 cycles.
 Requested convergence on MAX density matrix=1.00D-06.
 Requested convergence on             energy=1.00D-06.
 No special actions if energy rises.
 SCF Done:  E(RB3LYP) =  -1917.52155538     A.U. after    1 cycles
            NFock=  1  Conv=0.84D-08     -V/T= 2.0093

 **********************************************************************

            Population analysis using the SCF Density.

 **********************************************************************

 Alpha  occ. eigenvalues --  -19.23052 -19.22012 -19.21936 -19.21838 -19.21533
 Alpha  occ. eigenvalues --  -19.20148 -19.19297 -14.51476 -14.49052 -14.46835
 Alpha  occ. eigenvalues --  -14.46682 -14.46143 -14.45878 -14.45624 -14.45484
 Alpha  occ. eigenvalues --  -14.45454 -10.44015 -10.40764 -10.39556 -10.39355
 Alpha  occ. eigenvalues --  -10.39139 -10.38855 -10.37427 -10.35398 -10.34341
 Alpha  occ. eigenvalues --  -10.33369 -10.33088 -10.31645 -10.31320 -10.30427
 Alpha  occ. eigenvalues --  -10.29108 -10.28819 -10.28471 -10.28170 -10.27720
 Alpha  occ. eigenvalues --  -10.27584 -10.27524 -10.27440 -10.27145  -1.14844
 Alpha  occ. eigenvalues --   -1.14268  -1.13764  -1.13662  -1.13358  -1.12852
 Alpha  occ. eigenvalues --   -1.12387  -1.07163  -1.04235  -1.03263  -1.02251
 Alpha  occ. eigenvalues --   -1.01914  -1.01617  -1.01252  -1.00506  -1.00484
 Alpha  occ. eigenvalues --   -0.94081  -0.89785  -0.89310  -0.88609  -0.87164
 Alpha  occ. eigenvalues --   -0.83992  -0.82881  -0.82784  -0.79280  -0.78390
 Alpha  occ. eigenvalues --   -0.77185  -0.75392  -0.74523  -0.70622  -0.70322
 Alpha  occ. eigenvalues --   -0.70202  -0.69634  -0.69138  -0.68915  -0.68582
 Alpha  occ. eigenvalues --   -0.68308  -0.67081  -0.66889  -0.66035  -0.65679
 Alpha  occ. eigenvalues --   -0.64856  -0.63782  -0.63165  -0.62726  -0.62131
 Alpha  occ. eigenvalues --   -0.61031  -0.60933  -0.59755  -0.59572  -0.58796
 Alpha  occ. eigenvalues --   -0.57930  -0.57864  -0.57342  -0.56633  -0.56053
 Alpha  occ. eigenvalues --   -0.55459  -0.55112  -0.54891  -0.54125  -0.53977
 Alpha  occ. eigenvalues --   -0.53651  -0.53221  -0.53130  -0.52761  -0.51556
 Alpha  occ. eigenvalues --   -0.51146  -0.50905  -0.50799  -0.50664  -0.50511
 Alpha  occ. eigenvalues --   -0.50260  -0.49946  -0.49801  -0.49565  -0.48632
 Alpha  occ. eigenvalues --   -0.48394  -0.48082  -0.47654  -0.47016  -0.46713
 Alpha  occ. eigenvalues --   -0.46496  -0.46250  -0.45874  -0.44937  -0.44705
 Alpha  occ. eigenvalues --   -0.44127  -0.43140  -0.42409  -0.42288  -0.39416
 Alpha  occ. eigenvalues --   -0.38604  -0.38140  -0.37219  -0.36869  -0.36839
 Alpha  occ. eigenvalues --   -0.36738  -0.36306  -0.36134  -0.35984  -0.35011
 Alpha  occ. eigenvalues --   -0.34756  -0.34174  -0.34072  -0.33527  -0.32491
 Alpha  occ. eigenvalues --   -0.32343
 Alpha virt. eigenvalues --   -0.10109  -0.09762  -0.09180  -0.08984  -0.08718
 Alpha virt. eigenvalues --   -0.08611  -0.08000  -0.06940  -0.05979  -0.05084
 Alpha virt. eigenvalues --   -0.02329  -0.02306  -0.00921  -0.00200   0.00445
 Alpha virt. eigenvalues --    0.00832   0.01034   0.01346   0.02108   0.02432
 Alpha virt. eigenvalues --    0.02619   0.03269   0.03845   0.04024   0.04351
 Alpha virt. eigenvalues --    0.04561   0.05091   0.05338   0.05526   0.05684
 Alpha virt. eigenvalues --    0.06336   0.06486   0.06781   0.07110   0.07987
 Alpha virt. eigenvalues --    0.08108   0.08260   0.08582   0.08930   0.09209
 Alpha virt. eigenvalues --    0.09442   0.09684   0.09921   0.10301   0.10758
 Alpha virt. eigenvalues --    0.10940   0.11120   0.11596   0.12165   0.13184
 Alpha virt. eigenvalues --    0.13471   0.13648   0.14383   0.15023   0.15363
 Alpha virt. eigenvalues --    0.15632   0.16124   0.16371   0.17143   0.17852
 Alpha virt. eigenvalues --    0.18142   0.18788   0.19214   0.19487   0.21921
 Alpha virt. eigenvalues --    0.22898   0.23777   0.24063   0.24379   0.24888
 Alpha virt. eigenvalues --    0.25552   0.26262   0.26412   0.26680   0.27988
 Alpha virt. eigenvalues --    0.28684   0.29043   0.29833   0.30600   0.31417
 Alpha virt. eigenvalues --    0.32900   0.34476   0.36543   0.37081   0.37872
 Alpha virt. eigenvalues --    0.38423   0.38929   0.40587   0.40681   0.41188
 Alpha virt. eigenvalues --    0.42253   0.42483   0.43210   0.43849   0.44326
 Alpha virt. eigenvalues --    0.44458   0.44935   0.45032   0.45686   0.46048
 Alpha virt. eigenvalues --    0.46956   0.47083   0.47807   0.48051   0.48547
 Alpha virt. eigenvalues --    0.48981   0.49305   0.49722   0.49907   0.50426
 Alpha virt. eigenvalues --    0.50681   0.51300   0.51561   0.51915   0.52165
 Alpha virt. eigenvalues --    0.52431   0.52759   0.53102   0.53400   0.53995
 Alpha virt. eigenvalues --    0.54077   0.54402   0.55013   0.55214   0.55640
 Alpha virt. eigenvalues --    0.55963   0.56110   0.56580   0.56971   0.57191
 Alpha virt. eigenvalues --    0.57702   0.57930   0.58899   0.59365   0.59619
 Alpha virt. eigenvalues --    0.59782   0.60302   0.61233   0.61750   0.62135
 Alpha virt. eigenvalues --    0.62836   0.63073   0.63605   0.64607   0.65195
 Alpha virt. eigenvalues --    0.65873   0.66389   0.67055   0.67711   0.67792
 Alpha virt. eigenvalues --    0.67982   0.68436   0.69368   0.70608   0.71130
 Alpha virt. eigenvalues --    0.71445   0.71970   0.73096   0.74014   0.74492
 Alpha virt. eigenvalues --    0.74639   0.75152   0.75215   0.75364   0.75722
 Alpha virt. eigenvalues --    0.76031   0.76519   0.76970   0.77585   0.77666
 Alpha virt. eigenvalues --    0.77894   0.78003   0.78129   0.78533   0.79078
 Alpha virt. eigenvalues --    0.79237   0.79565   0.80121   0.80364   0.80811
 Alpha virt. eigenvalues --    0.81205   0.81540   0.81852   0.81877   0.82867
 Alpha virt. eigenvalues --    0.83122   0.83764   0.83884   0.84770   0.84845
 Alpha virt. eigenvalues --    0.84991   0.86182   0.86234   0.86616   0.87141
 Alpha virt. eigenvalues --    0.87313   0.88081   0.88847   0.89433   0.89653
 Alpha virt. eigenvalues --    0.90388   0.90560   0.91530   0.91904   0.92796
 Alpha virt. eigenvalues --    0.93286   0.94362   0.94551   0.95761   0.96085
 Alpha virt. eigenvalues --    0.97372   0.97725   0.98177   0.99112   0.99663
 Alpha virt. eigenvalues --    1.00552   1.01142   1.01379   1.02529   1.03044
 Alpha virt. eigenvalues --    1.03355   1.04812   1.05418   1.05905   1.06371
 Alpha virt. eigenvalues --    1.07259   1.07722   1.08808   1.08889   1.09721
 Alpha virt. eigenvalues --    1.10854   1.11609   1.12198   1.12758   1.12968
 Alpha virt. eigenvalues --    1.13864   1.14796   1.15941   1.17248   1.17767
 Alpha virt. eigenvalues --    1.18819   1.19265   1.20223   1.20804   1.21240
 Alpha virt. eigenvalues --    1.22320   1.23126   1.24018   1.24693   1.25073
 Alpha virt. eigenvalues --    1.25951   1.26758   1.27535   1.28016   1.29632
 Alpha virt. eigenvalues --    1.29956   1.30664   1.31171   1.32362   1.33459
 Alpha virt. eigenvalues --    1.33694   1.34563   1.34784   1.35329   1.35618
 Alpha virt. eigenvalues --    1.37645   1.38792   1.39498   1.39776   1.41281
 Alpha virt. eigenvalues --    1.41750   1.42030   1.42334   1.43229   1.44332
 Alpha virt. eigenvalues --    1.44933   1.45651   1.46304   1.47140   1.48307
 Alpha virt. eigenvalues --    1.49919   1.49986   1.50361   1.51949   1.52498
 Alpha virt. eigenvalues --    1.52741   1.53343   1.53819   1.54942   1.55408
 Alpha virt. eigenvalues --    1.56045   1.57316   1.58496   1.59732   1.60192
 Alpha virt. eigenvalues --    1.61049   1.61490   1.62533   1.62999   1.63065
 Alpha virt. eigenvalues --    1.63876   1.64418   1.65433   1.66305   1.67813
 Alpha virt. eigenvalues --    1.68103   1.69134   1.69667   1.70498   1.70702
 Alpha virt. eigenvalues --    1.71550   1.72090   1.72494   1.73225   1.73842
 Alpha virt. eigenvalues --    1.74161   1.74339   1.74548   1.75221   1.75506
 Alpha virt. eigenvalues --    1.75726   1.76170   1.77135   1.77555   1.78320
 Alpha virt. eigenvalues --    1.78530   1.79377   1.80642   1.81256   1.81322
 Alpha virt. eigenvalues --    1.81918   1.82393   1.82682   1.83611   1.83891
 Alpha virt. eigenvalues --    1.84691   1.85197   1.85880   1.86115   1.86490
 Alpha virt. eigenvalues --    1.87695   1.88168   1.88652   1.89147   1.89776
 Alpha virt. eigenvalues --    1.90034   1.90385   1.91225   1.91729   1.92426
 Alpha virt. eigenvalues --    1.93217   1.93593   1.93871   1.95151   1.95423
 Alpha virt. eigenvalues --    1.96684   1.97106   1.97504   1.98578   1.99721
 Alpha virt. eigenvalues --    2.00396   2.00669   2.01938   2.02319   2.02900
 Alpha virt. eigenvalues --    2.03299   2.04613   2.05353   2.06031   2.06367
 Alpha virt. eigenvalues --    2.07279   2.07450   2.08452   2.08941   2.09589
 Alpha virt. eigenvalues --    2.10527   2.11765   2.12105   2.13455   2.13819
 Alpha virt. eigenvalues --    2.14507   2.15277   2.15758   2.16143   2.17104
 Alpha virt. eigenvalues --    2.17760   2.18322   2.20926   2.21098   2.22492
 Alpha virt. eigenvalues --    2.23083   2.24011   2.24684   2.25243   2.26068
 Alpha virt. eigenvalues --    2.27275   2.28211   2.28338   2.29694   2.30703
 Alpha virt. eigenvalues --    2.31063   2.31851   2.32566   2.33522   2.34349
 Alpha virt. eigenvalues --    2.35700   2.36562   2.37189   2.37881   2.38796
 Alpha virt. eigenvalues --    2.40394   2.41868   2.42037   2.43755   2.44456
 Alpha virt. eigenvalues --    2.45914   2.46414   2.47640   2.48251   2.48715
 Alpha virt. eigenvalues --    2.49233   2.50345   2.50732   2.51297   2.52019
 Alpha virt. eigenvalues --    2.53017   2.53196   2.53495   2.54525   2.56158
 Alpha virt. eigenvalues --    2.56454   2.56831   2.57278   2.58697   2.60053
 Alpha virt. eigenvalues --    2.60504   2.62356   2.62583   2.63034   2.63836
 Alpha virt. eigenvalues --    2.64536   2.65255   2.66048   2.67066   2.67887
 Alpha virt. eigenvalues --    2.69339   2.70091   2.73568   2.75248   2.77029
 Alpha virt. eigenvalues --    2.77532   2.81343   2.82721   2.84792   2.89100
 Alpha virt. eigenvalues --    2.89941   2.91134   2.91293   2.92833   2.93825
 Alpha virt. eigenvalues --    2.94496   2.95306   2.95801   2.98451   2.99297
 Alpha virt. eigenvalues --    2.99914   3.00848   3.04659   3.05294   3.07381
 Alpha virt. eigenvalues --    3.09410   3.32167   3.70219   3.70442   3.72208
 Alpha virt. eigenvalues --    3.80055   3.85645   3.89217   3.90794   3.94846
 Alpha virt. eigenvalues --    3.96240   3.97086   4.00107   4.02207   4.04218
 Alpha virt. eigenvalues --    4.06783   4.08382   4.10472   4.12162   4.13591
 Alpha virt. eigenvalues --    4.15800   4.16191   4.17148   4.19183   4.25146
 Alpha virt. eigenvalues --    4.26103   4.27216   4.31587   4.34654   4.35876
 Alpha virt. eigenvalues --    4.37827   4.41330   4.42771   4.44518   4.45587
 Alpha virt. eigenvalues --    4.52265   4.57052   4.62534   4.64022   4.66622
 Alpha virt. eigenvalues --    4.70025
          Condensed to atoms (all electrons):
 Mulliken charges:
               1
     1  N   -0.781223
     2  C   -0.097080
     3  C    0.615034
     4  O   -0.510298
     5  C   -0.432593
     6  C    0.646029
     7  N   -0.741713
     8  O   -0.530338
     9  H    0.438962
    10  H    0.220874
    11  H    0.236695
    12  H    0.190939
    13  H    0.366401
    14  H    0.353696
    15  H    0.417553
    16  H    0.424747
    17  N   -0.654444
    18  C   -0.075320
    19  C    0.617434
    20  O   -0.544130
    21  C   -0.351985
    22  C    0.172753
    23  C   -0.177216
    24  C   -0.182047
    25  C   -0.124002
    26  C   -0.145499
    27  C   -0.172214
    28  H    0.410271
    29  H    0.207546
    30  H    0.169172
    31  H    0.170748
    32  H    0.125539
    33  H    0.148576
    34  H    0.136163
    35  H    0.149869
    36  H    0.145576
    37  N   -0.607507
    38  C   -0.082532
    39  C    0.645667
    40  O   -0.585051
    41  C   -0.394084
    42  C    0.618119
    43  N   -0.730000
    44  O   -0.543375
    45  H    0.366039
    46  H    0.211668
    47  H    0.209911
    48  H    0.196412
    49  H    0.365019
    50  H    0.362168
    51  N   -0.615465
    52  C   -0.034301
    53  C    0.610935
    54  O   -0.613580
    55  C   -0.311214
    56  C   -0.284652
    57  C   -0.196072
    58  N   -0.610290
    59  C    0.777319
    60  N   -0.761886
    61  N   -0.799051
    62  O   -0.583213
    63  H    0.374114
    64  H    0.178401
    65  H    0.180303
    66  H    0.162650
    67  H    0.166359
    68  H    0.163273
    69  H    0.164049
    70  H    0.194781
    71  H    0.409664
    72  H    0.371856
    73  H    0.371671
    74  H    0.356581
    75  H    0.450840
 Sum of Mulliken charges =   1.00000
 Mulliken charges with hydrogens summed into heavy atoms:
               1
     1  N    0.500039
     2  C    0.123793
     3  C    0.615034
     4  O   -0.510298
     5  C   -0.004960
     6  C    0.646029
     7  N   -0.021617
     8  O   -0.530338
    17  N   -0.244172
    18  C    0.132226
    19  C    0.617434
    20  O   -0.544130
    21  C   -0.012065
    22  C    0.172753
    23  C   -0.051677
    24  C   -0.033471
    25  C    0.012161
    26  C    0.004369
    27  C   -0.026637
    37  N   -0.241469
    38  C    0.129136
    39  C    0.645667
    40  O   -0.585051
    41  C    0.012238
    42  C    0.618119
    43  N   -0.002812
    44  O   -0.543375
    51  N   -0.241351
    52  C    0.144100
    53  C    0.610935
    54  O   -0.613580
    55  C    0.031739
    56  C    0.044980
    57  C    0.162759
    58  N   -0.200626
    59  C    0.777319
    60  N   -0.018359
    61  N    0.008370
    62  O   -0.583213
 Electronic spatial extent (au):  <R**2>=         133859.2465
 Charge=              1.0000 electrons
 Dipole moment (field-independent basis, Debye):
    X=            -30.1499    Y=             -6.6783    Z=            -41.9521  Tot=             52.0922
 Quadrupole moment (field-independent basis, Debye-Ang):
   XX=             43.8322   YY=           -193.6333   ZZ=            201.5458
   XY=             57.9376   XZ=            282.2719   YZ=             78.0541
 Traceless Quadrupole moment (field-independent basis, Debye-Ang):
   XX=             26.5840   YY=           -210.8816   ZZ=            184.2976
   XY=             57.9376   XZ=            282.2719   YZ=             78.0541
 Octapole moment (field-independent basis, Debye-Ang**2):
  XXX=           1966.8378  YYY=            891.5800  ZZZ=            366.4872  XYY=           1390.4629
  XXY=           -142.4053  XXZ=           -729.4097  XZZ=          -1249.4831  YZZ=           -589.2152
  YYZ=           1383.1268  XYZ=           -636.6096
 Hexadecapole moment (field-independent basis, Debye-Ang**3):
 XXXX=         -44267.3852 YYYY=          -9085.6700 ZZZZ=         -27920.8714 XXXY=          -3471.5329
 XXXZ=         -11490.8832 YYYX=          -6770.7853 YYYZ=          -7190.4422 ZZZX=          -5718.4018
 ZZZY=           2757.7911 XXYY=         -13302.3596 XXZZ=          -3845.1144 YYZZ=         -11856.7204
 XXYZ=           2217.3264 YYXZ=          -9898.6764 ZZXY=           4576.0349
 N-N= 5.183304236487D+03 E-N=-1.480908667636D+04  KE= 1.899789038056D+03
 Unable to Open any file for archive entry.
 1\1\GINC-AMR-111\SP\RB3LYP\6-31G(d)\C23H36N9O7(1+)\KENGMITH\03-Jun-202
 2\0\\# B3LYP/6-31G* empiricaldispersion=gd3 guess=read geom=check nosy
 mm integral(ultrafinegrid)\\Candidate Structure: Conf:617 Charge calc 
 in gas phase\\1,1\N,0,-9.2730038006,1.0013682009,-5.6491951019\C,0,-9.
 8251079228,-0.3985459132,-5.5626120357\C,0,-8.7161604264,-1.4402879165
 ,-5.275710086\O,0,-8.4579369413,-1.6926627487,-4.103473845\C,0,-10.723
 204422,-0.6569281226,-6.7749688407\C,0,-11.9033233712,0.3204980521,-6.
 7825650708\N,0,-12.9191050986,0.0074917037,-7.6166878388\O,0,-11.91833
 33132,1.3291309778,-6.0735647962\H,0,-8.9251769768,1.2008591905,-6.626
 2416166\H,0,-10.4268795041,-0.4142071313,-4.6521570138\H,0,-10.1595402
 842,-0.5246356178,-7.7073580737\H,0,-11.0877979886,-1.6889973203,-6.73
 29241263\H,0,-13.6936200171,0.65307742,-7.6966153284\H,0,-12.898984803
 4,-0.7996487943,-8.2218922385\H,0,-10.0715024083,1.6311085372,-5.47369
 99651\H,0,-8.4809647525,1.1356936271,-5.0107578834\N,0,-8.1380669617,-
 2.0767179261,-6.3293917332\C,0,-7.3312561719,-3.2744108733,-6.10289817
 69\C,0,-5.9738933613,-3.2119161531,-6.8183875096\O,0,-5.7061654276,-3.
 971502897,-7.7547888386\C,0,-8.1021839745,-4.5757197589,-6.4357327203\
 C,0,-8.5083615385,-4.8323878285,-7.8756859996\C,0,-9.4164921089,-4.005
 8845489,-8.5535156273\C,0,-8.0186711831,-5.9618839534,-8.5481905669\C,
 0,-9.8114737821,-4.288794649,-9.8622607342\C,0,-8.4269297716,-6.264147
 3552,-9.8482028219\C,0,-9.3250938187,-5.4242102172,-10.5153945474\H,0,
 -8.2079025143,-1.7073822182,-7.2833656589\H,0,-7.137576929,-3.29480536
 74,-5.0258065749\H,0,-7.4900851047,-5.4127653357,-6.0843217497\H,0,-8.
 9985604943,-4.5583484966,-5.8032120367\H,0,-9.8283802342,-3.1364701122
 ,-8.0541974242\H,0,-7.3073276965,-6.6107250789,-8.045320591\H,0,-10.51
 35049082,-3.6300579162,-10.3664354519\H,0,-8.0482005145,-7.1580592488,
 -10.3366300182\H,0,-9.6582679103,-5.6637419574,-11.5218399332\N,0,-5.0
 21044933,-2.3571222675,-6.3647915615\C,0,-5.1461986404,-1.2353557287,-
 5.4417324756\C,0,-5.7708761486,0.0147704835,-6.0987912121\O,0,-6.59543
 80248,0.6869998706,-5.4707682724\C,0,-3.7822299912,-0.9191023589,-4.79
 96335297\C,0,-2.6852776628,-0.5641842382,-5.8097347891\N,0,-1.60470728
 74,0.0602281815,-5.2956176019\O,0,-2.7632612961,-0.8510844747,-7.01031
 19971\H,0,-4.175689322,-2.3563755073,-6.9303317836\H,0,-5.8447187154,-
 1.4932313518,-4.6413337189\H,0,-3.4462038406,-1.7962713283,-4.23205532
 69\H,0,-3.9157729209,-0.1022234327,-4.0815959124\H,0,-0.8218976743,0.2
 55129535,-5.906070531\H,0,-1.5170761049,0.2842721031,-4.3149475999\N,0
 ,-5.4033156494,0.2989277194,-7.3643741807\C,0,-6.2286189129,1.18845886
 62,-8.1805209461\C,0,-7.5895059696,0.4778140419,-8.4448628835\O,0,-7.5
 594373254,-0.7577077012,-8.7378339273\C,0,-5.5045552971,1.6917363236,-
 9.4431511806\C,0,-5.3723752661,0.771089433,-10.6723649748\C,0,-4.56216
 94702,-0.5311547731,-10.4826238046\N,0,-5.40094679,-1.6706836469,-10.1
 067840675\C,0,-5.7880861542,-2.647171667,-10.9344093453\N,0,-5.5370280
 158,-2.6070516826,-12.2618672655\N,0,-6.4100219471,-3.7094618569,-10.4
 263534044\O,0,-8.630276817,1.1579924891,-8.2708510542\H,0,-4.663044345
 1,-0.2565881129,-7.7716227551\H,0,-6.453702535,2.0624018861,-7.5660101
 912\H,0,-6.0468417552,2.585489275,-9.7706863659\H,0,-4.5058362389,2.03
 15002351,-9.1378704345\H,0,-6.367650332,0.5112169401,-11.0532929368\H,
 0,-4.8843300199,1.3670536939,-11.4529649819\H,0,-4.0137100106,-0.78858
 16369,-11.3925217729\H,0,-3.7927333581,-0.4060748519,-9.7104858454\H,0
 ,-6.0887357108,-1.4717256511,-9.3530943186\H,0,-5.614217507,-3.4435153
 01,-12.8208619304\H,0,-5.3603049236,-1.7378074203,-12.7403239154\H,0,-
 7.0413388833,-4.2771522243,-10.9749898483\H,0,-6.3652707062,-3.8866320
 257,-9.4182484216\\Version=ES64L-G16RevC.01\HF=-1917.5215554\RMSD=8.37
 0e-09\Dipole=1.6559216,0.1953145,-2.0402641\Quadrupole=19.7645282,-156
 .785282,137.0207538,43.0751844,209.8622549,58.0313288\PG=C01 [X(C23H36
 N9O7)]\\@
 The archive entry for this job was punched.


 I (ERNEST RUTHERFORD) CAME INTO THE ROOM, WHICH WAS HALF DARK, AND PRESENTLY
 SPOTTED LORD KELVIN IN THE AUDIENCE AND REALIZED I WAS IN TROUBLE AT
 THE LAST PART OF MY SPEECH DEALING THE AGE OF THE EARTH, WHERE MY VIEWS
 CONFLICTED WITH HIS.  TO MY RELIEF KELVIN FELL FAST ASLEEP, BUT AS I CAME
 TO THE IMPORTANT POINT, I SAW THE OLD BIRD SIT UP AND COCK A BALEFUL GLANCE
 AT ME! THEN A SUDDEN INSPIRATION CAME AND I SAID LORD KELVIN HAD LIMITED
 THE AGE OF THE EARTH PROVIDED NO NEW SOURCE WAS DISCOVERED. THAT
 PROPHETIC UTTERANCE REFERS TO WHAT WE ARE NOW CONSIDERING TONIGHT, RADIUM!
 BEHOLD!  THE OLD BOY BEAMED UPON ME.
 Job cpu time:       0 days  0 hours  1 minutes 55.8 seconds.
 Elapsed time:       0 days  0 hours  0 minutes 29.7 seconds.
 File lengths (MBytes):  RWF=    344 Int=      0 D2E=      0 Chk=     48 Scr=     16
 Normal termination of Gaussian 16 at Fri Jun  3 06:00:31 2022.
