 Entering Gaussian System, Link 0=/opt/software/Gaussian/g16-AVX2-C.01/g16/g16
 Input=charge-conf-355.com
 Output=charge-conf-355.log
 Initial command:
 /opt/software/Gaussian/g16-AVX2-C.01/g16/l1.exe "/mnt/gs18/scratch/users/kengmith/Gau-31351.inp" -scrdir="/mnt/gs18/scratch/users/kengmith/"
 Entering Link 1 = /opt/software/Gaussian/g16-AVX2-C.01/g16/l1.exe PID=     31361.
  
 Copyright (c) 1988-2019, Gaussian, Inc.  All Rights Reserved.
  
 This is part of the Gaussian(R) 16 program.  It is based on
 the Gaussian(R) 09 system (copyright 2009, Gaussian, Inc.),
 the Gaussian(R) 03 system (copyright 2003, Gaussian, Inc.),
 the Gaussian(R) 98 system (copyright 1998, Gaussian, Inc.),
 the Gaussian(R) 94 system (copyright 1995, Gaussian, Inc.),
 the Gaussian 92(TM) system (copyright 1992, Gaussian, Inc.),
 the Gaussian 90(TM) system (copyright 1990, Gaussian, Inc.),
 the Gaussian 88(TM) system (copyright 1988, Gaussian, Inc.),
 the Gaussian 86(TM) system (copyright 1986, Carnegie Mellon
 University), and the Gaussian 82(TM) system (copyright 1983,
 Carnegie Mellon University). Gaussian is a federally registered
 trademark of Gaussian, Inc.
  
 This software contains proprietary and confidential information,
 including trade secrets, belonging to Gaussian, Inc.
  
 This software is provided under written license and may be
 used, copied, transmitted, or stored only in accord with that
 written license.
  
 The following legend is applicable only to US Government
 contracts under FAR:
  
                    RESTRICTED RIGHTS LEGEND
  
 Use, reproduction and disclosure by the US Government is
 subject to restrictions as set forth in subparagraphs (a)
 and (c) of the Commercial Computer Software - Restricted
 Rights clause in FAR 52.227-19.
  
 Gaussian, Inc.
 340 Quinnipiac St., Bldg. 40, Wallingford CT 06492
  
  
 ---------------------------------------------------------------
 Warning -- This program may not be used in any manner that
 competes with the business of Gaussian, Inc. or will provide
 assistance to any competitor of Gaussian, Inc.  The licensee
 of this program is prohibited from giving any competitor of
 Gaussian, Inc. access to this program.  By using this program,
 the user acknowledges that Gaussian, Inc. is engaged in the
 business of creating and licensing software in the field of
 computational chemistry and represents and warrants to the
 licensee that it is not a competitor of Gaussian, Inc. and that
 it will not use this program in any manner prohibited above.
 ---------------------------------------------------------------
  

 Cite this work as:
 Gaussian 16, Revision C.01,
 M. J. Frisch, G. W. Trucks, H. B. Schlegel, G. E. Scuseria, 
 M. A. Robb, J. R. Cheeseman, G. Scalmani, V. Barone, 
 G. A. Petersson, H. Nakatsuji, X. Li, M. Caricato, A. V. Marenich, 
 J. Bloino, B. G. Janesko, R. Gomperts, B. Mennucci, H. P. Hratchian, 
 J. V. Ortiz, A. F. Izmaylov, J. L. Sonnenberg, D. Williams-Young, 
 F. Ding, F. Lipparini, F. Egidi, J. Goings, B. Peng, A. Petrone, 
 T. Henderson, D. Ranasinghe, V. G. Zakrzewski, J. Gao, N. Rega, 
 G. Zheng, W. Liang, M. Hada, M. Ehara, K. Toyota, R. Fukuda, 
 J. Hasegawa, M. Ishida, T. Nakajima, Y. Honda, O. Kitao, H. Nakai, 
 T. Vreven, K. Throssell, J. A. Montgomery, Jr., J. E. Peralta, 
 F. Ogliaro, M. J. Bearpark, J. J. Heyd, E. N. Brothers, K. N. Kudin, 
 V. N. Staroverov, T. A. Keith, R. Kobayashi, J. Normand, 
 K. Raghavachari, A. P. Rendell, J. C. Burant, S. S. Iyengar, 
 J. Tomasi, M. Cossi, J. M. Millam, M. Klene, C. Adamo, R. Cammi, 
 J. W. Ochterski, R. L. Martin, K. Morokuma, O. Farkas, 
 J. B. Foresman, and D. J. Fox, Gaussian, Inc., Wallingford CT, 2019.
 
 ******************************************
 Gaussian 16:  ES64L-G16RevC.01  3-Jul-2019
                 3-Jun-2022 
 ******************************************
 %mem=8gb
 %nproc=4
 Will use up to    4 processors via shared memory.
 %chk=conf-355.chk
 ----------------------------------------------------------------------
 # B3LYP/6-31G* empiricaldispersion=gd3 guess=read geom=check nosymm in
 tegral(ultrafinegrid)
 ----------------------------------------------------------------------
 1/29=2,38=1,172=1/1;
 2/12=2,15=1,40=1/2;
 3/5=1,6=6,7=1,11=2,14=-4,25=1,30=1,74=-5,75=-5,116=-2,124=31/1,2,3;
 4/5=1/1;
 5/5=2,38=6/2;
 6/7=2,8=2,9=2,10=2,28=1/1;
 99/5=1,9=1/99;
 ------------------------------------------------------
 Candidate Structure: Conf:355 Charge calc in gas phase
 ------------------------------------------------------
 Structure from the checkpoint file:  "conf-355.chk"
 Charge =  1 Multiplicity = 1
 Redundant internal coordinates found in file.  (old form).
 N,0,-7.8820286311,-2.9987278797,-5.2701291634
 C,0,-8.4082757317,-1.6275145658,-4.95892463
 C,0,-8.7568158717,-0.789958411,-6.199995764
 O,0,-9.8520352784,-0.2460499418,-6.2732947294
 C,0,-7.3787564481,-0.8830712738,-4.1018219342
 C,0,-7.1361560943,-1.5797794285,-2.766395789
 N,0,-6.6501330394,-0.7882132557,-1.7884754489
 O,0,-7.350960883,-2.7866745901,-2.6127108753
 H,0,-6.9669374805,-2.9314707811,-5.8140402564
 H,0,-9.3432862633,-1.7601847463,-4.4128282614
 H,0,-6.4245991328,-0.8193712806,-4.6381298031
 H,0,-7.7193855958,0.1452939242,-3.9545040426
 H,0,-6.4156653272,-1.2001564806,-0.8948531835
 H,0,-6.480650309,0.1971060102,-1.9373771423
 H,0,-7.7125132004,-3.4432720456,-4.3479270187
 H,0,-8.5379028944,-3.5222333733,-5.8711379039
 N,0,-7.7716422609,-0.6276173439,-7.1291755688
 C,0,-7.8219603854,0.4942853003,-8.0581749358
 C,0,-7.7198096596,0.057281756,-9.5275127815
 O,0,-6.9286180407,0.6175335111,-10.3027165904
 C,0,-6.7303499041,1.5340203252,-7.7202004348
 C,0,-6.7075984155,1.9248197237,-6.2558930379
 C,0,-7.836736225,2.4718306577,-5.6271315413
 C,0,-5.5421398551,1.7491021787,-5.4995787889
 C,0,-7.7973700204,2.837181605,-4.2809111278
 C,0,-5.4936238107,2.1212458348,-4.1529762714
 C,0,-6.6228584776,2.6673946033,-3.5385934307
 H,0,-6.8767773749,-1.1128097353,-7.0079218717
 H,0,-8.8156361069,0.9379873955,-7.9303232637
 H,0,-5.7546290573,1.1216059845,-7.999493433
 H,0,-6.882997852,2.4094082808,-8.3604962821
 H,0,-8.7568820458,2.6105463478,-6.1882371227
 H,0,-4.658398903,1.3233130416,-5.9689336734
 H,0,-8.6797215735,3.2656687483,-3.8142240889
 H,0,-4.5705409504,1.9959591059,-3.5932376716
 H,0,-6.5854688099,2.9820705525,-2.4985986044
 N,0,-8.5245534332,-0.9315339937,-9.9933641311
 C,0,-9.371503348,-1.8836851291,-9.2821159325
 C,0,-8.5900937145,-2.9959631016,-8.54511359
 O,0,-9.1487436609,-3.6193321268,-7.635329778
 C,0,-10.3568570352,-2.5384016848,-10.2756058941
 C,0,-9.6527838819,-3.3080424842,-11.3962714083
 N,0,-10.2308123032,-4.4622201453,-11.7805931843
 O,0,-8.6130692499,-2.8881009798,-11.9263960938
 H,0,-8.3760378052,-1.1716793435,-10.9707988861
 H,0,-9.955528598,-1.3722116848,-8.5132336284
 H,0,-10.9681880205,-1.7547958818,-10.739600777
 H,0,-11.0259822839,-3.1892490051,-9.7059762585
 H,0,-9.8444969937,-4.9606160339,-12.5722419956
 H,0,-11.0865086436,-4.8068524547,-11.3696962105
 N,0,-7.3426650098,-3.2347475746,-8.9909602481
 C,0,-6.3641063442,-4.1293869757,-8.3711829044
 C,0,-5.2711623035,-3.2116045809,-7.7077689366
 O,0,-4.1148447249,-3.1706707565,-8.1732102797
 C,0,-5.8784264015,-5.2591728472,-9.3271132316
 C,0,-6.0307667605,-5.0523325179,-10.8535441115
 C,0,-4.8672288294,-4.3196039935,-11.5448811793
 N,0,-4.4396935896,-3.1181380384,-10.8329482303
 C,0,-4.9369638002,-1.8878980454,-10.9538045755
 N,0,-5.8125057904,-1.5456877064,-11.9200650107
 N,0,-4.5130436373,-0.9399308679,-10.0972010796
 O,0,-5.6946838977,-2.5068643015,-6.7323561206
 H,0,-7.0292527049,-2.6586439766,-9.758855645
 H,0,-6.8985628407,-4.6057304682,-7.5461155966
 H,0,-4.8365084451,-5.486146942,-9.0741913659
 H,0,-6.4582256884,-6.1518374128,-9.0724138844
 H,0,-6.10351015,-6.0388930372,-11.3264381548
 H,0,-6.9752287623,-4.5445394285,-11.073805224
 H,0,-3.9884266738,-4.9705100859,-11.5838229915
 H,0,-5.1135570769,-4.0694677949,-12.5818574341
 H,0,-4.0180719462,-3.2981975528,-9.9068927835
 H,0,-6.2436433031,-0.626881787,-11.8375402969
 H,0,-6.3691741888,-2.2569093609,-12.375809272
 H,0,-5.0337598484,-0.0696905449,-10.0434625996
 H,0,-3.9780053305,-1.2384028176,-9.2869607289
 Recover connectivity data from disk.
                           ----------------------------
                           !    Current Parameters    !
                           ! (Angstroms and Degrees)  !
 --------------------------                            --------------------------
 ! Name  Definition              Value                                          !
 --------------------------------------------------------------------------------
 ! R1    R(1,2)                  1.5013                                         !
 ! R2    R(1,9)                  1.0667                                         !
 ! R3    R(1,15)                 1.0377                                         !
 ! R4    R(1,16)                 1.0322                                         !
 ! R5    R(2,3)                  1.5373                                         !
 ! R6    R(2,5)                  1.5326                                         !
 ! R7    R(2,10)                 1.0909                                         !
 ! R8    R(3,4)                  1.225                                          !
 ! R9    R(3,17)                 1.3639                                         !
 ! R10   R(5,6)                  1.5257                                         !
 ! R11   R(5,11)                 1.0964                                         !
 ! R12   R(5,12)                 1.0933                                         !
 ! R13   R(6,7)                  1.3487                                         !
 ! R14   R(6,8)                  1.2355                                         !
 ! R15   R(7,13)                 1.0115                                         !
 ! R16   R(7,14)                 1.0108                                         !
 ! R17   R(17,18)                1.4575                                         !
 ! R18   R(17,28)                1.0251                                         !
 ! R19   R(18,19)                1.5363                                         !
 ! R20   R(18,21)                1.545                                          !
 ! R21   R(18,29)                1.0957                                         !
 ! R22   R(19,20)                1.2413                                         !
 ! R23   R(19,37)                1.3573                                         !
 ! R24   R(21,22)                1.5157                                         !
 ! R25   R(21,30)                1.0955                                         !
 ! R26   R(21,31)                1.0953                                         !
 ! R27   R(22,23)                1.4034                                         !
 ! R28   R(22,24)                1.4004                                         !
 ! R29   R(23,25)                1.3955                                         !
 ! R30   R(23,32)                1.0866                                         !
 ! R31   R(24,26)                1.3979                                         !
 ! R32   R(24,33)                1.0875                                         !
 ! R33   R(25,27)                1.3998                                         !
 ! R34   R(25,34)                1.0863                                         !
 ! R35   R(26,27)                1.3968                                         !
 ! R36   R(26,35)                1.0868                                         !
 ! R37   R(27,36)                1.0872                                         !
 ! R38   R(37,38)                1.4594                                         !
 ! R39   R(37,45)                1.0174                                         !
 ! R40   R(38,39)                1.5463                                         !
 ! R41   R(38,41)                1.5449                                         !
 ! R42   R(38,46)                1.0926                                         !
 ! R43   R(39,40)                1.2363                                         !
 ! R44   R(39,51)                1.3461                                         !
 ! R45   R(41,42)                1.531                                          !
 ! R46   R(41,47)                1.0968                                         !
 ! R47   R(41,48)                1.0935                                         !
 ! R48   R(42,43)                1.3468                                         !
 ! R49   R(42,44)                1.2403                                         !
 ! R50   R(43,49)                1.0121                                         !
 ! R51   R(43,50)                1.0099                                         !
 ! R52   R(51,52)                1.4636                                         !
 ! R53   R(51,63)                1.0098                                         !
 ! R54   R(52,53)                1.5738                                         !
 ! R55   R(52,55)                1.5576                                         !
 ! R56   R(52,64)                1.0924                                         !
 ! R57   R(53,54)                1.2471                                         !
 ! R58   R(53,62)                1.2757                                         !
 ! R59   R(55,56)                1.5479                                         !
 ! R60   R(55,65)                1.0959                                         !
 ! R61   R(55,66)                1.0945                                         !
 ! R62   R(56,57)                1.539                                          !
 ! R63   R(56,67)                1.0965                                         !
 ! R64   R(56,68)                1.0947                                         !
 ! R65   R(57,58)                1.4605                                         !
 ! R66   R(57,69)                1.0943                                         !
 ! R67   R(57,70)                1.0948                                         !
 ! R68   R(58,59)                1.3324                                         !
 ! R69   R(58,71)                1.0333                                         !
 ! R70   R(59,60)                1.3481                                         !
 ! R71   R(59,61)                1.3461                                         !
 ! R72   R(60,72)                1.0183                                         !
 ! R73   R(60,73)                1.0116                                         !
 ! R74   R(61,74)                1.0156                                         !
 ! R75   R(61,75)                1.0158                                         !
 ! A1    A(2,1,9)              110.4153                                         !
 ! A2    A(2,1,15)             105.326                                          !
 ! A3    A(2,1,16)             111.173                                          !
 ! A4    A(9,1,15)             109.879                                          !
 ! A5    A(9,1,16)             106.272                                          !
 ! A6    A(15,1,16)            113.8274                                         !
 ! A7    A(1,2,3)              114.1882                                         !
 ! A8    A(1,2,5)              108.9118                                         !
 ! A9    A(1,2,10)             107.0448                                         !
 ! A10   A(3,2,5)              109.8254                                         !
 ! A11   A(3,2,10)             106.0257                                         !
 ! A12   A(5,2,10)             110.7862                                         !
 ! A13   A(2,3,4)              119.5317                                         !
 ! A14   A(2,3,17)             116.8123                                         !
 ! A15   A(4,3,17)             123.515                                          !
 ! A16   A(2,5,6)              111.995                                          !
 ! A17   A(2,5,11)             109.8323                                         !
 ! A18   A(2,5,12)             108.8426                                         !
 ! A19   A(6,5,11)             108.4399                                         !
 ! A20   A(6,5,12)             111.1704                                         !
 ! A21   A(11,5,12)            106.4039                                         !
 ! A22   A(5,6,7)              115.0838                                         !
 ! A23   A(5,6,8)              121.826                                          !
 ! A24   A(7,6,8)              123.078                                          !
 ! A25   A(6,7,13)             119.0158                                         !
 ! A26   A(6,7,14)             121.7152                                         !
 ! A27   A(13,7,14)            119.2248                                         !
 ! A28   A(3,17,18)            120.0606                                         !
 ! A29   A(3,17,28)            119.5779                                         !
 ! A30   A(18,17,28)           118.0248                                         !
 ! A31   A(17,18,19)           112.8521                                         !
 ! A32   A(17,18,21)           110.7447                                         !
 ! A33   A(17,18,29)           105.5834                                         !
 ! A34   A(19,18,21)           110.7117                                         !
 ! A35   A(19,18,29)           106.6828                                         !
 ! A36   A(21,18,29)           110.0424                                         !
 ! A37   A(18,19,20)           120.7486                                         !
 ! A38   A(18,19,37)           119.7379                                         !
 ! A39   A(20,19,37)           119.496                                          !
 ! A40   A(18,21,22)           113.2946                                         !
 ! A41   A(18,21,30)           108.6741                                         !
 ! A42   A(18,21,31)           108.1511                                         !
 ! A43   A(22,21,30)           109.2682                                         !
 ! A44   A(22,21,31)           111.1491                                         !
 ! A45   A(30,21,31)           106.0204                                         !
 ! A46   A(21,22,23)           121.416                                          !
 ! A47   A(21,22,24)           120.1245                                         !
 ! A48   A(23,22,24)           118.4589                                         !
 ! A49   A(22,23,25)           120.7683                                         !
 ! A50   A(22,23,32)           119.9813                                         !
 ! A51   A(25,23,32)           119.2497                                         !
 ! A52   A(22,24,26)           121.0453                                         !
 ! A53   A(22,24,33)           119.4949                                         !
 ! A54   A(26,24,33)           119.4582                                         !
 ! A55   A(23,25,27)           120.2327                                         !
 ! A56   A(23,25,34)           119.6584                                         !
 ! A57   A(27,25,34)           120.1047                                         !
 ! A58   A(24,26,27)           119.9836                                         !
 ! A59   A(24,26,35)           119.6648                                         !
 ! A60   A(27,26,35)           120.3462                                         !
 ! A61   A(25,27,26)           119.5071                                         !
 ! A62   A(25,27,36)           120.0687                                         !
 ! A63   A(26,27,36)           120.4068                                         !
 ! A64   A(19,37,38)           130.7005                                         !
 ! A65   A(19,37,45)           114.5276                                         !
 ! A66   A(38,37,45)           113.5116                                         !
 ! A67   A(37,38,39)           114.1                                            !
 ! A68   A(37,38,41)           109.4659                                         !
 ! A69   A(37,38,46)           110.3494                                         !
 ! A70   A(39,38,41)           108.9046                                         !
 ! A71   A(39,38,46)           105.7497                                         !
 ! A72   A(41,38,46)           108.0593                                         !
 ! A73   A(38,39,40)           119.0195                                         !
 ! A74   A(38,39,51)           115.98                                           !
 ! A75   A(40,39,51)           124.9646                                         !
 ! A76   A(38,41,42)           112.983                                          !
 ! A77   A(38,41,47)           108.9517                                         !
 ! A78   A(38,41,48)           107.9103                                         !
 ! A79   A(42,41,47)           107.8069                                         !
 ! A80   A(42,41,48)           111.3149                                         !
 ! A81   A(47,41,48)           107.7296                                         !
 ! A82   A(41,42,43)           116.2509                                         !
 ! A83   A(41,42,44)           121.8807                                         !
 ! A84   A(43,42,44)           121.8668                                         !
 ! A85   A(42,43,49)           118.7757                                         !
 ! A86   A(42,43,50)           122.684                                          !
 ! A87   A(49,43,50)           118.2703                                         !
 ! A88   A(39,51,52)           126.0001                                         !
 ! A89   A(39,51,63)           115.9942                                         !
 ! A90   A(52,51,63)           117.5951                                         !
 ! A91   A(51,52,53)           106.6396                                         !
 ! A92   A(51,52,55)           113.0769                                         !
 ! A93   A(51,52,64)           105.0268                                         !
 ! A94   A(53,52,55)           117.7195                                         !
 ! A95   A(53,52,64)           106.0023                                         !
 ! A96   A(55,52,64)           107.446                                          !
 ! A97   A(52,53,54)           120.3773                                         !
 ! A98   A(52,53,62)           114.45                                           !
 ! A99   A(54,53,62)           125.1015                                         !
 ! A100  A(52,55,56)           118.5287                                         !
 ! A101  A(52,55,65)           107.76                                           !
 ! A102  A(52,55,66)           106.4744                                         !
 ! A103  A(56,55,65)           110.4153                                         !
 ! A104  A(56,55,66)           106.6387                                         !
 ! A105  A(65,55,66)           106.3208                                         !
 ! A106  A(55,56,57)           115.6062                                         !
 ! A107  A(55,56,67)           108.1561                                         !
 ! A108  A(55,56,68)           110.2008                                         !
 ! A109  A(57,56,67)           106.5466                                         !
 ! A110  A(57,56,68)           109.9397                                         !
 ! A111  A(67,56,68)           105.8639                                         !
 ! A112  A(56,57,58)           113.2029                                         !
 ! A113  A(56,57,69)           109.8727                                         !
 ! A114  A(56,57,70)           111.3554                                         !
 ! A115  A(58,57,69)           105.758                                          !
 ! A116  A(58,57,70)           109.8536                                         !
 ! A117  A(69,57,70)           106.4326                                         !
 ! A118  A(57,58,59)           127.3059                                         !
 ! A119  A(57,58,71)           114.3896                                         !
 ! A120  A(59,58,71)           113.2318                                         !
 ! A121  A(58,59,60)           122.8048                                         !
 ! A122  A(58,59,61)           118.3562                                         !
 ! A123  A(60,59,61)           118.8074                                         !
 ! A124  A(59,60,72)           116.4839                                         !
 ! A125  A(59,60,73)           120.1202                                         !
 ! A126  A(72,60,73)           115.9692                                         !
 ! A127  A(59,61,74)           118.4014                                         !
 ! A128  A(59,61,75)           117.8087                                         !
 ! A129  A(74,61,75)           118.6625                                         !
 ! D1    D(9,1,2,3)             62.5238                                         !
 ! D2    D(9,1,2,5)            -60.6309                                         !
 ! D3    D(9,1,2,10)           179.5407                                         !
 ! D4    D(15,1,2,3)          -178.9078                                         !
 ! D5    D(15,1,2,5)            57.9376                                         !
 ! D6    D(15,1,2,10)          -61.8909                                         !
 ! D7    D(16,1,2,3)           -55.1726                                         !
 ! D8    D(16,1,2,5)          -178.3273                                         !
 ! D9    D(16,1,2,10)           61.8443                                         !
 ! D10   D(1,2,3,4)            129.4693                                         !
 ! D11   D(1,2,3,17)           -54.6954                                         !
 ! D12   D(5,2,3,4)           -107.8723                                         !
 ! D13   D(5,2,3,17)            67.9629                                         !
 ! D14   D(10,2,3,4)            11.8665                                         !
 ! D15   D(10,2,3,17)         -172.2982                                         !
 ! D16   D(1,2,5,6)            -61.9286                                         !
 ! D17   D(1,2,5,11)            58.6239                                         !
 ! D18   D(1,2,5,12)           174.7463                                         !
 ! D19   D(3,2,5,6)            172.3447                                         !
 ! D20   D(3,2,5,11)           -67.1029                                         !
 ! D21   D(3,2,5,12)            49.0195                                         !
 ! D22   D(10,2,5,6)            55.5532                                         !
 ! D23   D(10,2,5,11)          176.1057                                         !
 ! D24   D(10,2,5,12)          -67.7719                                         !
 ! D25   D(2,3,17,18)         -157.931                                          !
 ! D26   D(2,3,17,28)            4.377                                          !
 ! D27   D(4,3,17,18)           17.7223                                         !
 ! D28   D(4,3,17,28)         -179.9697                                         !
 ! D29   D(2,5,6,7)           -157.1511                                         !
 ! D30   D(2,5,6,8)             24.0801                                         !
 ! D31   D(11,5,6,7)            81.4909                                         !
 ! D32   D(11,5,6,8)           -97.278                                          !
 ! D33   D(12,5,6,7)           -35.1481                                         !
 ! D34   D(12,5,6,8)           146.0831                                         !
 ! D35   D(5,6,7,13)          -176.4166                                         !
 ! D36   D(5,6,7,14)             1.1483                                         !
 ! D37   D(8,6,7,13)             2.335                                          !
 ! D38   D(8,6,7,14)           179.8999                                         !
 ! D39   D(3,17,18,19)        -126.2117                                         !
 ! D40   D(3,17,18,21)         109.0367                                         !
 ! D41   D(3,17,18,29)         -10.0474                                         !
 ! D42   D(28,17,18,19)         71.2101                                         !
 ! D43   D(28,17,18,21)        -53.5414                                         !
 ! D44   D(28,17,18,29)       -172.6256                                         !
 ! D45   D(17,18,19,20)       -131.5156                                         !
 ! D46   D(17,18,19,37)         50.0148                                         !
 ! D47   D(21,18,19,20)         -6.7461                                         !
 ! D48   D(21,18,19,37)        174.7843                                         !
 ! D49   D(29,18,19,20)        112.9768                                         !
 ! D50   D(29,18,19,37)        -65.4927                                         !
 ! D51   D(17,18,21,22)        -49.4939                                         !
 ! D52   D(17,18,21,30)         72.1582                                         !
 ! D53   D(17,18,21,31)       -173.173                                          !
 ! D54   D(19,18,21,22)       -175.4511                                         !
 ! D55   D(19,18,21,30)        -53.799                                          !
 ! D56   D(19,18,21,31)         60.8698                                         !
 ! D57   D(29,18,21,22)         66.8628                                         !
 ! D58   D(29,18,21,30)       -171.4851                                         !
 ! D59   D(29,18,21,31)        -56.8163                                         !
 ! D60   D(18,19,37,38)        -12.5415                                         !
 ! D61   D(18,19,37,45)       -178.6851                                         !
 ! D62   D(20,19,37,38)        168.9697                                         !
 ! D63   D(20,19,37,45)          2.8261                                         !
 ! D64   D(18,21,22,23)        -58.093                                          !
 ! D65   D(18,21,22,24)        122.1924                                         !
 ! D66   D(30,21,22,23)       -179.4116                                         !
 ! D67   D(30,21,22,24)          0.8738                                         !
 ! D68   D(31,21,22,23)         63.9279                                         !
 ! D69   D(31,21,22,24)       -115.7867                                         !
 ! D70   D(21,22,23,25)       -179.464                                          !
 ! D71   D(21,22,23,32)          0.8388                                         !
 ! D72   D(24,22,23,25)          0.2552                                         !
 ! D73   D(24,22,23,32)       -179.4419                                         !
 ! D74   D(21,22,24,26)        179.0409                                         !
 ! D75   D(21,22,24,33)         -0.4971                                         !
 ! D76   D(23,22,24,26)         -0.6821                                         !
 ! D77   D(23,22,24,33)        179.78                                           !
 ! D78   D(22,23,25,27)          0.2983                                         !
 ! D79   D(22,23,25,34)        179.5565                                         !
 ! D80   D(32,23,25,27)        179.9977                                         !
 ! D81   D(32,23,25,34)         -0.7441                                         !
 ! D82   D(22,24,26,27)          0.5548                                         !
 ! D83   D(22,24,26,35)       -178.6014                                         !
 ! D84   D(33,24,26,27)       -179.9071                                         !
 ! D85   D(33,24,26,35)          0.9367                                         !
 ! D86   D(23,25,27,26)         -0.4322                                         !
 ! D87   D(23,25,27,36)        178.0577                                         !
 ! D88   D(34,25,27,26)       -179.6871                                         !
 ! D89   D(34,25,27,36)         -1.1972                                         !
 ! D90   D(24,26,27,25)          0.0108                                         !
 ! D91   D(24,26,27,36)       -178.4739                                         !
 ! D92   D(35,26,27,25)        179.1611                                         !
 ! D93   D(35,26,27,36)          0.6764                                         !
 ! D94   D(19,37,38,39)        -72.7305                                         !
 ! D95   D(19,37,38,41)        164.9558                                         !
 ! D96   D(19,37,38,46)         46.1547                                         !
 ! D97   D(45,37,38,39)         93.5242                                         !
 ! D98   D(45,37,38,41)        -28.7894                                         !
 ! D99   D(45,37,38,46)       -147.5906                                         !
 ! D100  D(37,38,39,40)        160.3603                                         !
 ! D101  D(37,38,39,51)        -21.7098                                         !
 ! D102  D(41,38,39,40)        -77.0191                                         !
 ! D103  D(41,38,39,51)        100.9108                                         !
 ! D104  D(46,38,39,40)         38.8962                                         !
 ! D105  D(46,38,39,51)       -143.174                                          !
 ! D106  D(37,38,41,42)         60.6254                                         !
 ! D107  D(37,38,41,47)        -59.1667                                         !
 ! D108  D(37,38,41,48)       -175.8691                                         !
 ! D109  D(39,38,41,42)        -64.7423                                         !
 ! D110  D(39,38,41,47)        175.4656                                         !
 ! D111  D(39,38,41,48)         58.7632                                         !
 ! D112  D(46,38,41,42)       -179.1637                                         !
 ! D113  D(46,38,41,47)         61.0442                                         !
 ! D114  D(46,38,41,48)        -55.6582                                         !
 ! D115  D(38,39,51,52)        173.0624                                         !
 ! D116  D(38,39,51,63)          0.6332                                         !
 ! D117  D(40,39,51,52)         -9.1466                                         !
 ! D118  D(40,39,51,63)        178.4241                                         !
 ! D119  D(38,41,42,43)        141.6733                                         !
 ! D120  D(38,41,42,44)        -38.7683                                         !
 ! D121  D(47,41,42,43)        -97.8789                                         !
 ! D122  D(47,41,42,44)         81.6794                                         !
 ! D123  D(48,41,42,43)         20.0684                                         !
 ! D124  D(48,41,42,44)       -160.3732                                         !
 ! D125  D(41,42,43,49)        174.6706                                         !
 ! D126  D(41,42,43,50)          0.7469                                         !
 ! D127  D(44,42,43,49)         -4.8878                                         !
 ! D128  D(44,42,43,50)       -178.8115                                         !
 ! D129  D(39,51,52,53)       -107.4296                                         !
 ! D130  D(39,51,52,55)        121.6482                                         !
 ! D131  D(39,51,52,64)          4.7891                                         !
 ! D132  D(63,51,52,53)         64.8914                                         !
 ! D133  D(63,51,52,55)        -66.0308                                         !
 ! D134  D(63,51,52,64)        177.1101                                         !
 ! D135  D(51,52,53,54)       -111.0578                                         !
 ! D136  D(51,52,53,62)         66.0267                                         !
 ! D137  D(55,52,53,54)         17.1978                                         !
 ! D138  D(55,52,53,62)       -165.7177                                         !
 ! D139  D(64,52,53,54)        137.3978                                         !
 ! D140  D(64,52,53,62)        -45.5177                                         !
 ! D141  D(51,52,55,56)         21.4523                                         !
 ! D142  D(51,52,55,65)        147.6812                                         !
 ! D143  D(51,52,55,66)        -98.5887                                         !
 ! D144  D(53,52,55,56)       -103.681                                          !
 ! D145  D(53,52,55,65)         22.5478                                         !
 ! D146  D(53,52,55,66)        136.278                                          !
 ! D147  D(64,52,55,56)        136.8758                                         !
 ! D148  D(64,52,55,65)        -96.8954                                         !
 ! D149  D(64,52,55,66)         16.8348                                         !
 ! D150  D(52,55,56,57)         87.0829                                         !
 ! D151  D(52,55,56,67)       -153.6078                                         !
 ! D152  D(52,55,56,68)        -38.3183                                         !
 ! D153  D(65,55,56,57)        -37.8618                                         !
 ! D154  D(65,55,56,67)         81.4476                                         !
 ! D155  D(65,55,56,68)       -163.2629                                         !
 ! D156  D(66,55,56,57)       -152.9608                                         !
 ! D157  D(66,55,56,67)        -33.6514                                         !
 ! D158  D(66,55,56,68)         81.6381                                         !
 ! D159  D(55,56,57,58)        -46.5658                                         !
 ! D160  D(55,56,57,69)         71.4117                                         !
 ! D161  D(55,56,57,70)       -170.9231                                         !
 ! D162  D(67,56,57,58)       -166.7551                                         !
 ! D163  D(67,56,57,69)        -48.7775                                         !
 ! D164  D(67,56,57,70)         68.8877                                         !
 ! D165  D(68,56,57,58)         78.9692                                         !
 ! D166  D(68,56,57,69)       -163.0533                                         !
 ! D167  D(68,56,57,70)        -45.388                                          !
 ! D168  D(56,57,58,59)        -86.8157                                         !
 ! D169  D(56,57,58,71)         66.0544                                         !
 ! D170  D(69,57,58,59)        152.8365                                         !
 ! D171  D(69,57,58,71)        -54.2934                                         !
 ! D172  D(70,57,58,59)         38.355                                          !
 ! D173  D(70,57,58,71)       -168.7748                                         !
 ! D174  D(57,58,59,60)         -9.6832                                         !
 ! D175  D(57,58,59,61)        172.3891                                         !
 ! D176  D(71,58,59,60)       -162.8137                                         !
 ! D177  D(71,58,59,61)         19.2587                                         !
 ! D178  D(58,59,60,72)        170.5779                                         !
 ! D179  D(58,59,60,73)         21.8572                                         !
 ! D180  D(61,59,60,72)        -11.5033                                         !
 ! D181  D(61,59,60,73)       -160.2241                                         !
 ! D182  D(58,59,61,74)       -166.2288                                         !
 ! D183  D(58,59,61,75)        -11.8494                                         !
 ! D184  D(60,59,61,74)         15.759                                          !
 ! D185  D(60,59,61,75)        170.1384                                         !
 --------------------------------------------------------------------------------
 Symmetry turned off by external request.
 Stoichiometry    C23H36N9O7(1+)
 Framework group  C1[X(C23H36N9O7)]
 Deg. of freedom   219
 Full point group                 C1      NOp   1
                          Input orientation:                          
 ---------------------------------------------------------------------
 Center     Atomic      Atomic             Coordinates (Angstroms)
 Number     Number       Type             X           Y           Z
 ---------------------------------------------------------------------
      1          7           0       -7.882029   -2.998728   -5.270129
      2          6           0       -8.408276   -1.627515   -4.958925
      3          6           0       -8.756816   -0.789958   -6.199996
      4          8           0       -9.852035   -0.246050   -6.273295
      5          6           0       -7.378756   -0.883071   -4.101822
      6          6           0       -7.136156   -1.579779   -2.766396
      7          7           0       -6.650133   -0.788213   -1.788475
      8          8           0       -7.350961   -2.786675   -2.612711
      9          1           0       -6.966937   -2.931471   -5.814040
     10          1           0       -9.343286   -1.760185   -4.412828
     11          1           0       -6.424599   -0.819371   -4.638130
     12          1           0       -7.719386    0.145294   -3.954504
     13          1           0       -6.415665   -1.200156   -0.894853
     14          1           0       -6.480650    0.197106   -1.937377
     15          1           0       -7.712513   -3.443272   -4.347927
     16          1           0       -8.537903   -3.522233   -5.871138
     17          7           0       -7.771642   -0.627617   -7.129176
     18          6           0       -7.821960    0.494285   -8.058175
     19          6           0       -7.719810    0.057282   -9.527513
     20          8           0       -6.928618    0.617534  -10.302717
     21          6           0       -6.730350    1.534020   -7.720200
     22          6           0       -6.707598    1.924820   -6.255893
     23          6           0       -7.836736    2.471831   -5.627132
     24          6           0       -5.542140    1.749102   -5.499579
     25          6           0       -7.797370    2.837182   -4.280911
     26          6           0       -5.493624    2.121246   -4.152976
     27          6           0       -6.622858    2.667395   -3.538593
     28          1           0       -6.876777   -1.112810   -7.007922
     29          1           0       -8.815636    0.937987   -7.930323
     30          1           0       -5.754629    1.121606   -7.999493
     31          1           0       -6.882998    2.409408   -8.360496
     32          1           0       -8.756882    2.610546   -6.188237
     33          1           0       -4.658399    1.323313   -5.968934
     34          1           0       -8.679722    3.265669   -3.814224
     35          1           0       -4.570541    1.995959   -3.593238
     36          1           0       -6.585469    2.982071   -2.498599
     37          7           0       -8.524553   -0.931534   -9.993364
     38          6           0       -9.371503   -1.883685   -9.282116
     39          6           0       -8.590094   -2.995963   -8.545114
     40          8           0       -9.148744   -3.619332   -7.635330
     41          6           0      -10.356857   -2.538402  -10.275606
     42          6           0       -9.652784   -3.308042  -11.396271
     43          7           0      -10.230812   -4.462220  -11.780593
     44          8           0       -8.613069   -2.888101  -11.926396
     45          1           0       -8.376038   -1.171679  -10.970799
     46          1           0       -9.955529   -1.372212   -8.513234
     47          1           0      -10.968188   -1.754796  -10.739601
     48          1           0      -11.025982   -3.189249   -9.705976
     49          1           0       -9.844497   -4.960616  -12.572242
     50          1           0      -11.086509   -4.806852  -11.369696
     51          7           0       -7.342665   -3.234748   -8.990960
     52          6           0       -6.364106   -4.129387   -8.371183
     53          6           0       -5.271162   -3.211605   -7.707769
     54          8           0       -4.114845   -3.170671   -8.173210
     55          6           0       -5.878426   -5.259173   -9.327113
     56          6           0       -6.030767   -5.052333  -10.853544
     57          6           0       -4.867229   -4.319604  -11.544881
     58          7           0       -4.439694   -3.118138  -10.832948
     59          6           0       -4.936964   -1.887898  -10.953805
     60          7           0       -5.812506   -1.545688  -11.920065
     61          7           0       -4.513044   -0.939931  -10.097201
     62          8           0       -5.694684   -2.506864   -6.732356
     63          1           0       -7.029253   -2.658644   -9.758856
     64          1           0       -6.898563   -4.605730   -7.546116
     65          1           0       -4.836508   -5.486147   -9.074191
     66          1           0       -6.458226   -6.151837   -9.072414
     67          1           0       -6.103510   -6.038893  -11.326438
     68          1           0       -6.975229   -4.544539  -11.073805
     69          1           0       -3.988427   -4.970510  -11.583823
     70          1           0       -5.113557   -4.069468  -12.581857
     71          1           0       -4.018072   -3.298198   -9.906893
     72          1           0       -6.243643   -0.626882  -11.837540
     73          1           0       -6.369174   -2.256909  -12.375809
     74          1           0       -5.033760   -0.069691  -10.043463
     75          1           0       -3.978005   -1.238403   -9.286961
 ---------------------------------------------------------------------
 Rotational constants (GHZ):           0.1526105           0.0712518           0.0695764
 Standard basis: 6-31G(d) (6D, 7F)
   657 basis functions,  1236 primitive gaussians,   657 cartesian basis functions
   146 alpha electrons      146 beta electrons
       nuclear repulsion energy      5210.5994132678 Hartrees.
 NAtoms=   75 NActive=   75 NUniq=   75 SFac= 1.00D+00 NAtFMM=   60 NAOKFM=T Big=T
 Integral buffers will be    131072 words long.
 Raffenetti 2 integral format.
 Two-electron integral symmetry is turned off.
 Nuclear repulsion after empirical dispersion term =     5210.4695497383 Hartrees.
 One-electron integrals computed using PRISM.
 NBasis=   657 RedAO= T EigKep=  4.64D-04  NBF=   657
 NBsUse=   657 1.00D-06 EigRej= -1.00D+00 NBFU=   657
 Initial guess from the checkpoint file:  "conf-355.chk"
 B after Tr=     0.000000    0.000000    0.000000
         Rot=    1.000000    0.000000    0.000000    0.000000 Ang=   0.00 deg.
 Requested convergence on RMS density matrix=1.00D-08 within 128 cycles.
 Requested convergence on MAX density matrix=1.00D-06.
 Requested convergence on             energy=1.00D-06.
 No special actions if energy rises.
 SCF Done:  E(RB3LYP) =  -1917.54512806     A.U. after    3 cycles
            NFock=  3  Conv=0.12D-08     -V/T= 2.0093

 **********************************************************************

            Population analysis using the SCF Density.

 **********************************************************************

 Alpha  occ. eigenvalues --  -19.24946 -19.24434 -19.23849 -19.22917 -19.22500
 Alpha  occ. eigenvalues --  -19.21353 -19.21157 -14.51577 -14.48711 -14.48361
 Alpha  occ. eigenvalues --  -14.48283 -14.47957 -14.47645 -14.47606 -14.46630
 Alpha  occ. eigenvalues --  -14.46122 -10.44638 -10.42552 -10.41512 -10.41021
 Alpha  occ. eigenvalues --  -10.40213 -10.40069 -10.39216 -10.36115 -10.36114
 Alpha  occ. eigenvalues --  -10.34679 -10.33765 -10.33728 -10.32741 -10.30852
 Alpha  occ. eigenvalues --  -10.29422 -10.29420 -10.29304 -10.29228 -10.28370
 Alpha  occ. eigenvalues --  -10.28300 -10.28234 -10.28181 -10.28108  -1.16685
 Alpha  occ. eigenvalues --   -1.16082  -1.15609  -1.14912  -1.14507  -1.14093
 Alpha  occ. eigenvalues --   -1.13250  -1.07880  -1.05971  -1.05425  -1.03928
 Alpha  occ. eigenvalues --   -1.03489  -1.03120  -1.02726  -1.01235  -1.01081
 Alpha  occ. eigenvalues --   -0.94907  -0.91057  -0.90157  -0.89694  -0.88203
 Alpha  occ. eigenvalues --   -0.85363  -0.83918  -0.83578  -0.80557  -0.79054
 Alpha  occ. eigenvalues --   -0.78535  -0.76623  -0.75057  -0.72820  -0.71353
 Alpha  occ. eigenvalues --   -0.71028  -0.70469  -0.70323  -0.69842  -0.69554
 Alpha  occ. eigenvalues --   -0.69065  -0.68794  -0.67208  -0.66817  -0.66343
 Alpha  occ. eigenvalues --   -0.66273  -0.65328  -0.63869  -0.63562  -0.62652
 Alpha  occ. eigenvalues --   -0.62010  -0.61300  -0.61246  -0.60568  -0.59863
 Alpha  occ. eigenvalues --   -0.58991  -0.58660  -0.58397  -0.58146  -0.57663
 Alpha  occ. eigenvalues --   -0.56839  -0.56515  -0.56400  -0.55313  -0.55021
 Alpha  occ. eigenvalues --   -0.54946  -0.54516  -0.54143  -0.53948  -0.53099
 Alpha  occ. eigenvalues --   -0.52903  -0.52680  -0.52335  -0.52162  -0.51650
 Alpha  occ. eigenvalues --   -0.51385  -0.51064  -0.50772  -0.50570  -0.49829
 Alpha  occ. eigenvalues --   -0.49638  -0.49443  -0.49001  -0.48506  -0.47880
 Alpha  occ. eigenvalues --   -0.47759  -0.46784  -0.46586  -0.46106  -0.44776
 Alpha  occ. eigenvalues --   -0.44543  -0.44389  -0.43304  -0.43006  -0.41004
 Alpha  occ. eigenvalues --   -0.40059  -0.39718  -0.39239  -0.39015  -0.38762
 Alpha  occ. eigenvalues --   -0.37501  -0.37363  -0.37289  -0.37014  -0.36316
 Alpha  occ. eigenvalues --   -0.36268  -0.35752  -0.35228  -0.34327  -0.34276
 Alpha  occ. eigenvalues --   -0.33865
 Alpha virt. eigenvalues --   -0.11690  -0.10852  -0.10774  -0.09955  -0.09796
 Alpha virt. eigenvalues --   -0.09551  -0.09358  -0.07479  -0.07062  -0.04395
 Alpha virt. eigenvalues --   -0.03331  -0.01967  -0.01723  -0.00883  -0.00337
 Alpha virt. eigenvalues --    0.00498   0.01139   0.01315   0.01666   0.01979
 Alpha virt. eigenvalues --    0.02096   0.02931   0.03096   0.03415   0.03586
 Alpha virt. eigenvalues --    0.04299   0.04576   0.04903   0.04988   0.05296
 Alpha virt. eigenvalues --    0.05560   0.05971   0.06159   0.06603   0.06711
 Alpha virt. eigenvalues --    0.07054   0.07368   0.07778   0.07895   0.08014
 Alpha virt. eigenvalues --    0.08443   0.08633   0.09250   0.09418   0.09977
 Alpha virt. eigenvalues --    0.10192   0.10475   0.10930   0.11685   0.12095
 Alpha virt. eigenvalues --    0.12665   0.12827   0.13177   0.13683   0.14138
 Alpha virt. eigenvalues --    0.14443   0.14665   0.15243   0.15467   0.16299
 Alpha virt. eigenvalues --    0.16692   0.17485   0.17740   0.18275   0.20211
 Alpha virt. eigenvalues --    0.21460   0.21773   0.22983   0.23375   0.23501
 Alpha virt. eigenvalues --    0.24188   0.24469   0.24956   0.26219   0.26657
 Alpha virt. eigenvalues --    0.27322   0.28947   0.29325   0.29804   0.31018
 Alpha virt. eigenvalues --    0.31950   0.32652   0.33383   0.36423   0.36805
 Alpha virt. eigenvalues --    0.37439   0.38084   0.39285   0.39376   0.39813
 Alpha virt. eigenvalues --    0.40740   0.41408   0.42119   0.42730   0.43199
 Alpha virt. eigenvalues --    0.43957   0.44350   0.44884   0.45176   0.46059
 Alpha virt. eigenvalues --    0.46367   0.46517   0.46681   0.46954   0.47362
 Alpha virt. eigenvalues --    0.47594   0.48191   0.48736   0.49173   0.49554
 Alpha virt. eigenvalues --    0.49885   0.50260   0.51292   0.51374   0.51635
 Alpha virt. eigenvalues --    0.52061   0.52428   0.52759   0.53038   0.53170
 Alpha virt. eigenvalues --    0.53479   0.53646   0.54274   0.54457   0.54713
 Alpha virt. eigenvalues --    0.55283   0.55360   0.55698   0.55926   0.56044
 Alpha virt. eigenvalues --    0.56564   0.56732   0.57728   0.57875   0.58458
 Alpha virt. eigenvalues --    0.59083   0.59584   0.60304   0.60949   0.61429
 Alpha virt. eigenvalues --    0.62541   0.62762   0.63262   0.64054   0.64475
 Alpha virt. eigenvalues --    0.64662   0.65994   0.66079   0.66708   0.67525
 Alpha virt. eigenvalues --    0.68199   0.69347   0.69835   0.70114   0.70835
 Alpha virt. eigenvalues --    0.71381   0.71854   0.71913   0.72499   0.72996
 Alpha virt. eigenvalues --    0.73786   0.73876   0.74487   0.74584   0.74890
 Alpha virt. eigenvalues --    0.75171   0.75616   0.75790   0.76157   0.76413
 Alpha virt. eigenvalues --    0.76871   0.77310   0.77512   0.77780   0.78368
 Alpha virt. eigenvalues --    0.78693   0.78806   0.79783   0.80614   0.81088
 Alpha virt. eigenvalues --    0.81371   0.81870   0.82023   0.82338   0.82853
 Alpha virt. eigenvalues --    0.83286   0.83411   0.83532   0.84188   0.84617
 Alpha virt. eigenvalues --    0.85017   0.85160   0.85711   0.85914   0.86674
 Alpha virt. eigenvalues --    0.87485   0.87989   0.88837   0.89331   0.90330
 Alpha virt. eigenvalues --    0.90594   0.91176   0.92347   0.92508   0.93666
 Alpha virt. eigenvalues --    0.94369   0.94713   0.96019   0.96145   0.96718
 Alpha virt. eigenvalues --    0.97400   0.98328   0.99195   0.99981   1.00797
 Alpha virt. eigenvalues --    1.01367   1.01423   1.01895   1.02451   1.03451
 Alpha virt. eigenvalues --    1.04416   1.05175   1.05851   1.07230   1.07399
 Alpha virt. eigenvalues --    1.08211   1.08981   1.09230   1.09680   1.10213
 Alpha virt. eigenvalues --    1.10905   1.11463   1.12569   1.12917   1.14063
 Alpha virt. eigenvalues --    1.14503   1.14999   1.15648   1.16403   1.17094
 Alpha virt. eigenvalues --    1.17659   1.17897   1.18241   1.19299   1.19729
 Alpha virt. eigenvalues --    1.20144   1.21724   1.22759   1.23731   1.24816
 Alpha virt. eigenvalues --    1.25683   1.25969   1.26502   1.27878   1.28601
 Alpha virt. eigenvalues --    1.29121   1.29258   1.30377   1.31270   1.32386
 Alpha virt. eigenvalues --    1.33330   1.33580   1.34086   1.34621   1.34806
 Alpha virt. eigenvalues --    1.35815   1.36782   1.37607   1.38387   1.38554
 Alpha virt. eigenvalues --    1.38971   1.39193   1.39585   1.40609   1.40989
 Alpha virt. eigenvalues --    1.42043   1.42448   1.42708   1.44645   1.45537
 Alpha virt. eigenvalues --    1.46393   1.48033   1.48921   1.49073   1.51040
 Alpha virt. eigenvalues --    1.52822   1.53703   1.53853   1.54227   1.55888
 Alpha virt. eigenvalues --    1.56061   1.56533   1.57184   1.58203   1.58704
 Alpha virt. eigenvalues --    1.60623   1.61382   1.61873   1.62533   1.62782
 Alpha virt. eigenvalues --    1.63134   1.64213   1.64607   1.65779   1.65801
 Alpha virt. eigenvalues --    1.66446   1.67244   1.67791   1.69332   1.69745
 Alpha virt. eigenvalues --    1.69959   1.70451   1.71155   1.71388   1.71909
 Alpha virt. eigenvalues --    1.72424   1.72893   1.73741   1.74042   1.74738
 Alpha virt. eigenvalues --    1.75024   1.75317   1.76044   1.76862   1.77305
 Alpha virt. eigenvalues --    1.77838   1.78233   1.78914   1.79343   1.79626
 Alpha virt. eigenvalues --    1.80169   1.80673   1.81245   1.81714   1.82666
 Alpha virt. eigenvalues --    1.83016   1.83279   1.83808   1.84443   1.84914
 Alpha virt. eigenvalues --    1.85381   1.85696   1.86996   1.88076   1.88507
 Alpha virt. eigenvalues --    1.89141   1.89569   1.90030   1.90320   1.91480
 Alpha virt. eigenvalues --    1.92319   1.93114   1.93370   1.93809   1.94597
 Alpha virt. eigenvalues --    1.95258   1.96286   1.96905   1.97654   1.98388
 Alpha virt. eigenvalues --    1.99257   1.99883   2.00416   2.01322   2.01688
 Alpha virt. eigenvalues --    2.02110   2.02542   2.03917   2.04512   2.05130
 Alpha virt. eigenvalues --    2.05521   2.06374   2.07392   2.08430   2.09502
 Alpha virt. eigenvalues --    2.10380   2.11106   2.11750   2.12142   2.13810
 Alpha virt. eigenvalues --    2.14589   2.14773   2.16063   2.16362   2.17663
 Alpha virt. eigenvalues --    2.18600   2.19054   2.19555   2.19969   2.20628
 Alpha virt. eigenvalues --    2.22461   2.22879   2.23061   2.23831   2.25128
 Alpha virt. eigenvalues --    2.26545   2.26875   2.27848   2.28429   2.28801
 Alpha virt. eigenvalues --    2.30585   2.31062   2.31403   2.32462   2.32525
 Alpha virt. eigenvalues --    2.34279   2.34988   2.36056   2.37540   2.38061
 Alpha virt. eigenvalues --    2.39314   2.39886   2.40345   2.41213   2.41721
 Alpha virt. eigenvalues --    2.44307   2.45240   2.45567   2.46965   2.47879
 Alpha virt. eigenvalues --    2.48722   2.49719   2.50127   2.50702   2.51062
 Alpha virt. eigenvalues --    2.51427   2.52209   2.52632   2.53787   2.54770
 Alpha virt. eigenvalues --    2.55370   2.55814   2.56504   2.56702   2.58147
 Alpha virt. eigenvalues --    2.58997   2.59962   2.60877   2.62651   2.63147
 Alpha virt. eigenvalues --    2.63696   2.64561   2.65790   2.66616   2.67164
 Alpha virt. eigenvalues --    2.67834   2.69839   2.72063   2.73050   2.76318
 Alpha virt. eigenvalues --    2.77397   2.81072   2.83794   2.85108   2.88354
 Alpha virt. eigenvalues --    2.88635   2.89744   2.90319   2.90658   2.91136
 Alpha virt. eigenvalues --    2.91820   2.93270   2.93994   2.96563   2.98340
 Alpha virt. eigenvalues --    2.98714   2.99154   3.03574   3.04066   3.05574
 Alpha virt. eigenvalues --    3.09658   3.31512   3.68461   3.73484   3.75204
 Alpha virt. eigenvalues --    3.80138   3.81807   3.86726   3.90189   3.95805
 Alpha virt. eigenvalues --    3.97252   3.98364   4.00236   4.01732   4.05122
 Alpha virt. eigenvalues --    4.06197   4.07999   4.09844   4.12162   4.12637
 Alpha virt. eigenvalues --    4.14142   4.16683   4.20972   4.22019   4.23681
 Alpha virt. eigenvalues --    4.28182   4.29446   4.31242   4.32336   4.35219
 Alpha virt. eigenvalues --    4.38055   4.39384   4.40341   4.42880   4.48667
 Alpha virt. eigenvalues --    4.51287   4.55076   4.58930   4.62530   4.65023
 Alpha virt. eigenvalues --    4.67941
          Condensed to atoms (all electrons):
 Mulliken charges:
               1
     1  N   -0.813560
     2  C   -0.109921
     3  C    0.630587
     4  O   -0.514571
     5  C   -0.415426
     6  C    0.637975
     7  N   -0.741721
     8  O   -0.534156
     9  H    0.430449
    10  H    0.217059
    11  H    0.218839
    12  H    0.212211
    13  H    0.365977
    14  H    0.357710
    15  H    0.418530
    16  H    0.427456
    17  N   -0.651739
    18  C   -0.081149
    19  C    0.625815
    20  O   -0.555576
    21  C   -0.356144
    22  C    0.173310
    23  C   -0.178916
    24  C   -0.197302
    25  C   -0.138112
    26  C   -0.136880
    27  C   -0.159137
    28  H    0.389937
    29  H    0.220014
    30  H    0.144238
    31  H    0.194915
    32  H    0.152288
    33  H    0.143381
    34  H    0.158263
    35  H    0.152045
    36  H    0.150150
    37  N   -0.631941
    38  C   -0.060647
    39  C    0.642082
    40  O   -0.583285
    41  C   -0.395704
    42  C    0.626622
    43  N   -0.725823
    44  O   -0.560824
    45  H    0.370084
    46  H    0.221241
    47  H    0.217649
    48  H    0.197582
    49  H    0.366345
    50  H    0.367949
    51  N   -0.605594
    52  C   -0.058974
    53  C    0.602633
    54  O   -0.553308
    55  C   -0.301234
    56  C   -0.302046
    57  C   -0.178587
    58  N   -0.592144
    59  C    0.718842
    60  N   -0.767747
    61  N   -0.781091
    62  O   -0.604592
    63  H    0.361135
    64  H    0.169823
    65  H    0.177881
    66  H    0.166058
    67  H    0.166728
    68  H    0.165425
    69  H    0.193996
    70  H    0.174127
    71  H    0.403569
    72  H    0.385986
    73  H    0.386638
    74  H    0.398278
    75  H    0.386028
 Sum of Mulliken charges =   1.00000
 Mulliken charges with hydrogens summed into heavy atoms:
               1
     1  N    0.462874
     2  C    0.107138
     3  C    0.630587
     4  O   -0.514571
     5  C    0.015625
     6  C    0.637975
     7  N   -0.018033
     8  O   -0.534156
    17  N   -0.261802
    18  C    0.138865
    19  C    0.625815
    20  O   -0.555576
    21  C   -0.016991
    22  C    0.173310
    23  C   -0.026629
    24  C   -0.053921
    25  C    0.020151
    26  C    0.015165
    27  C   -0.008987
    37  N   -0.261857
    38  C    0.160593
    39  C    0.642082
    40  O   -0.583285
    41  C    0.019527
    42  C    0.626622
    43  N    0.008470
    44  O   -0.560824
    51  N   -0.244459
    52  C    0.110849
    53  C    0.602633
    54  O   -0.553308
    55  C    0.042705
    56  C    0.030107
    57  C    0.189536
    58  N   -0.188575
    59  C    0.718842
    60  N    0.004877
    61  N    0.003216
    62  O   -0.604592
 Electronic spatial extent (au):  <R**2>=         137014.8067
 Charge=              1.0000 electrons
 Dipole moment (field-independent basis, Debye):
    X=            -37.1941    Y=            -10.7088    Z=            -40.5841  Tot=             56.0817
 Quadrupole moment (field-independent basis, Debye-Ang):
   XX=             80.4826   YY=           -165.8639   ZZ=            201.0390
   XY=             94.4463   XZ=            329.9306   YZ=            136.3249
 Traceless Quadrupole moment (field-independent basis, Debye-Ang):
   XX=             41.9300   YY=           -204.4165   ZZ=            162.4864
   XY=             94.4463   XZ=            329.9306   YZ=            136.3249
 Octapole moment (field-independent basis, Debye-Ang**2):
  XXX=           2158.8407  YYY=            703.6872  ZZZ=            546.7487  XYY=           1106.5532
  XXY=           -551.7431  XXZ=          -1144.7137  XZZ=          -1880.9534  YZZ=          -1272.8060
  YYZ=           1082.4826  XYZ=          -1159.5307
 Hexadecapole moment (field-independent basis, Debye-Ang**3):
 XXXX=         -48393.5115 YYYY=          -8517.9592 ZZZZ=         -40104.9040 XXXY=           1653.1128
 XXXZ=         -10381.6791 YYYX=          -4806.0545 YYYZ=          -6511.4007 ZZZX=           1088.7447
 ZZZY=           8877.0576 XXYY=          -9218.8032 XXZZ=           3562.7006 YYZZ=          -9535.1051
 XXYZ=           7406.4943 YYXZ=          -6901.1091 ZZXY=          11104.2100
 N-N= 5.210469549738D+03 E-N=-1.485999877507D+04  KE= 1.899812272298D+03
 Unable to Open any file for archive entry.
 1\1\GINC-AMR-159\SP\RB3LYP\6-31G(d)\C23H36N9O7(1+)\KENGMITH\03-Jun-202
 2\0\\# B3LYP/6-31G* empiricaldispersion=gd3 guess=read geom=check nosy
 mm integral(ultrafinegrid)\\Candidate Structure: Conf:355 Charge calc 
 in gas phase\\1,1\N,0,-7.8820286311,-2.9987278797,-5.2701291634\C,0,-8
 .4082757317,-1.6275145658,-4.95892463\C,0,-8.7568158717,-0.789958411,-
 6.199995764\O,0,-9.8520352784,-0.2460499418,-6.2732947294\C,0,-7.37875
 64481,-0.8830712738,-4.1018219342\C,0,-7.1361560943,-1.5797794285,-2.7
 66395789\N,0,-6.6501330394,-0.7882132557,-1.7884754489\O,0,-7.35096088
 3,-2.7866745901,-2.6127108753\H,0,-6.9669374805,-2.9314707811,-5.81404
 02564\H,0,-9.3432862633,-1.7601847463,-4.4128282614\H,0,-6.4245991328,
 -0.8193712806,-4.6381298031\H,0,-7.7193855958,0.1452939242,-3.95450404
 26\H,0,-6.4156653272,-1.2001564806,-0.8948531835\H,0,-6.480650309,0.19
 71060102,-1.9373771423\H,0,-7.7125132004,-3.4432720456,-4.3479270187\H
 ,0,-8.5379028944,-3.5222333733,-5.8711379039\N,0,-7.7716422609,-0.6276
 173439,-7.1291755688\C,0,-7.8219603854,0.4942853003,-8.0581749358\C,0,
 -7.7198096596,0.057281756,-9.5275127815\O,0,-6.9286180407,0.6175335111
 ,-10.3027165904\C,0,-6.7303499041,1.5340203252,-7.7202004348\C,0,-6.70
 75984155,1.9248197237,-6.2558930379\C,0,-7.836736225,2.4718306577,-5.6
 271315413\C,0,-5.5421398551,1.7491021787,-5.4995787889\C,0,-7.79737002
 04,2.837181605,-4.2809111278\C,0,-5.4936238107,2.1212458348,-4.1529762
 714\C,0,-6.6228584776,2.6673946033,-3.5385934307\H,0,-6.8767773749,-1.
 1128097353,-7.0079218717\H,0,-8.8156361069,0.9379873955,-7.9303232637\
 H,0,-5.7546290573,1.1216059845,-7.999493433\H,0,-6.882997852,2.4094082
 808,-8.3604962821\H,0,-8.7568820458,2.6105463478,-6.1882371227\H,0,-4.
 658398903,1.3233130416,-5.9689336734\H,0,-8.6797215735,3.2656687483,-3
 .8142240889\H,0,-4.5705409504,1.9959591059,-3.5932376716\H,0,-6.585468
 8099,2.9820705525,-2.4985986044\N,0,-8.5245534332,-0.9315339937,-9.993
 3641311\C,0,-9.371503348,-1.8836851291,-9.2821159325\C,0,-8.5900937145
 ,-2.9959631016,-8.54511359\O,0,-9.1487436609,-3.6193321268,-7.63532977
 8\C,0,-10.3568570352,-2.5384016848,-10.2756058941\C,0,-9.6527838819,-3
 .3080424842,-11.3962714083\N,0,-10.2308123032,-4.4622201453,-11.780593
 1843\O,0,-8.6130692499,-2.8881009798,-11.9263960938\H,0,-8.3760378052,
 -1.1716793435,-10.9707988861\H,0,-9.955528598,-1.3722116848,-8.5132336
 284\H,0,-10.9681880205,-1.7547958818,-10.739600777\H,0,-11.0259822839,
 -3.1892490051,-9.7059762585\H,0,-9.8444969937,-4.9606160339,-12.572241
 9956\H,0,-11.0865086436,-4.8068524547,-11.3696962105\N,0,-7.3426650098
 ,-3.2347475746,-8.9909602481\C,0,-6.3641063442,-4.1293869757,-8.371182
 9044\C,0,-5.2711623035,-3.2116045809,-7.7077689366\O,0,-4.1148447249,-
 3.1706707565,-8.1732102797\C,0,-5.8784264015,-5.2591728472,-9.32711323
 16\C,0,-6.0307667605,-5.0523325179,-10.8535441115\C,0,-4.8672288294,-4
 .3196039935,-11.5448811793\N,0,-4.4396935896,-3.1181380384,-10.8329482
 303\C,0,-4.9369638002,-1.8878980454,-10.9538045755\N,0,-5.8125057904,-
 1.5456877064,-11.9200650107\N,0,-4.5130436373,-0.9399308679,-10.097201
 0796\O,0,-5.6946838977,-2.5068643015,-6.7323561206\H,0,-7.0292527049,-
 2.6586439766,-9.758855645\H,0,-6.8985628407,-4.6057304682,-7.546115596
 6\H,0,-4.8365084451,-5.486146942,-9.0741913659\H,0,-6.4582256884,-6.15
 18374128,-9.0724138844\H,0,-6.10351015,-6.0388930372,-11.3264381548\H,
 0,-6.9752287623,-4.5445394285,-11.073805224\H,0,-3.9884266738,-4.97051
 00859,-11.5838229915\H,0,-5.1135570769,-4.0694677949,-12.5818574341\H,
 0,-4.0180719462,-3.2981975528,-9.9068927835\H,0,-6.2436433031,-0.62688
 1787,-11.8375402969\H,0,-6.3691741888,-2.2569093609,-12.375809272\H,0,
 -5.0337598484,-0.0696905449,-10.0434625996\H,0,-3.9780053305,-1.238402
 8176,-9.2869607289\\Version=ES64L-G16RevC.01\HF=-1917.5451281\RMSD=1.1
 72e-09\Dipole=-1.0704019,-1.310489,-1.235467\Quadrupole=31.1739513,-15
 1.978635,120.8046837,70.2185042,245.2953171,101.3542018\PG=C01 [X(C23H
 36N9O7)]\\@
 The archive entry for this job was punched.


 Other things may change us, but we start and end with family.
 -- Anthony Brandt
 Job cpu time:       0 days  0 hours  4 minutes 29.7 seconds.
 Elapsed time:       0 days  0 hours  1 minutes  8.4 seconds.
 File lengths (MBytes):  RWF=    344 Int=      0 D2E=      0 Chk=     48 Scr=     16
 Normal termination of Gaussian 16 at Fri Jun  3 06:01:07 2022.
