 Entering Gaussian System, Link 0=/opt/software/Gaussian/g16-AVX2-C.01/g16/g16
 Input=charge-conf-121.com
 Output=charge-conf-121.log
 Initial command:
 /opt/software/Gaussian/g16-AVX2-C.01/g16/l1.exe "/mnt/gs18/scratch/users/kengmith/Gau-86587.inp" -scrdir="/mnt/gs18/scratch/users/kengmith/"
 Entering Link 1 = /opt/software/Gaussian/g16-AVX2-C.01/g16/l1.exe PID=     86597.
  
 Copyright (c) 1988-2019, Gaussian, Inc.  All Rights Reserved.
  
 This is part of the Gaussian(R) 16 program.  It is based on
 the Gaussian(R) 09 system (copyright 2009, Gaussian, Inc.),
 the Gaussian(R) 03 system (copyright 2003, Gaussian, Inc.),
 the Gaussian(R) 98 system (copyright 1998, Gaussian, Inc.),
 the Gaussian(R) 94 system (copyright 1995, Gaussian, Inc.),
 the Gaussian 92(TM) system (copyright 1992, Gaussian, Inc.),
 the Gaussian 90(TM) system (copyright 1990, Gaussian, Inc.),
 the Gaussian 88(TM) system (copyright 1988, Gaussian, Inc.),
 the Gaussian 86(TM) system (copyright 1986, Carnegie Mellon
 University), and the Gaussian 82(TM) system (copyright 1983,
 Carnegie Mellon University). Gaussian is a federally registered
 trademark of Gaussian, Inc.
  
 This software contains proprietary and confidential information,
 including trade secrets, belonging to Gaussian, Inc.
  
 This software is provided under written license and may be
 used, copied, transmitted, or stored only in accord with that
 written license.
  
 The following legend is applicable only to US Government
 contracts under FAR:
  
                    RESTRICTED RIGHTS LEGEND
  
 Use, reproduction and disclosure by the US Government is
 subject to restrictions as set forth in subparagraphs (a)
 and (c) of the Commercial Computer Software - Restricted
 Rights clause in FAR 52.227-19.
  
 Gaussian, Inc.
 340 Quinnipiac St., Bldg. 40, Wallingford CT 06492
  
  
 ---------------------------------------------------------------
 Warning -- This program may not be used in any manner that
 competes with the business of Gaussian, Inc. or will provide
 assistance to any competitor of Gaussian, Inc.  The licensee
 of this program is prohibited from giving any competitor of
 Gaussian, Inc. access to this program.  By using this program,
 the user acknowledges that Gaussian, Inc. is engaged in the
 business of creating and licensing software in the field of
 computational chemistry and represents and warrants to the
 licensee that it is not a competitor of Gaussian, Inc. and that
 it will not use this program in any manner prohibited above.
 ---------------------------------------------------------------
  

 Cite this work as:
 Gaussian 16, Revision C.01,
 M. J. Frisch, G. W. Trucks, H. B. Schlegel, G. E. Scuseria, 
 M. A. Robb, J. R. Cheeseman, G. Scalmani, V. Barone, 
 G. A. Petersson, H. Nakatsuji, X. Li, M. Caricato, A. V. Marenich, 
 J. Bloino, B. G. Janesko, R. Gomperts, B. Mennucci, H. P. Hratchian, 
 J. V. Ortiz, A. F. Izmaylov, J. L. Sonnenberg, D. Williams-Young, 
 F. Ding, F. Lipparini, F. Egidi, J. Goings, B. Peng, A. Petrone, 
 T. Henderson, D. Ranasinghe, V. G. Zakrzewski, J. Gao, N. Rega, 
 G. Zheng, W. Liang, M. Hada, M. Ehara, K. Toyota, R. Fukuda, 
 J. Hasegawa, M. Ishida, T. Nakajima, Y. Honda, O. Kitao, H. Nakai, 
 T. Vreven, K. Throssell, J. A. Montgomery, Jr., J. E. Peralta, 
 F. Ogliaro, M. J. Bearpark, J. J. Heyd, E. N. Brothers, K. N. Kudin, 
 V. N. Staroverov, T. A. Keith, R. Kobayashi, J. Normand, 
 K. Raghavachari, A. P. Rendell, J. C. Burant, S. S. Iyengar, 
 J. Tomasi, M. Cossi, J. M. Millam, M. Klene, C. Adamo, R. Cammi, 
 J. W. Ochterski, R. L. Martin, K. Morokuma, O. Farkas, 
 J. B. Foresman, and D. J. Fox, Gaussian, Inc., Wallingford CT, 2019.
 
 ******************************************
 Gaussian 16:  ES64L-G16RevC.01  3-Jul-2019
                 3-Jun-2022 
 ******************************************
 %mem=8gb
 %nproc=4
 Will use up to    4 processors via shared memory.
 %chk=conf-121.chk
 ----------------------------------------------------------------------
 # B3LYP/6-31G* empiricaldispersion=gd3 guess=read geom=check nosymm in
 tegral(ultrafinegrid)
 ----------------------------------------------------------------------
 1/29=2,38=1,172=1/1;
 2/12=2,15=1,40=1/2;
 3/5=1,6=6,7=1,11=2,14=-4,25=1,30=1,74=-5,75=-5,116=-2,124=31/1,2,3;
 4/5=1/1;
 5/5=2,38=6/2;
 6/7=2,8=2,9=2,10=2,28=1/1;
 99/5=1,9=1/99;
 ------------------------------------------------------
 Candidate Structure: Conf:121 Charge calc in gas phase
 ------------------------------------------------------
 Structure from the checkpoint file:  "conf-121.chk"
 Charge =  1 Multiplicity = 1
 Redundant internal coordinates found in file.  (old form).
 N,0,-8.2457215314,2.1065448739,-7.1009001943
 C,0,-8.898720468,0.7610060433,-6.9037141242
 C,0,-7.9290886422,-0.0241810591,-6.0034188799
 O,0,-7.4531660733,0.5690155396,-5.0338160187
 C,0,-9.2262981245,0.1651757918,-8.2610290964
 C,0,-10.0329668585,1.0766114933,-9.1789204454
 N,0,-10.4587868297,0.4795916927,-10.3063527679
 O,0,-10.2266828518,2.2713662009,-8.9109050432
 H,0,-8.901535366,2.6602116614,-7.6951605475
 H,0,-9.8075942449,0.9336009088,-6.3190034481
 H,0,-8.2910106046,-0.0440840559,-8.7728323788
 H,0,-9.7380945347,-0.7900308425,-8.1282636795
 H,0,-10.9287164256,1.0437578479,-11.0024517482
 H,0,-10.177715166,-0.4688882109,-10.5513509655
 H,0,-8.0557987491,2.529585582,-6.1865702383
 H,0,-7.33986377,1.9453196607,-7.583644429
 N,0,-7.6401365849,-1.2939994136,-6.3480068651
 C,0,-7.0337718387,-2.209817216,-5.3917673352
 C,0,-5.8184884865,-2.918125448,-6.0086154794
 O,0,-5.7203720773,-4.1542541691,-5.9990538498
 C,0,-8.0946205846,-3.2171023553,-4.8774715471
 C,0,-9.3722385059,-2.4988225434,-4.5080107008
 C,0,-9.5111916549,-1.864046074,-3.2688950147
 C,0,-10.399256178,-2.3649333899,-5.4539363111
 C,0,-10.6478704888,-1.1065472868,-2.9804195083
 C,0,-11.5370655604,-1.60740047,-5.1705695024
 C,0,-11.6614588444,-0.9720046816,-3.9317672058
 H,0,-7.9785921742,-1.7148501426,-7.2270582475
 H,0,-6.679150608,-1.595331983,-4.5571140189
 H,0,-8.2935680955,-3.951126521,-5.663984924
 H,0,-7.6714435278,-3.7676455688,-4.0317632482
 H,0,-8.721325678,-1.955826094,-2.5268944876
 H,0,-10.300109108,-2.8524141063,-6.4222829508
 H,0,-10.7420053892,-0.622670512,-2.0124863491
 H,0,-12.3294548953,-1.5229215331,-5.9096727621
 H,0,-12.5481492968,-0.3868042778,-3.7051474224
 N,0,-4.82718488,-2.1664627315,-6.5531017536
 C,0,-4.8015232495,-0.7447314152,-6.8901792027
 C,0,-5.6327998969,-0.3854588439,-8.1451216244
 O,0,-6.0629293183,0.7704605753,-8.2981951507
 C,0,-3.3387333818,-0.3015666156,-7.1183536967
 C,0,-2.6558759891,-1.0625676994,-8.2610623251
 N,0,-1.8119552581,-0.3430455108,-9.0292497331
 O,0,-2.856364414,-2.2675977736,-8.4590706257
 H,0,-4.0697045558,-2.7008346934,-6.9768416753
 H,0,-5.2170385979,-0.1525600528,-6.0709634996
 H,0,-2.7642919685,-0.4856948176,-6.2023135332
 H,0,-3.3341907007,0.7768704509,-7.3021311528
 H,0,-1.2773562622,-0.8235009323,-9.741566781
 H,0,-1.6162840586,0.6330183921,-8.8612293997
 N,0,-5.7829867223,-1.3752255696,-9.0343768096
 C,0,-6.6575209621,-1.3608266827,-10.1981875424
 C,0,-7.9851397698,-2.1495135345,-9.9280929882
 O,0,-8.1589844972,-2.604162406,-8.7470030543
 C,0,-5.9113264719,-1.7992719197,-11.4787591368
 C,0,-5.0130583262,-3.0480572432,-11.3911370001
 C,0,-5.7168779346,-4.4134547818,-11.4415326697
 N,0,-6.6614272291,-4.6949443379,-10.3545323875
 C,0,-6.3579305779,-4.9554144132,-9.0787770711
 N,0,-5.0863370181,-5.0800850662,-8.6676252554
 N,0,-7.3609387974,-5.1223349673,-8.1937408991
 O,0,-8.7681387596,-2.2363218291,-10.8883856475
 H,0,-5.4376423729,-2.2791494859,-8.7446527286
 H,0,-6.9510480914,-0.3182875003,-10.352039381
 H,0,-6.6686201351,-1.9229639493,-12.2598875568
 H,0,-5.2680311518,-0.9649928013,-11.7803727707
 H,0,-4.3443072637,-3.0358811319,-12.261089186
 H,0,-4.3484872204,-2.9795399421,-10.5205171871
 H,0,-6.3010996315,-4.4909535484,-12.3617369285
 H,0,-4.974267407,-5.2204344293,-11.4800196127
 H,0,-7.646923138,-4.5860715888,-10.5659861087
 H,0,-4.904009011,-5.0318618361,-7.6660854986
 H,0,-4.3060513687,-5.03023718,-9.3043569877
 H,0,-7.0658996854,-5.1596060183,-7.2207445734
 H,0,-8.130545528,-4.4610904608,-8.3490417798
 Recover connectivity data from disk.
                           ----------------------------
                           !    Current Parameters    !
                           ! (Angstroms and Degrees)  !
 --------------------------                            --------------------------
 ! Name  Definition              Value                                          !
 --------------------------------------------------------------------------------
 ! R1    R(1,2)                  1.5086                                         !
 ! R2    R(1,9)                  1.0439                                         !
 ! R3    R(1,15)                 1.0252                                         !
 ! R4    R(1,16)                 1.039                                          !
 ! R5    R(2,3)                  1.5386                                         !
 ! R6    R(2,5)                  1.5181                                         !
 ! R7    R(2,10)                 1.0944                                         !
 ! R8    R(3,4)                  1.2323                                         !
 ! R9    R(3,17)                 1.3471                                         !
 ! R10   R(5,6)                  1.5245                                         !
 ! R11   R(5,11)                 1.0865                                         !
 ! R12   R(5,12)                 1.0918                                         !
 ! R13   R(6,7)                  1.3449                                         !
 ! R14   R(6,8)                  1.2397                                         !
 ! R15   R(7,13)                 1.0118                                         !
 ! R16   R(7,14)                 1.0191                                         !
 ! R17   R(17,18)                1.4563                                         !
 ! R18   R(17,28)                1.0317                                         !
 ! R19   R(18,19)                1.5359                                         !
 ! R20   R(18,21)                1.5507                                         !
 ! R21   R(18,29)                1.0954                                         !
 ! R22   R(19,20)                1.2401                                         !
 ! R23   R(19,37)                1.358                                          !
 ! R24   R(21,22)                1.5115                                         !
 ! R25   R(21,30)                1.0941                                         !
 ! R26   R(21,31)                1.0943                                         !
 ! R27   R(22,23)                1.3992                                         !
 ! R28   R(22,24)                1.4027                                         !
 ! R29   R(23,25)                1.3961                                         !
 ! R30   R(23,32)                1.0876                                         !
 ! R31   R(24,26)                1.396                                          !
 ! R32   R(24,33)                1.0887                                         !
 ! R33   R(25,27)                1.3966                                         !
 ! R34   R(25,34)                1.0862                                         !
 ! R35   R(26,27)                1.3978                                         !
 ! R36   R(26,35)                1.0869                                         !
 ! R37   R(27,36)                1.0863                                         !
 ! R38   R(37,38)                1.4614                                         !
 ! R39   R(37,45)                1.0193                                         !
 ! R40   R(38,39)                1.5476                                         !
 ! R41   R(38,41)                1.5454                                         !
 ! R42   R(38,46)                1.0929                                         !
 ! R43   R(39,40)                1.2428                                         !
 ! R44   R(39,51)                1.339                                          !
 ! R45   R(41,42)                1.5334                                         !
 ! R46   R(41,47)                1.0968                                         !
 ! R47   R(41,48)                1.094                                          !
 ! R48   R(42,43)                1.3491                                         !
 ! R49   R(42,44)                1.2375                                         !
 ! R50   R(43,49)                1.0119                                         !
 ! R51   R(43,50)                1.0096                                         !
 ! R52   R(51,52)                1.4558                                         !
 ! R53   R(51,63)                1.0101                                         !
 ! R54   R(52,53)                1.5677                                         !
 ! R55   R(52,55)                1.5456                                         !
 ! R56   R(52,64)                1.0939                                         !
 ! R57   R(53,54)                1.2775                                         !
 ! R58   R(53,62)                1.2421                                         !
 ! R59   R(55,56)                1.5408                                         !
 ! R60   R(55,65)                1.095                                          !
 ! R61   R(55,66)                1.0958                                         !
 ! R62   R(56,57)                1.5369                                         !
 ! R63   R(56,67)                1.0974                                         !
 ! R64   R(56,68)                1.0974                                         !
 ! R65   R(57,58)                1.4673                                         !
 ! R66   R(57,69)                1.0927                                         !
 ! R67   R(57,70)                1.0973                                         !
 ! R68   R(58,59)                1.337                                          !
 ! R69   R(58,71)                1.0138                                         !
 ! R70   R(59,60)                1.3422                                         !
 ! R71   R(59,61)                1.348                                          !
 ! R72   R(60,72)                1.0191                                         !
 ! R73   R(60,73)                1.0083                                         !
 ! R74   R(61,74)                1.0174                                         !
 ! R75   R(61,75)                1.0265                                         !
 ! A1    A(2,1,9)              105.9936                                         !
 ! A2    A(2,1,15)             109.3698                                         !
 ! A3    A(2,1,16)             107.44                                           !
 ! A4    A(9,1,15)             113.9049                                         !
 ! A5    A(9,1,16)             111.4389                                         !
 ! A6    A(15,1,16)            108.4743                                         !
 ! A7    A(1,2,3)              105.0032                                         !
 ! A8    A(1,2,5)              109.0629                                         !
 ! A9    A(1,2,10)             106.7772                                         !
 ! A10   A(3,2,5)              117.3138                                         !
 ! A11   A(3,2,10)             106.9315                                         !
 ! A12   A(5,2,10)             111.1237                                         !
 ! A13   A(2,3,4)              117.2675                                         !
 ! A14   A(2,3,17)             117.8109                                         !
 ! A15   A(4,3,17)             124.9035                                         !
 ! A16   A(2,5,6)              114.6999                                         !
 ! A17   A(2,5,11)             108.1199                                         !
 ! A18   A(2,5,12)             109.6221                                         !
 ! A19   A(6,5,11)             106.6802                                         !
 ! A20   A(6,5,12)             110.3806                                         !
 ! A21   A(11,5,12)            106.996                                          !
 ! A22   A(5,6,7)              114.0086                                         !
 ! A23   A(5,6,8)              121.9193                                         !
 ! A24   A(7,6,8)              124.0264                                         !
 ! A25   A(6,7,13)             118.4421                                         !
 ! A26   A(6,7,14)             121.825                                          !
 ! A27   A(13,7,14)            118.7931                                         !
 ! A28   A(3,17,18)            120.9399                                         !
 ! A29   A(3,17,28)            122.1478                                         !
 ! A30   A(18,17,28)           116.0745                                         !
 ! A31   A(17,18,19)           110.8393                                         !
 ! A32   A(17,18,21)           109.964                                          !
 ! A33   A(17,18,29)           106.3995                                         !
 ! A34   A(19,18,21)           112.0208                                         !
 ! A35   A(19,18,29)           107.9714                                         !
 ! A36   A(21,18,29)           109.46                                           !
 ! A37   A(18,19,20)           121.2789                                         !
 ! A38   A(18,19,37)           118.9045                                         !
 ! A39   A(20,19,37)           119.8078                                         !
 ! A40   A(18,21,22)           110.5266                                         !
 ! A41   A(18,21,30)           108.7713                                         !
 ! A42   A(18,21,31)           108.5771                                         !
 ! A43   A(22,21,30)           109.9277                                         !
 ! A44   A(22,21,31)           112.1512                                         !
 ! A45   A(30,21,31)           106.7607                                         !
 ! A46   A(21,22,23)           121.0644                                         !
 ! A47   A(21,22,24)           119.9606                                         !
 ! A48   A(23,22,24)           118.7649                                         !
 ! A49   A(22,23,25)           120.6649                                         !
 ! A50   A(22,23,32)           119.5898                                         !
 ! A51   A(25,23,32)           119.7435                                         !
 ! A52   A(22,24,26)           120.7763                                         !
 ! A53   A(22,24,33)           119.3687                                         !
 ! A54   A(26,24,33)           119.853                                          !
 ! A55   A(23,25,27)           120.1597                                         !
 ! A56   A(23,25,34)           119.7615                                         !
 ! A57   A(27,25,34)           120.0787                                         !
 ! A58   A(24,26,27)           119.9409                                         !
 ! A59   A(24,26,35)           119.8919                                         !
 ! A60   A(27,26,35)           120.1632                                         !
 ! A61   A(25,27,26)           119.6911                                         !
 ! A62   A(25,27,36)           120.1446                                         !
 ! A63   A(26,27,36)           120.1596                                         !
 ! A64   A(19,37,38)           130.0756                                         !
 ! A65   A(19,37,45)           114.771                                          !
 ! A66   A(38,37,45)           113.6478                                         !
 ! A67   A(37,38,39)           113.7951                                         !
 ! A68   A(37,38,41)           109.2485                                         !
 ! A69   A(37,38,46)           110.3384                                         !
 ! A70   A(39,38,41)           108.7922                                         !
 ! A71   A(39,38,46)           106.1309                                         !
 ! A72   A(41,38,46)           108.371                                          !
 ! A73   A(38,39,40)           120.1126                                         !
 ! A74   A(38,39,51)           115.2888                                         !
 ! A75   A(40,39,51)           124.5327                                         !
 ! A76   A(38,41,42)           112.9074                                         !
 ! A77   A(38,41,47)           108.9224                                         !
 ! A78   A(38,41,48)           108.145                                          !
 ! A79   A(42,41,47)           107.8092                                         !
 ! A80   A(42,41,48)           111.2353                                         !
 ! A81   A(47,41,48)           107.6747                                         !
 ! A82   A(41,42,43)           115.9909                                         !
 ! A83   A(41,42,44)           122.0291                                         !
 ! A84   A(43,42,44)           121.9762                                         !
 ! A85   A(42,43,49)           118.5592                                         !
 ! A86   A(42,43,50)           122.8281                                         !
 ! A87   A(49,43,50)           118.2806                                         !
 ! A88   A(39,51,52)           126.2252                                         !
 ! A89   A(39,51,63)           115.6357                                         !
 ! A90   A(52,51,63)           116.3289                                         !
 ! A91   A(51,52,53)           111.4704                                         !
 ! A92   A(51,52,55)           111.6854                                         !
 ! A93   A(51,52,64)           106.4415                                         !
 ! A94   A(53,52,55)           114.1353                                         !
 ! A95   A(53,52,64)           106.0487                                         !
 ! A96   A(55,52,64)           106.4608                                         !
 ! A97   A(52,53,54)           116.9747                                         !
 ! A98   A(52,53,62)           115.8376                                         !
 ! A99   A(54,53,62)           127.1672                                         !
 ! A100  A(52,55,56)           117.662                                          !
 ! A101  A(52,55,65)           106.8099                                         !
 ! A102  A(52,55,66)           107.187                                          !
 ! A103  A(56,55,65)           110.623                                          !
 ! A104  A(56,55,66)           106.8852                                         !
 ! A105  A(65,55,66)           107.1971                                         !
 ! A106  A(55,56,57)           116.8197                                         !
 ! A107  A(55,56,67)           107.5303                                         !
 ! A108  A(55,56,68)           110.3381                                         !
 ! A109  A(57,56,67)           105.2444                                         !
 ! A110  A(57,56,68)           111.0261                                         !
 ! A111  A(67,56,68)           105.0219                                         !
 ! A112  A(56,57,58)           116.1628                                         !
 ! A113  A(56,57,69)           109.5996                                         !
 ! A114  A(56,57,70)           110.155                                          !
 ! A115  A(58,57,69)           105.4308                                         !
 ! A116  A(58,57,70)           108.6955                                         !
 ! A117  A(69,57,70)           106.2671                                         !
 ! A118  A(57,58,59)           126.7367                                         !
 ! A119  A(57,58,71)           116.7852                                         !
 ! A120  A(59,58,71)           116.1432                                         !
 ! A121  A(58,59,60)           121.6986                                         !
 ! A122  A(58,59,61)           118.7965                                         !
 ! A123  A(60,59,61)           119.4914                                         !
 ! A124  A(59,60,72)           117.7833                                         !
 ! A125  A(59,60,73)           122.35                                           !
 ! A126  A(72,60,73)           118.6708                                         !
 ! A127  A(59,61,74)           114.6227                                         !
 ! A128  A(59,61,75)           112.257                                          !
 ! A129  A(74,61,75)           112.6874                                         !
 ! D1    D(9,1,2,3)           -178.8731                                         !
 ! D2    D(9,1,2,5)             54.5977                                         !
 ! D3    D(9,1,2,10)           -65.5628                                         !
 ! D4    D(15,1,2,3)           -55.6708                                         !
 ! D5    D(15,1,2,5)           177.7999                                         !
 ! D6    D(15,1,2,10)           57.6394                                         !
 ! D7    D(16,1,2,3)            61.8789                                         !
 ! D8    D(16,1,2,5)           -64.6503                                         !
 ! D9    D(16,1,2,10)          175.1892                                         !
 ! D10   D(1,2,3,4)             44.5086                                         !
 ! D11   D(1,2,3,17)          -134.0212                                         !
 ! D12   D(5,2,3,4)            165.772                                          !
 ! D13   D(5,2,3,17)           -12.7578                                         !
 ! D14   D(10,2,3,4)           -68.693                                          !
 ! D15   D(10,2,3,17)          112.7773                                         !
 ! D16   D(1,2,5,6)            -52.7802                                         !
 ! D17   D(1,2,5,11)            66.0968                                         !
 ! D18   D(1,2,5,12)          -177.5959                                         !
 ! D19   D(3,2,5,6)           -171.9056                                         !
 ! D20   D(3,2,5,11)           -53.0286                                         !
 ! D21   D(3,2,5,12)            63.2787                                         !
 ! D22   D(10,2,5,6)            64.6651                                         !
 ! D23   D(10,2,5,11)         -176.4579                                         !
 ! D24   D(10,2,5,12)          -60.1506                                         !
 ! D25   D(2,3,17,18)         -163.5769                                         !
 ! D26   D(2,3,17,28)            5.5294                                         !
 ! D27   D(4,3,17,18)           18.0166                                         !
 ! D28   D(4,3,17,28)         -172.8771                                         !
 ! D29   D(2,5,6,7)           -172.0933                                         !
 ! D30   D(2,5,6,8)             10.271                                          !
 ! D31   D(11,5,6,7)            68.225                                          !
 ! D32   D(11,5,6,8)          -109.4107                                         !
 ! D33   D(12,5,6,7)           -47.6776                                         !
 ! D34   D(12,5,6,8)           134.6867                                         !
 ! D35   D(5,6,7,13)          -174.5736                                         !
 ! D36   D(5,6,7,14)            -5.8052                                         !
 ! D37   D(8,6,7,13)             3.0049                                         !
 ! D38   D(8,6,7,14)           171.7734                                         !
 ! D39   D(3,17,18,19)        -130.8441                                         !
 ! D40   D(3,17,18,21)         104.7459                                         !
 ! D41   D(3,17,18,29)         -13.704                                          !
 ! D42   D(28,17,18,19)         59.4175                                         !
 ! D43   D(28,17,18,21)        -64.9925                                         !
 ! D44   D(28,17,18,29)        176.5576                                         !
 ! D45   D(17,18,19,20)       -126.9538                                         !
 ! D46   D(17,18,19,37)         54.1329                                         !
 ! D47   D(21,18,19,20)         -3.7218                                         !
 ! D48   D(21,18,19,37)        177.3648                                         !
 ! D49   D(29,18,19,20)        116.8746                                         !
 ! D50   D(29,18,19,37)        -62.0387                                         !
 ! D51   D(17,18,21,22)        -46.1321                                         !
 ! D52   D(17,18,21,30)         74.641                                          !
 ! D53   D(17,18,21,31)       -169.5391                                         !
 ! D54   D(19,18,21,22)       -169.8563                                         !
 ! D55   D(19,18,21,30)        -49.0833                                         !
 ! D56   D(19,18,21,31)         66.7366                                         !
 ! D57   D(29,18,21,22)         70.4151                                         !
 ! D58   D(29,18,21,30)       -168.8119                                         !
 ! D59   D(29,18,21,31)        -52.992                                          !
 ! D60   D(18,19,37,38)        -12.772                                          !
 ! D61   D(18,19,37,45)       -177.6905                                         !
 ! D62   D(20,19,37,38)        168.2983                                         !
 ! D63   D(20,19,37,45)          3.3798                                         !
 ! D64   D(18,21,22,23)        -81.8322                                         !
 ! D65   D(18,21,22,24)         92.835                                          !
 ! D66   D(30,21,22,23)        158.0862                                         !
 ! D67   D(30,21,22,24)        -27.2467                                         !
 ! D68   D(31,21,22,23)         39.4807                                         !
 ! D69   D(31,21,22,24)       -145.8522                                         !
 ! D70   D(21,22,23,25)        174.459                                          !
 ! D71   D(21,22,23,32)         -5.0405                                         !
 ! D72   D(24,22,23,25)         -0.2705                                         !
 ! D73   D(24,22,23,32)       -179.77                                           !
 ! D74   D(21,22,24,26)       -174.4513                                         !
 ! D75   D(21,22,24,33)          5.0416                                         !
 ! D76   D(23,22,24,26)          0.338                                          !
 ! D77   D(23,22,24,33)        179.8309                                         !
 ! D78   D(22,23,25,27)         -0.1306                                         !
 ! D79   D(22,23,25,34)        179.8009                                         !
 ! D80   D(32,23,25,27)        179.3681                                         !
 ! D81   D(32,23,25,34)         -0.7004                                         !
 ! D82   D(22,24,26,27)         -0.004                                          !
 ! D83   D(22,24,26,35)       -179.2796                                         !
 ! D84   D(33,24,26,27)       -179.4945                                         !
 ! D85   D(33,24,26,35)          1.2299                                         !
 ! D86   D(23,25,27,26)          0.4682                                         !
 ! D87   D(23,25,27,36)        179.6812                                         !
 ! D88   D(34,25,27,26)       -179.4632                                         !
 ! D89   D(34,25,27,36)         -0.2501                                         !
 ! D90   D(24,26,27,25)         -0.4007                                         !
 ! D91   D(24,26,27,36)       -179.6136                                         !
 ! D92   D(35,26,27,25)        178.8729                                         !
 ! D93   D(35,26,27,36)         -0.34                                           !
 ! D94   D(19,37,38,39)        -73.5536                                         !
 ! D95   D(19,37,38,41)        164.6511                                         !
 ! D96   D(19,37,38,46)         45.6084                                         !
 ! D97   D(45,37,38,39)         91.5003                                         !
 ! D98   D(45,37,38,41)        -30.2949                                         !
 ! D99   D(45,37,38,46)       -149.3376                                         !
 ! D100  D(37,38,39,40)        156.3021                                         !
 ! D101  D(37,38,39,51)        -26.5188                                         !
 ! D102  D(41,38,39,40)        -81.6501                                         !
 ! D103  D(41,38,39,51)         95.529                                          !
 ! D104  D(46,38,39,40)         34.7716                                         !
 ! D105  D(46,38,39,51)       -148.0493                                         !
 ! D106  D(37,38,41,42)         60.2568                                         !
 ! D107  D(37,38,41,47)        -59.4701                                         !
 ! D108  D(37,38,41,48)       -176.2202                                         !
 ! D109  D(39,38,41,42)        -64.5103                                         !
 ! D110  D(39,38,41,47)        175.7629                                         !
 ! D111  D(39,38,41,48)         59.0127                                         !
 ! D112  D(46,38,41,42)       -179.4863                                         !
 ! D113  D(46,38,41,47)         60.7868                                         !
 ! D114  D(46,38,41,48)        -55.9633                                         !
 ! D115  D(38,39,51,52)        171.1803                                         !
 ! D116  D(38,39,51,63)          7.1561                                         !
 ! D117  D(40,39,51,52)        -11.7819                                         !
 ! D118  D(40,39,51,63)       -175.8061                                         !
 ! D119  D(38,41,42,43)        142.6916                                         !
 ! D120  D(38,41,42,44)        -37.9975                                         !
 ! D121  D(47,41,42,43)        -96.9426                                         !
 ! D122  D(47,41,42,44)         82.3683                                         !
 ! D123  D(48,41,42,43)         20.8942                                         !
 ! D124  D(48,41,42,44)       -159.795                                          !
 ! D125  D(41,42,43,49)        174.5864                                         !
 ! D126  D(41,42,43,50)          1.3246                                         !
 ! D127  D(44,42,43,49)         -4.7248                                         !
 ! D128  D(44,42,43,50)       -177.9867                                         !
 ! D129  D(39,51,52,53)       -100.4482                                         !
 ! D130  D(39,51,52,55)        130.5569                                         !
 ! D131  D(39,51,52,64)         14.7531                                         !
 ! D132  D(63,51,52,53)         63.4789                                         !
 ! D133  D(63,51,52,55)        -65.5159                                         !
 ! D134  D(63,51,52,64)        178.6803                                         !
 ! D135  D(51,52,53,54)          4.4174                                         !
 ! D136  D(51,52,53,62)       -177.1108                                         !
 ! D137  D(55,52,53,54)        132.103                                          !
 ! D138  D(55,52,53,62)        -49.4252                                         !
 ! D139  D(64,52,53,54)       -111.0258                                         !
 ! D140  D(64,52,53,62)         67.446                                          !
 ! D141  D(51,52,55,56)         45.6588                                         !
 ! D142  D(51,52,55,65)        170.6727                                         !
 ! D143  D(51,52,55,66)        -74.6986                                         !
 ! D144  D(53,52,55,56)        -81.9165                                         !
 ! D145  D(53,52,55,65)         43.0975                                         !
 ! D146  D(53,52,55,66)        157.7262                                         !
 ! D147  D(64,52,55,56)        161.4507                                         !
 ! D148  D(64,52,55,65)        -73.5353                                         !
 ! D149  D(64,52,55,66)         41.0934                                         !
 ! D150  D(52,55,56,57)         78.9594                                         !
 ! D151  D(52,55,56,67)       -163.0921                                         !
 ! D152  D(52,55,56,68)        -49.0774                                         !
 ! D153  D(65,55,56,57)        -44.1429                                         !
 ! D154  D(65,55,56,67)         73.8056                                         !
 ! D155  D(65,55,56,68)       -172.1797                                         !
 ! D156  D(66,55,56,57)       -160.5259                                         !
 ! D157  D(66,55,56,67)        -42.5774                                         !
 ! D158  D(66,55,56,68)         71.4373                                         !
 ! D159  D(55,56,57,58)        -61.9539                                         !
 ! D160  D(55,56,57,69)         57.3606                                         !
 ! D161  D(55,56,57,70)        173.9397                                         !
 ! D162  D(67,56,57,58)        178.8628                                         !
 ! D163  D(67,56,57,69)        -61.8227                                         !
 ! D164  D(67,56,57,70)         54.7563                                         !
 ! D165  D(68,56,57,58)         65.749                                          !
 ! D166  D(68,56,57,69)       -174.9366                                         !
 ! D167  D(68,56,57,70)        -58.3575                                         !
 ! D168  D(56,57,58,59)        -71.696                                          !
 ! D169  D(56,57,58,71)        101.3647                                         !
 ! D170  D(69,57,58,59)        166.7495                                         !
 ! D171  D(69,57,58,71)        -20.1899                                         !
 ! D172  D(70,57,58,59)         53.1599                                         !
 ! D173  D(70,57,58,71)       -133.7795                                         !
 ! D174  D(57,58,59,60)         -4.8469                                         !
 ! D175  D(57,58,59,61)        176.5008                                         !
 ! D176  D(71,58,59,60)       -177.9463                                         !
 ! D177  D(71,58,59,61)          3.4014                                         !
 ! D178  D(58,59,60,72)        164.1707                                         !
 ! D179  D(58,59,60,73)         -3.1565                                         !
 ! D180  D(61,59,60,72)        -17.1861                                         !
 ! D181  D(61,59,60,73)        175.4867                                         !
 ! D182  D(58,59,61,74)       -170.1073                                         !
 ! D183  D(58,59,61,75)        -39.8661                                         !
 ! D184  D(60,59,61,74)         11.2101                                         !
 ! D185  D(60,59,61,75)        141.4513                                         !
 --------------------------------------------------------------------------------
 Symmetry turned off by external request.
 Stoichiometry    C23H36N9O7(1+)
 Framework group  C1[X(C23H36N9O7)]
 Deg. of freedom   219
 Full point group                 C1      NOp   1
                          Input orientation:                          
 ---------------------------------------------------------------------
 Center     Atomic      Atomic             Coordinates (Angstroms)
 Number     Number       Type             X           Y           Z
 ---------------------------------------------------------------------
      1          7           0       -8.245722    2.106545   -7.100900
      2          6           0       -8.898720    0.761006   -6.903714
      3          6           0       -7.929089   -0.024181   -6.003419
      4          8           0       -7.453166    0.569016   -5.033816
      5          6           0       -9.226298    0.165176   -8.261029
      6          6           0      -10.032967    1.076611   -9.178920
      7          7           0      -10.458787    0.479592  -10.306353
      8          8           0      -10.226683    2.271366   -8.910905
      9          1           0       -8.901535    2.660212   -7.695161
     10          1           0       -9.807594    0.933601   -6.319003
     11          1           0       -8.291011   -0.044084   -8.772832
     12          1           0       -9.738095   -0.790031   -8.128264
     13          1           0      -10.928716    1.043758  -11.002452
     14          1           0      -10.177715   -0.468888  -10.551351
     15          1           0       -8.055799    2.529586   -6.186570
     16          1           0       -7.339864    1.945320   -7.583644
     17          7           0       -7.640137   -1.293999   -6.348007
     18          6           0       -7.033772   -2.209817   -5.391767
     19          6           0       -5.818488   -2.918125   -6.008615
     20          8           0       -5.720372   -4.154254   -5.999054
     21          6           0       -8.094621   -3.217102   -4.877472
     22          6           0       -9.372239   -2.498823   -4.508011
     23          6           0       -9.511192   -1.864046   -3.268895
     24          6           0      -10.399256   -2.364933   -5.453936
     25          6           0      -10.647870   -1.106547   -2.980420
     26          6           0      -11.537066   -1.607400   -5.170570
     27          6           0      -11.661459   -0.972005   -3.931767
     28          1           0       -7.978592   -1.714850   -7.227058
     29          1           0       -6.679151   -1.595332   -4.557114
     30          1           0       -8.293568   -3.951127   -5.663985
     31          1           0       -7.671444   -3.767646   -4.031763
     32          1           0       -8.721326   -1.955826   -2.526894
     33          1           0      -10.300109   -2.852414   -6.422283
     34          1           0      -10.742005   -0.622671   -2.012486
     35          1           0      -12.329455   -1.522922   -5.909673
     36          1           0      -12.548149   -0.386804   -3.705147
     37          7           0       -4.827185   -2.166463   -6.553102
     38          6           0       -4.801523   -0.744731   -6.890179
     39          6           0       -5.632800   -0.385459   -8.145122
     40          8           0       -6.062929    0.770461   -8.298195
     41          6           0       -3.338733   -0.301567   -7.118354
     42          6           0       -2.655876   -1.062568   -8.261062
     43          7           0       -1.811955   -0.343046   -9.029250
     44          8           0       -2.856364   -2.267598   -8.459071
     45          1           0       -4.069705   -2.700835   -6.976842
     46          1           0       -5.217039   -0.152560   -6.070963
     47          1           0       -2.764292   -0.485695   -6.202314
     48          1           0       -3.334191    0.776870   -7.302131
     49          1           0       -1.277356   -0.823501   -9.741567
     50          1           0       -1.616284    0.633018   -8.861229
     51          7           0       -5.782987   -1.375226   -9.034377
     52          6           0       -6.657521   -1.360827  -10.198188
     53          6           0       -7.985140   -2.149514   -9.928093
     54          8           0       -8.158984   -2.604162   -8.747003
     55          6           0       -5.911326   -1.799272  -11.478759
     56          6           0       -5.013058   -3.048057  -11.391137
     57          6           0       -5.716878   -4.413455  -11.441533
     58          7           0       -6.661427   -4.694944  -10.354532
     59          6           0       -6.357931   -4.955414   -9.078777
     60          7           0       -5.086337   -5.080085   -8.667625
     61          7           0       -7.360939   -5.122335   -8.193741
     62          8           0       -8.768139   -2.236322  -10.888386
     63          1           0       -5.437642   -2.279149   -8.744653
     64          1           0       -6.951048   -0.318288  -10.352039
     65          1           0       -6.668620   -1.922964  -12.259888
     66          1           0       -5.268031   -0.964993  -11.780373
     67          1           0       -4.344307   -3.035881  -12.261089
     68          1           0       -4.348487   -2.979540  -10.520517
     69          1           0       -6.301100   -4.490954  -12.361737
     70          1           0       -4.974267   -5.220434  -11.480020
     71          1           0       -7.646923   -4.586072  -10.565986
     72          1           0       -4.904009   -5.031862   -7.666085
     73          1           0       -4.306051   -5.030237   -9.304357
     74          1           0       -7.065900   -5.159606   -7.220745
     75          1           0       -8.130546   -4.461090   -8.349042
 ---------------------------------------------------------------------
 Rotational constants (GHZ):           0.1294249           0.0828625           0.0783331
 Standard basis: 6-31G(d) (6D, 7F)
   657 basis functions,  1236 primitive gaussians,   657 cartesian basis functions
   146 alpha electrons      146 beta electrons
       nuclear repulsion energy      5270.7078160885 Hartrees.
 NAtoms=   75 NActive=   75 NUniq=   75 SFac= 1.00D+00 NAtFMM=   60 NAOKFM=T Big=T
 Integral buffers will be    131072 words long.
 Raffenetti 2 integral format.
 Two-electron integral symmetry is turned off.
 Nuclear repulsion after empirical dispersion term =     5270.5774317142 Hartrees.
 One-electron integrals computed using PRISM.
 NBasis=   657 RedAO= T EigKep=  4.64D-04  NBF=   657
 NBsUse=   657 1.00D-06 EigRej= -1.00D+00 NBFU=   657
 Initial guess from the checkpoint file:  "conf-121.chk"
 B after Tr=     0.000000    0.000000    0.000000
         Rot=    1.000000    0.000000    0.000000    0.000000 Ang=   0.00 deg.
 Requested convergence on RMS density matrix=1.00D-08 within 128 cycles.
 Requested convergence on MAX density matrix=1.00D-06.
 Requested convergence on             energy=1.00D-06.
 No special actions if energy rises.
 SCF Done:  E(RB3LYP) =  -1917.53538372     A.U. after    1 cycles
            NFock=  1  Conv=0.87D-08     -V/T= 2.0093

 **********************************************************************

            Population analysis using the SCF Density.

 **********************************************************************

 Alpha  occ. eigenvalues --  -19.24197 -19.24141 -19.23907 -19.23226 -19.22877
 Alpha  occ. eigenvalues --  -19.19888 -19.18896 -14.54882 -14.49516 -14.49262
 Alpha  occ. eigenvalues --  -14.48094 -14.47553 -14.47435 -14.46553 -14.46436
 Alpha  occ. eigenvalues --  -14.45588 -10.44963 -10.41895 -10.41210 -10.40818
 Alpha  occ. eigenvalues --  -10.40615 -10.40304 -10.37423 -10.37208 -10.36013
 Alpha  occ. eigenvalues --  -10.34624 -10.34307 -10.32629 -10.32551 -10.30967
 Alpha  occ. eigenvalues --  -10.29810 -10.28885 -10.28715 -10.27918 -10.27086
 Alpha  occ. eigenvalues --  -10.27024 -10.26859 -10.26788 -10.26735  -1.16275
 Alpha  occ. eigenvalues --   -1.15685  -1.15438  -1.15080  -1.14280  -1.13890
 Alpha  occ. eigenvalues --   -1.12586  -1.09698  -1.05525  -1.04186  -1.03960
 Alpha  occ. eigenvalues --   -1.03514  -1.02860  -1.02707  -1.01161  -1.00869
 Alpha  occ. eigenvalues --   -0.93688  -0.91139  -0.90709  -0.89866  -0.87655
 Alpha  occ. eigenvalues --   -0.85325  -0.83077  -0.82323  -0.80369  -0.79832
 Alpha  occ. eigenvalues --   -0.78487  -0.75965  -0.75422  -0.72340  -0.71675
 Alpha  occ. eigenvalues --   -0.70919  -0.70679  -0.70350  -0.70085  -0.69643
 Alpha  occ. eigenvalues --   -0.68996  -0.68298  -0.67589  -0.66503  -0.66401
 Alpha  occ. eigenvalues --   -0.66040  -0.65200  -0.63760  -0.63530  -0.62590
 Alpha  occ. eigenvalues --   -0.62241  -0.61338  -0.61045  -0.60335  -0.59340
 Alpha  occ. eigenvalues --   -0.59075  -0.58445  -0.58248  -0.57903  -0.57158
 Alpha  occ. eigenvalues --   -0.56952  -0.56791  -0.56131  -0.55224  -0.54821
 Alpha  occ. eigenvalues --   -0.54289  -0.54048  -0.53491  -0.53407  -0.53244
 Alpha  occ. eigenvalues --   -0.52820  -0.52541  -0.52087  -0.51694  -0.51184
 Alpha  occ. eigenvalues --   -0.50892  -0.50620  -0.50489  -0.49901  -0.49849
 Alpha  occ. eigenvalues --   -0.49616  -0.48804  -0.48439  -0.48422  -0.47733
 Alpha  occ. eigenvalues --   -0.47402  -0.46480  -0.46092  -0.45834  -0.44747
 Alpha  occ. eigenvalues --   -0.44126  -0.43696  -0.42072  -0.41913  -0.40970
 Alpha  occ. eigenvalues --   -0.39889  -0.39426  -0.38694  -0.38331  -0.38195
 Alpha  occ. eigenvalues --   -0.37986  -0.37849  -0.37305  -0.36743  -0.36396
 Alpha  occ. eigenvalues --   -0.35885  -0.35316  -0.34227  -0.32861  -0.32465
 Alpha  occ. eigenvalues --   -0.32286
 Alpha virt. eigenvalues --   -0.11258  -0.10846  -0.10120  -0.09966  -0.09010
 Alpha virt. eigenvalues --   -0.08624  -0.08226  -0.07882  -0.06093  -0.04791
 Alpha virt. eigenvalues --   -0.03709  -0.03488  -0.02031  -0.01104  -0.00115
 Alpha virt. eigenvalues --   -0.00073   0.00393   0.00776   0.00981   0.01454
 Alpha virt. eigenvalues --    0.01728   0.02427   0.02693   0.03470   0.03671
 Alpha virt. eigenvalues --    0.03737   0.04589   0.04812   0.05198   0.05358
 Alpha virt. eigenvalues --    0.05806   0.05952   0.06310   0.06974   0.07077
 Alpha virt. eigenvalues --    0.07262   0.07495   0.08027   0.08151   0.08278
 Alpha virt. eigenvalues --    0.08800   0.08932   0.09420   0.09670   0.10330
 Alpha virt. eigenvalues --    0.10378   0.10834   0.11518   0.11613   0.11913
 Alpha virt. eigenvalues --    0.12552   0.12914   0.13356   0.13623   0.13954
 Alpha virt. eigenvalues --    0.14383   0.15050   0.15269   0.15966   0.17037
 Alpha virt. eigenvalues --    0.17667   0.18427   0.18807   0.19467   0.19670
 Alpha virt. eigenvalues --    0.21778   0.22696   0.23051   0.23713   0.24157
 Alpha virt. eigenvalues --    0.25142   0.25458   0.26127   0.26445   0.26900
 Alpha virt. eigenvalues --    0.27415   0.29131   0.29495   0.30015   0.30604
 Alpha virt. eigenvalues --    0.32656   0.34477   0.35658   0.36318   0.36843
 Alpha virt. eigenvalues --    0.37336   0.38142   0.39068   0.39617   0.40393
 Alpha virt. eigenvalues --    0.41006   0.41870   0.42412   0.42610   0.43702
 Alpha virt. eigenvalues --    0.43985   0.44801   0.45120   0.45792   0.46109
 Alpha virt. eigenvalues --    0.46598   0.46812   0.47217   0.47308   0.47825
 Alpha virt. eigenvalues --    0.47943   0.48340   0.48508   0.49332   0.50006
 Alpha virt. eigenvalues --    0.50207   0.50682   0.51074   0.51347   0.51769
 Alpha virt. eigenvalues --    0.52000   0.52194   0.52867   0.53213   0.53815
 Alpha virt. eigenvalues --    0.54060   0.54469   0.54582   0.54799   0.54864
 Alpha virt. eigenvalues --    0.55353   0.55731   0.55932   0.56582   0.56629
 Alpha virt. eigenvalues --    0.57670   0.58223   0.58702   0.58922   0.59546
 Alpha virt. eigenvalues --    0.60108   0.60577   0.60941   0.61054   0.61750
 Alpha virt. eigenvalues --    0.62690   0.63237   0.63467   0.64101   0.65178
 Alpha virt. eigenvalues --    0.65825   0.66327   0.66735   0.66878   0.68321
 Alpha virt. eigenvalues --    0.68839   0.69427   0.69694   0.69919   0.70753
 Alpha virt. eigenvalues --    0.71464   0.71670   0.71998   0.72355   0.73155
 Alpha virt. eigenvalues --    0.73996   0.74287   0.74546   0.75056   0.75176
 Alpha virt. eigenvalues --    0.75363   0.75504   0.76301   0.76410   0.76992
 Alpha virt. eigenvalues --    0.77230   0.77390   0.77755   0.78235   0.78521
 Alpha virt. eigenvalues --    0.79172   0.79308   0.79378   0.79799   0.80008
 Alpha virt. eigenvalues --    0.80484   0.81125   0.81474   0.81904   0.82188
 Alpha virt. eigenvalues --    0.82873   0.83484   0.83774   0.84136   0.84646
 Alpha virt. eigenvalues --    0.84795   0.84907   0.86103   0.86621   0.87318
 Alpha virt. eigenvalues --    0.87637   0.88072   0.88227   0.89533   0.90207
 Alpha virt. eigenvalues --    0.91231   0.91643   0.92057   0.92554   0.92784
 Alpha virt. eigenvalues --    0.93704   0.94117   0.94730   0.95209   0.96580
 Alpha virt. eigenvalues --    0.97263   0.97831   0.98658   0.98838   0.99554
 Alpha virt. eigenvalues --    0.99920   1.00808   1.02119   1.02584   1.03277
 Alpha virt. eigenvalues --    1.04002   1.04746   1.06177   1.06434   1.07540
 Alpha virt. eigenvalues --    1.07801   1.08256   1.09261   1.09433   1.10450
 Alpha virt. eigenvalues --    1.11147   1.11513   1.12780   1.13398   1.13937
 Alpha virt. eigenvalues --    1.14584   1.15292   1.15631   1.16239   1.17033
 Alpha virt. eigenvalues --    1.17853   1.18582   1.19178   1.19877   1.20625
 Alpha virt. eigenvalues --    1.21355   1.21785   1.21898   1.23191   1.24683
 Alpha virt. eigenvalues --    1.25155   1.26776   1.27593   1.28173   1.29159
 Alpha virt. eigenvalues --    1.29255   1.29731   1.30179   1.31100   1.32262
 Alpha virt. eigenvalues --    1.33639   1.33794   1.34104   1.34849   1.35665
 Alpha virt. eigenvalues --    1.36159   1.36892   1.37567   1.38247   1.39253
 Alpha virt. eigenvalues --    1.39733   1.40401   1.40778   1.41492   1.43128
 Alpha virt. eigenvalues --    1.43266   1.43409   1.45205   1.45887   1.47088
 Alpha virt. eigenvalues --    1.48135   1.48701   1.49451   1.49861   1.51765
 Alpha virt. eigenvalues --    1.52513   1.53635   1.54233   1.55229   1.56608
 Alpha virt. eigenvalues --    1.56709   1.57293   1.57831   1.59193   1.59907
 Alpha virt. eigenvalues --    1.61206   1.61928   1.62203   1.62937   1.63224
 Alpha virt. eigenvalues --    1.63818   1.64527   1.65444   1.66254   1.66851
 Alpha virt. eigenvalues --    1.66991   1.68566   1.69103   1.69625   1.70337
 Alpha virt. eigenvalues --    1.70604   1.70845   1.71640   1.72119   1.72383
 Alpha virt. eigenvalues --    1.72954   1.73290   1.73961   1.74241   1.74917
 Alpha virt. eigenvalues --    1.75189   1.75933   1.76428   1.77471   1.77850
 Alpha virt. eigenvalues --    1.78684   1.78888   1.79447   1.79721   1.80998
 Alpha virt. eigenvalues --    1.81469   1.81878   1.82663   1.83174   1.83675
 Alpha virt. eigenvalues --    1.84757   1.84943   1.85565   1.85816   1.86875
 Alpha virt. eigenvalues --    1.87373   1.87978   1.89024   1.89448   1.89779
 Alpha virt. eigenvalues --    1.90218   1.90332   1.92214   1.92678   1.93111
 Alpha virt. eigenvalues --    1.93687   1.93853   1.94639   1.95296   1.96321
 Alpha virt. eigenvalues --    1.96680   1.97065   1.97221   1.98133   1.98328
 Alpha virt. eigenvalues --    1.98922   2.00261   2.01754   2.02043   2.02633
 Alpha virt. eigenvalues --    2.03224   2.03472   2.04520   2.04871   2.06230
 Alpha virt. eigenvalues --    2.06509   2.06970   2.07675   2.08117   2.09719
 Alpha virt. eigenvalues --    2.10790   2.11344   2.11761   2.12657   2.14096
 Alpha virt. eigenvalues --    2.14865   2.15116   2.15431   2.17383   2.17566
 Alpha virt. eigenvalues --    2.17766   2.18665   2.19524   2.20273   2.20666
 Alpha virt. eigenvalues --    2.21588   2.22393   2.22944   2.23369   2.24806
 Alpha virt. eigenvalues --    2.26139   2.27974   2.28583   2.29950   2.30375
 Alpha virt. eigenvalues --    2.30804   2.31041   2.32141   2.32378   2.34338
 Alpha virt. eigenvalues --    2.34969   2.36026   2.36783   2.37219   2.38090
 Alpha virt. eigenvalues --    2.38662   2.40256   2.40938   2.42288   2.42985
 Alpha virt. eigenvalues --    2.43745   2.44387   2.46977   2.47556   2.48860
 Alpha virt. eigenvalues --    2.49243   2.49819   2.49854   2.50274   2.51244
 Alpha virt. eigenvalues --    2.51400   2.52466   2.53020   2.53235   2.54478
 Alpha virt. eigenvalues --    2.55491   2.56586   2.57116   2.57941   2.58870
 Alpha virt. eigenvalues --    2.59899   2.60951   2.61713   2.61944   2.63892
 Alpha virt. eigenvalues --    2.64519   2.65801   2.66402   2.67194   2.68724
 Alpha virt. eigenvalues --    2.69893   2.72408   2.75057   2.75986   2.76547
 Alpha virt. eigenvalues --    2.78004   2.82014   2.84581   2.86689   2.87190
 Alpha virt. eigenvalues --    2.88766   2.89876   2.90071   2.90611   2.92340
 Alpha virt. eigenvalues --    2.93945   2.94357   2.96032   2.97370   2.98234
 Alpha virt. eigenvalues --    2.99629   3.00110   3.04173   3.06831   3.08444
 Alpha virt. eigenvalues --    3.11648   3.33087   3.68892   3.71832   3.74787
 Alpha virt. eigenvalues --    3.76265   3.79852   3.87249   3.89637   3.92204
 Alpha virt. eigenvalues --    3.97402   3.98403   4.00743   4.02104   4.03995
 Alpha virt. eigenvalues --    4.07665   4.10156   4.10511   4.12741   4.14617
 Alpha virt. eigenvalues --    4.16969   4.18888   4.19253   4.20935   4.24836
 Alpha virt. eigenvalues --    4.27998   4.32469   4.34739   4.36437   4.38269
 Alpha virt. eigenvalues --    4.40732   4.42131   4.43105   4.47320   4.48264
 Alpha virt. eigenvalues --    4.53862   4.57454   4.61330   4.62985   4.67697
 Alpha virt. eigenvalues --    4.72224
          Condensed to atoms (all electrons):
 Mulliken charges:
               1
     1  N   -0.761837
     2  C   -0.115437
     3  C    0.652027
     4  O   -0.547474
     5  C   -0.437169
     6  C    0.626066
     7  N   -0.752921
     8  O   -0.547559
     9  H    0.429108
    10  H    0.235796
    11  H    0.208252
    12  H    0.227943
    13  H    0.362631
    14  H    0.391277
    15  H    0.406901
    16  H    0.433921
    17  N   -0.672562
    18  C   -0.070794
    19  C    0.629579
    20  O   -0.557691
    21  C   -0.358610
    22  C    0.162197
    23  C   -0.168580
    24  C   -0.202834
    25  C   -0.128131
    26  C   -0.145773
    27  C   -0.134984
    28  H    0.438711
    29  H    0.215464
    30  H    0.147560
    31  H    0.182414
    32  H    0.138102
    33  H    0.136618
    34  H    0.150683
    35  H    0.144413
    36  H    0.149260
    37  N   -0.629491
    38  C   -0.059988
    39  C    0.644351
    40  O   -0.608323
    41  C   -0.392887
    42  C    0.619328
    43  N   -0.728099
    44  O   -0.546007
    45  H    0.370782
    46  H    0.207403
    47  H    0.215966
    48  H    0.186783
    49  H    0.364638
    50  H    0.363564
    51  N   -0.567122
    52  C   -0.083178
    53  C    0.592382
    54  O   -0.651076
    55  C   -0.273834
    56  C   -0.312598
    57  C   -0.169584
    58  N   -0.584413
    59  C    0.750514
    60  N   -0.774958
    61  N   -0.760111
    62  O   -0.561423
    63  H    0.356127
    64  H    0.186295
    65  H    0.182783
    66  H    0.155997
    67  H    0.171087
    68  H    0.162240
    69  H    0.198241
    70  H    0.175814
    71  H    0.383883
    72  H    0.399100
    73  H    0.377305
    74  H    0.386449
    75  H    0.385492
 Sum of Mulliken charges =   1.00000
 Mulliken charges with hydrogens summed into heavy atoms:
               1
     1  N    0.508093
     2  C    0.120360
     3  C    0.652027
     4  O   -0.547474
     5  C   -0.000974
     6  C    0.626066
     7  N    0.000987
     8  O   -0.547559
    17  N   -0.233851
    18  C    0.144671
    19  C    0.629579
    20  O   -0.557691
    21  C   -0.028636
    22  C    0.162197
    23  C   -0.030478
    24  C   -0.066217
    25  C    0.022552
    26  C   -0.001360
    27  C    0.014276
    37  N   -0.258709
    38  C    0.147415
    39  C    0.644351
    40  O   -0.608323
    41  C    0.009862
    42  C    0.619328
    43  N    0.000102
    44  O   -0.546007
    51  N   -0.210995
    52  C    0.103117
    53  C    0.592382
    54  O   -0.651076
    55  C    0.064945
    56  C    0.020729
    57  C    0.204471
    58  N   -0.200530
    59  C    0.750514
    60  N    0.001447
    61  N    0.011831
    62  O   -0.561423
 Electronic spatial extent (au):  <R**2>=         134599.5805
 Charge=              1.0000 electrons
 Dipole moment (field-independent basis, Debye):
    X=            -27.0411    Y=             -5.0197    Z=            -40.3554  Tot=             48.8362
 Quadrupole moment (field-independent basis, Debye-Ang):
   XX=            -23.0859   YY=           -183.9832   ZZ=            144.6119
   XY=             20.8659   XZ=            211.0564   YZ=             58.9898
 Traceless Quadrupole moment (field-independent basis, Debye-Ang):
   XX=             -2.2668   YY=           -163.1641   ZZ=            165.4310
   XY=             20.8659   XZ=            211.0564   YZ=             58.9898
 Octapole moment (field-independent basis, Debye-Ang**2):
  XXX=           3114.7086  YYY=            940.1114  ZZZ=           1575.9553  XYY=           1412.4697
  XXY=            315.5112  XXZ=            242.4951  XZZ=           -247.8178  YZZ=           -321.6782
  YYZ=           1319.6514  XYZ=           -265.6869
 Hexadecapole moment (field-independent basis, Debye-Ang**3):
 XXXX=         -61727.6693 YYYY=          -7942.1068 ZZZZ=         -49912.9664 XXXY=          -7425.4515
 XXXZ=         -23606.9509 YYYX=          -6375.4855 YYYZ=          -6995.2690 ZZZX=         -17833.5527
 ZZZY=           -909.8907 XXYY=         -13590.0190 XXZZ=         -14780.8092 YYZZ=         -11783.2817
 XXYZ=          -1955.9465 YYXZ=          -9927.4465 ZZXY=            756.7805
 N-N= 5.270577431714D+03 E-N=-1.498100028785D+04  KE= 1.899826664554D+03
 Unable to Open any file for archive entry.
 1\1\GINC-AMR-182\SP\RB3LYP\6-31G(d)\C23H36N9O7(1+)\KENGMITH\03-Jun-202
 2\0\\# B3LYP/6-31G* empiricaldispersion=gd3 guess=read geom=check nosy
 mm integral(ultrafinegrid)\\Candidate Structure: Conf:121 Charge calc 
 in gas phase\\1,1\N,0,-8.2457215314,2.1065448739,-7.1009001943\C,0,-8.
 898720468,0.7610060433,-6.9037141242\C,0,-7.9290886422,-0.0241810591,-
 6.0034188799\O,0,-7.4531660733,0.5690155396,-5.0338160187\C,0,-9.22629
 81245,0.1651757918,-8.2610290964\C,0,-10.0329668585,1.0766114933,-9.17
 89204454\N,0,-10.4587868297,0.4795916927,-10.3063527679\O,0,-10.226682
 8518,2.2713662009,-8.9109050432\H,0,-8.901535366,2.6602116614,-7.69516
 05475\H,0,-9.8075942449,0.9336009088,-6.3190034481\H,0,-8.2910106046,-
 0.0440840559,-8.7728323788\H,0,-9.7380945347,-0.7900308425,-8.12826367
 95\H,0,-10.9287164256,1.0437578479,-11.0024517482\H,0,-10.177715166,-0
 .4688882109,-10.5513509655\H,0,-8.0557987491,2.529585582,-6.1865702383
 \H,0,-7.33986377,1.9453196607,-7.583644429\N,0,-7.6401365849,-1.293999
 4136,-6.3480068651\C,0,-7.0337718387,-2.209817216,-5.3917673352\C,0,-5
 .8184884865,-2.918125448,-6.0086154794\O,0,-5.7203720773,-4.1542541691
 ,-5.9990538498\C,0,-8.0946205846,-3.2171023553,-4.8774715471\C,0,-9.37
 22385059,-2.4988225434,-4.5080107008\C,0,-9.5111916549,-1.864046074,-3
 .2688950147\C,0,-10.399256178,-2.3649333899,-5.4539363111\C,0,-10.6478
 704888,-1.1065472868,-2.9804195083\C,0,-11.5370655604,-1.60740047,-5.1
 705695024\C,0,-11.6614588444,-0.9720046816,-3.9317672058\H,0,-7.978592
 1742,-1.7148501426,-7.2270582475\H,0,-6.679150608,-1.595331983,-4.5571
 140189\H,0,-8.2935680955,-3.951126521,-5.663984924\H,0,-7.6714435278,-
 3.7676455688,-4.0317632482\H,0,-8.721325678,-1.955826094,-2.5268944876
 \H,0,-10.300109108,-2.8524141063,-6.4222829508\H,0,-10.7420053892,-0.6
 22670512,-2.0124863491\H,0,-12.3294548953,-1.5229215331,-5.9096727621\
 H,0,-12.5481492968,-0.3868042778,-3.7051474224\N,0,-4.82718488,-2.1664
 627315,-6.5531017536\C,0,-4.8015232495,-0.7447314152,-6.8901792027\C,0
 ,-5.6327998969,-0.3854588439,-8.1451216244\O,0,-6.0629293183,0.7704605
 753,-8.2981951507\C,0,-3.3387333818,-0.3015666156,-7.1183536967\C,0,-2
 .6558759891,-1.0625676994,-8.2610623251\N,0,-1.8119552581,-0.343045510
 8,-9.0292497331\O,0,-2.856364414,-2.2675977736,-8.4590706257\H,0,-4.06
 97045558,-2.7008346934,-6.9768416753\H,0,-5.2170385979,-0.1525600528,-
 6.0709634996\H,0,-2.7642919685,-0.4856948176,-6.2023135332\H,0,-3.3341
 907007,0.7768704509,-7.3021311528\H,0,-1.2773562622,-0.8235009323,-9.7
 41566781\H,0,-1.6162840586,0.6330183921,-8.8612293997\N,0,-5.782986722
 3,-1.3752255696,-9.0343768096\C,0,-6.6575209621,-1.3608266827,-10.1981
 875424\C,0,-7.9851397698,-2.1495135345,-9.9280929882\O,0,-8.1589844972
 ,-2.604162406,-8.7470030543\C,0,-5.9113264719,-1.7992719197,-11.478759
 1368\C,0,-5.0130583262,-3.0480572432,-11.3911370001\C,0,-5.7168779346,
 -4.4134547818,-11.4415326697\N,0,-6.6614272291,-4.6949443379,-10.35453
 23875\C,0,-6.3579305779,-4.9554144132,-9.0787770711\N,0,-5.0863370181,
 -5.0800850662,-8.6676252554\N,0,-7.3609387974,-5.1223349673,-8.1937408
 991\O,0,-8.7681387596,-2.2363218291,-10.8883856475\H,0,-5.4376423729,-
 2.2791494859,-8.7446527286\H,0,-6.9510480914,-0.3182875003,-10.3520393
 81\H,0,-6.6686201351,-1.9229639493,-12.2598875568\H,0,-5.2680311518,-0
 .9649928013,-11.7803727707\H,0,-4.3443072637,-3.0358811319,-12.2610891
 86\H,0,-4.3484872204,-2.9795399421,-10.5205171871\H,0,-6.3010996315,-4
 .4909535484,-12.3617369285\H,0,-4.974267407,-5.2204344293,-11.48001961
 27\H,0,-7.646923138,-4.5860715888,-10.5659861087\H,0,-4.904009011,-5.0
 318618361,-7.6660854986\H,0,-4.3060513687,-5.03023718,-9.3043569877\H,
 0,-7.0658996854,-5.1596060183,-7.2207445734\H,0,-8.130545528,-4.461090
 4608,-8.3490417798\\Version=ES64L-G16RevC.01\HF=-1917.5353837\RMSD=8.6
 82e-09\Dipole=2.890069,1.0205378,-1.2923352\Quadrupole=-1.6853452,-121
 .308545,122.9938902,15.513287,156.9152685,43.8574997\PG=C01 [X(C23H36N
 9O7)]\\@
 The archive entry for this job was punched.


    THE DOUGHNUT CREED
 AS YOU RAMBLE ON THROUGH LIFE, BROTHER
 WHATEVER BE YOUR GOAL
 KEEP YOUR EYE UPON THE DOUGHNUT
 AND NOT UPON THE HOLE.
 Job cpu time:       0 days  0 hours  2 minutes  3.1 seconds.
 Elapsed time:       0 days  0 hours  0 minutes 31.6 seconds.
 File lengths (MBytes):  RWF=    344 Int=      0 D2E=      0 Chk=     48 Scr=     16
 Normal termination of Gaussian 16 at Fri Jun  3 06:00:30 2022.
