 Entering Gaussian System, Link 0=/opt/software/Gaussian/g16-AVX2-C.01/g16/g16
 Input=charge-conf-684.com
 Output=charge-conf-684.log
 Initial command:
 /opt/software/Gaussian/g16-AVX2-C.01/g16/l1.exe "/mnt/gs18/scratch/users/kengmith/Gau-118295.inp" -scrdir="/mnt/gs18/scratch/users/kengmith/"
 Entering Link 1 = /opt/software/Gaussian/g16-AVX2-C.01/g16/l1.exe PID=    118333.
  
 Copyright (c) 1988-2019, Gaussian, Inc.  All Rights Reserved.
  
 This is part of the Gaussian(R) 16 program.  It is based on
 the Gaussian(R) 09 system (copyright 2009, Gaussian, Inc.),
 the Gaussian(R) 03 system (copyright 2003, Gaussian, Inc.),
 the Gaussian(R) 98 system (copyright 1998, Gaussian, Inc.),
 the Gaussian(R) 94 system (copyright 1995, Gaussian, Inc.),
 the Gaussian 92(TM) system (copyright 1992, Gaussian, Inc.),
 the Gaussian 90(TM) system (copyright 1990, Gaussian, Inc.),
 the Gaussian 88(TM) system (copyright 1988, Gaussian, Inc.),
 the Gaussian 86(TM) system (copyright 1986, Carnegie Mellon
 University), and the Gaussian 82(TM) system (copyright 1983,
 Carnegie Mellon University). Gaussian is a federally registered
 trademark of Gaussian, Inc.
  
 This software contains proprietary and confidential information,
 including trade secrets, belonging to Gaussian, Inc.
  
 This software is provided under written license and may be
 used, copied, transmitted, or stored only in accord with that
 written license.
  
 The following legend is applicable only to US Government
 contracts under FAR:
  
                    RESTRICTED RIGHTS LEGEND
  
 Use, reproduction and disclosure by the US Government is
 subject to restrictions as set forth in subparagraphs (a)
 and (c) of the Commercial Computer Software - Restricted
 Rights clause in FAR 52.227-19.
  
 Gaussian, Inc.
 340 Quinnipiac St., Bldg. 40, Wallingford CT 06492
  
  
 ---------------------------------------------------------------
 Warning -- This program may not be used in any manner that
 competes with the business of Gaussian, Inc. or will provide
 assistance to any competitor of Gaussian, Inc.  The licensee
 of this program is prohibited from giving any competitor of
 Gaussian, Inc. access to this program.  By using this program,
 the user acknowledges that Gaussian, Inc. is engaged in the
 business of creating and licensing software in the field of
 computational chemistry and represents and warrants to the
 licensee that it is not a competitor of Gaussian, Inc. and that
 it will not use this program in any manner prohibited above.
 ---------------------------------------------------------------
  

 Cite this work as:
 Gaussian 16, Revision C.01,
 M. J. Frisch, G. W. Trucks, H. B. Schlegel, G. E. Scuseria, 
 M. A. Robb, J. R. Cheeseman, G. Scalmani, V. Barone, 
 G. A. Petersson, H. Nakatsuji, X. Li, M. Caricato, A. V. Marenich, 
 J. Bloino, B. G. Janesko, R. Gomperts, B. Mennucci, H. P. Hratchian, 
 J. V. Ortiz, A. F. Izmaylov, J. L. Sonnenberg, D. Williams-Young, 
 F. Ding, F. Lipparini, F. Egidi, J. Goings, B. Peng, A. Petrone, 
 T. Henderson, D. Ranasinghe, V. G. Zakrzewski, J. Gao, N. Rega, 
 G. Zheng, W. Liang, M. Hada, M. Ehara, K. Toyota, R. Fukuda, 
 J. Hasegawa, M. Ishida, T. Nakajima, Y. Honda, O. Kitao, H. Nakai, 
 T. Vreven, K. Throssell, J. A. Montgomery, Jr., J. E. Peralta, 
 F. Ogliaro, M. J. Bearpark, J. J. Heyd, E. N. Brothers, K. N. Kudin, 
 V. N. Staroverov, T. A. Keith, R. Kobayashi, J. Normand, 
 K. Raghavachari, A. P. Rendell, J. C. Burant, S. S. Iyengar, 
 J. Tomasi, M. Cossi, J. M. Millam, M. Klene, C. Adamo, R. Cammi, 
 J. W. Ochterski, R. L. Martin, K. Morokuma, O. Farkas, 
 J. B. Foresman, and D. J. Fox, Gaussian, Inc., Wallingford CT, 2019.
 
 ******************************************
 Gaussian 16:  ES64L-G16RevC.01  3-Jul-2019
                 3-Jun-2022 
 ******************************************
 %mem=8gb
 %nproc=4
 Will use up to    4 processors via shared memory.
 %chk=conf-684.chk
 ----------------------------------------------------------------------
 # B3LYP/6-31G* empiricaldispersion=gd3 guess=read geom=check nosymm in
 tegral(ultrafinegrid)
 ----------------------------------------------------------------------
 1/29=2,38=1,172=1/1;
 2/12=2,15=1,40=1/2;
 3/5=1,6=6,7=1,11=2,14=-4,25=1,30=1,74=-5,75=-5,116=-2,124=31/1,2,3;
 4/5=1/1;
 5/5=2,38=6/2;
 6/7=2,8=2,9=2,10=2,28=1/1;
 99/5=1,9=1/99;
 ------------------------------------------------------
 Candidate Structure: Conf:684 Charge calc in gas phase
 ------------------------------------------------------
 Structure from the checkpoint file:  "conf-684.chk"
 Charge =  1 Multiplicity = 1
 Redundant internal coordinates found in file.  (old form).
 N,0,-9.8966743368,0.8401021143,-6.493457634
 C,0,-9.7227654238,-0.5840566524,-6.0342625876
 C,0,-8.3232330449,-0.7064963365,-5.4005260793
 O,0,-7.9847391913,0.0912136817,-4.5348531334
 C,0,-10.0978623798,-1.5604554583,-7.1463358821
 C,0,-11.4610680531,-1.2001626904,-7.7503572945
 N,0,-11.6814067253,-1.7095140288,-8.9861616203
 O,0,-12.2755953165,-0.5520857953,-7.093470642
 H,0,-9.3851720064,1.4693421423,-5.8646783603
 H,0,-10.427996043,-0.7045170418,-5.2072881304
 H,0,-9.3420631186,-1.6034447317,-7.931869577
 H,0,-10.1833184677,-2.5627167109,-6.7096062538
 H,0,-12.5306968347,-1.3799715757,-9.4314507563
 H,0,-10.8638027843,-1.7705615437,-9.595800515
 H,0,-9.5455889729,0.9667363082,-7.4790321706
 H,0,-10.905482781,1.0379370979,-6.5090774054
 N,0,-7.5522478923,-1.7340494523,-5.8366307809
 C,0,-6.3423989554,-2.1857436616,-5.1585526085
 C,0,-5.211435468,-2.2950892931,-6.1946271625
 O,0,-4.6753001967,-3.3826529683,-6.4451350935
 C,0,-6.5765074974,-3.5199205358,-4.3982197797
 C,0,-7.2805647462,-4.5901460919,-5.2094627206
 C,0,-8.6774535431,-4.5682445673,-5.3396425402
 C,0,-6.5684727489,-5.6035682569,-5.870467642
 C,0,-9.3445051044,-5.4926341899,-6.1487437216
 C,0,-7.2325106445,-6.5383809481,-6.6705556131
 C,0,-8.6211662328,-6.4755550977,-6.8268282625
 H,0,-7.8914765574,-2.3371806301,-6.5735042407
 H,0,-6.0904698977,-1.4099588609,-4.4288892048
 H,0,-5.6073629397,-3.8800457187,-4.0427060815
 H,0,-7.1799520134,-3.2735920838,-3.5177319267
 H,0,-9.2508018066,-3.8267180497,-4.7883007684
 H,0,-5.4902049706,-5.645643943,-5.7663761132
 H,0,-10.4273091495,-5.4562885866,-6.2323510828
 H,0,-6.6646926248,-7.3213085176,-7.1658899902
 H,0,-9.1353178034,-7.2022040567,-7.4490308278
 N,0,-4.8368351994,-1.1782264634,-6.8624725245
 C,0,-5.2834946554,0.2028661214,-6.7170600254
 C,0,-6.4577286974,0.6260419274,-7.6304032378
 O,0,-7.2901297141,1.4259749915,-7.2027246275
 C,0,-4.0895702608,1.1547781713,-6.9551160224
 C,0,-3.4492433993,1.0104808649,-8.341094302
 N,0,-2.7810459397,2.0894224368,-8.7916765416
 O,0,-3.5171500021,-0.0374712747,-9.0022460687
 H,0,-4.1259220833,-1.3186379966,-7.5746525729
 H,0,-5.6541639581,0.3712308415,-5.7038812825
 H,0,-3.3135562652,0.9449550426,-6.2077755783
 H,0,-4.4278993275,2.1834372493,-6.7922420275
 H,0,-2.2715527378,2.0168662878,-9.6631939858
 H,0,-2.6979712462,2.9431307442,-8.2581175873
 N,0,-6.4681205143,0.1325303922,-8.8884514483
 C,0,-7.3928026432,0.6601135639,-9.9075728688
 C,0,-8.7722612831,-0.0452347008,-9.7514758638
 O,0,-8.9003052456,-1.2555048173,-10.142601467
 C,0,-6.7439272749,0.6661180047,-11.30629229
 C,0,-6.5543432238,-0.6348309959,-12.1121980415
 C,0,-5.7191228078,-1.7437353319,-11.453258233
 N,0,-6.5514729005,-2.4381637024,-10.4669470266
 C,0,-6.1253309747,-3.1499175007,-9.4386117884
 N,0,-4.8324913512,-3.4629891623,-9.2465472779
 N,0,-7.0417153235,-3.5712494987,-8.5193484237
 O,0,-9.6636494187,0.6105613027,-9.1701526157
 H,0,-5.6438793004,-0.371028229,-9.1852309243
 H,0,-7.5794738203,1.7014698485,-9.6337000621
 H,0,-7.352408239,1.3360088592,-11.9246483661
 H,0,-5.7674277116,1.1587484701,-11.1962729356
 H,0,-7.5289835429,-1.0500091436,-12.3900173504
 H,0,-6.0549405831,-0.3609656059,-13.0479793999
 H,0,-5.3828343003,-2.4614359538,-12.2106951638
 H,0,-4.8222163066,-1.3143724736,-10.9807904329
 H,0,-7.5413151079,-2.0811843582,-10.4100026347
 H,0,-4.5383581736,-3.6967144277,-8.2918678355
 H,0,-4.1367118785,-3.0224268522,-9.8324816555
 H,0,-6.7889057831,-4.3512778376,-7.9172917179
 H,0,-8.005452412,-3.5838687728,-8.8314567794
 Recover connectivity data from disk.
                           ----------------------------
                           !    Current Parameters    !
                           ! (Angstroms and Degrees)  !
 --------------------------                            --------------------------
 ! Name  Definition              Value                                          !
 --------------------------------------------------------------------------------
 ! R1    R(1,2)                  1.5064                                         !
 ! R2    R(1,9)                  1.0261                                         !
 ! R3    R(1,15)                 1.0539                                         !
 ! R4    R(1,16)                 1.0281                                         !
 ! R5    R(2,3)                  1.5412                                         !
 ! R6    R(2,5)                  1.5267                                         !
 ! R7    R(2,10)                 1.0935                                         !
 ! R8    R(3,4)                  1.2249                                         !
 ! R9    R(3,17)                 1.3566                                         !
 ! R10   R(5,6)                  1.5339                                         !
 ! R11   R(5,11)                 1.0909                                         !
 ! R12   R(5,12)                 1.0966                                         !
 ! R13   R(6,7)                  1.3547                                         !
 ! R14   R(6,8)                  1.2308                                         !
 ! R15   R(7,13)                 1.014                                          !
 ! R16   R(7,14)                 1.0217                                         !
 ! R17   R(17,18)                1.4586                                         !
 ! R18   R(17,28)                1.0109                                         !
 ! R19   R(18,19)                1.5377                                         !
 ! R20   R(18,21)                1.5534                                         !
 ! R21   R(18,29)                1.0944                                         !
 ! R22   R(19,20)                1.2381                                         !
 ! R23   R(19,37)                1.3542                                         !
 ! R24   R(21,22)                1.5163                                         !
 ! R25   R(21,30)                1.0933                                         !
 ! R26   R(21,31)                1.0955                                         !
 ! R27   R(22,23)                1.4031                                         !
 ! R28   R(22,24)                1.4039                                         !
 ! R29   R(23,25)                1.3979                                         !
 ! R30   R(23,32)                1.0875                                         !
 ! R31   R(24,26)                1.3982                                         !
 ! R32   R(24,33)                1.0841                                         !
 ! R33   R(25,27)                1.3961                                         !
 ! R34   R(25,34)                1.0866                                         !
 ! R35   R(26,27)                1.3988                                         !
 ! R36   R(26,35)                1.0866                                         !
 ! R37   R(27,36)                1.0861                                         !
 ! R38   R(37,38)                1.4588                                         !
 ! R39   R(37,45)                1.016                                          !
 ! R40   R(38,39)                1.5466                                         !
 ! R41   R(38,41)                1.5454                                         !
 ! R42   R(38,46)                1.0919                                         !
 ! R43   R(39,40)                1.2311                                         !
 ! R44   R(39,51)                1.3514                                         !
 ! R45   R(41,42)                1.5336                                         !
 ! R46   R(41,47)                1.0976                                         !
 ! R47   R(41,48)                1.095                                          !
 ! R48   R(42,43)                1.3467                                         !
 ! R49   R(42,44)                1.2409                                         !
 ! R50   R(43,49)                1.0121                                         !
 ! R51   R(43,50)                1.0102                                         !
 ! R52   R(51,52)                1.4738                                         !
 ! R53   R(51,63)                1.0105                                         !
 ! R54   R(52,53)                1.5572                                         !
 ! R55   R(52,55)                1.5419                                         !
 ! R56   R(52,64)                1.0928                                         !
 ! R57   R(53,54)                1.2783                                         !
 ! R58   R(53,62)                1.25                                           !
 ! R59   R(55,56)                1.542                                          !
 ! R60   R(55,65)                1.0961                                         !
 ! R61   R(55,66)                1.0992                                         !
 ! R62   R(56,57)                1.5367                                         !
 ! R63   R(56,67)                1.0952                                         !
 ! R64   R(56,68)                1.0955                                         !
 ! R65   R(57,58)                1.4656                                         !
 ! R66   R(57,69)                1.0963                                         !
 ! R67   R(57,70)                1.1009                                         !
 ! R68   R(58,59)                1.3212                                         !
 ! R69   R(58,71)                1.0538                                         !
 ! R70   R(59,60)                1.344                                          !
 ! R71   R(59,61)                1.3647                                         !
 ! R72   R(60,72)                1.0259                                         !
 ! R73   R(60,73)                1.0107                                         !
 ! R74   R(61,74)                1.0173                                         !
 ! R75   R(61,75)                1.0131                                         !
 ! A1    A(2,1,9)              109.5965                                         !
 ! A2    A(2,1,15)             111.1129                                         !
 ! A3    A(2,1,16)             107.4465                                         !
 ! A4    A(9,1,15)             109.4697                                         !
 ! A5    A(9,1,16)             112.3596                                         !
 ! A6    A(15,1,16)            106.8306                                         !
 ! A7    A(1,2,3)              107.775                                          !
 ! A8    A(1,2,5)              110.7458                                         !
 ! A9    A(1,2,10)             105.0829                                         !
 ! A10   A(3,2,5)              118.1529                                         !
 ! A11   A(3,2,10)             105.4217                                         !
 ! A12   A(5,2,10)             108.7822                                         !
 ! A13   A(2,3,4)              119.3288                                         !
 ! A14   A(2,3,17)             116.3629                                         !
 ! A15   A(4,3,17)             124.2926                                         !
 ! A16   A(2,5,6)              110.791                                          !
 ! A17   A(2,5,11)             112.3022                                         !
 ! A18   A(2,5,12)             108.275                                          !
 ! A19   A(6,5,11)             109.9625                                         !
 ! A20   A(6,5,12)             107.592                                          !
 ! A21   A(11,5,12)            107.7423                                         !
 ! A22   A(5,6,7)              114.5473                                         !
 ! A23   A(5,6,8)              120.1078                                         !
 ! A24   A(7,6,8)              125.2531                                         !
 ! A25   A(6,7,13)             114.4966                                         !
 ! A26   A(6,7,14)             115.8893                                         !
 ! A27   A(13,7,14)            115.3182                                         !
 ! A28   A(3,17,18)            123.8139                                         !
 ! A29   A(3,17,28)            119.7052                                         !
 ! A30   A(18,17,28)           115.624                                          !
 ! A31   A(17,18,19)           108.5934                                         !
 ! A32   A(17,18,21)           111.6242                                         !
 ! A33   A(17,18,29)           106.3417                                         !
 ! A34   A(19,18,21)           112.3072                                         !
 ! A35   A(19,18,29)           109.2886                                         !
 ! A36   A(21,18,29)           108.4931                                         !
 ! A37   A(18,19,20)           121.1492                                         !
 ! A38   A(18,19,37)           118.497                                          !
 ! A39   A(20,19,37)           120.3244                                         !
 ! A40   A(18,21,22)           114.4765                                         !
 ! A41   A(18,21,30)           107.9677                                         !
 ! A42   A(18,21,31)           106.4574                                         !
 ! A43   A(22,21,30)           110.6755                                         !
 ! A44   A(22,21,31)           109.4478                                         !
 ! A45   A(30,21,31)           107.5177                                         !
 ! A46   A(21,22,23)           120.0585                                         !
 ! A47   A(21,22,24)           121.7269                                         !
 ! A48   A(23,22,24)           118.1998                                         !
 ! A49   A(22,23,25)           121.2281                                         !
 ! A50   A(22,23,32)           119.2422                                         !
 ! A51   A(25,23,32)           119.5234                                         !
 ! A52   A(22,24,26)           120.7401                                         !
 ! A53   A(22,24,33)           119.1629                                         !
 ! A54   A(26,24,33)           120.0903                                         !
 ! A55   A(23,25,27)           119.9636                                         !
 ! A56   A(23,25,34)           119.8623                                         !
 ! A57   A(27,25,34)           120.1628                                         !
 ! A58   A(24,26,27)           120.3557                                         !
 ! A59   A(24,26,35)           119.6302                                         !
 ! A60   A(27,26,35)           120.0123                                         !
 ! A61   A(25,27,26)           119.4522                                         !
 ! A62   A(25,27,36)           120.267                                          !
 ! A63   A(26,27,36)           120.2598                                         !
 ! A64   A(19,37,38)           130.3143                                         !
 ! A65   A(19,37,45)           115.1679                                         !
 ! A66   A(38,37,45)           114.5158                                         !
 ! A67   A(37,38,39)           115.6348                                         !
 ! A68   A(37,38,41)           109.3449                                         !
 ! A69   A(37,38,46)           110.0239                                         !
 ! A70   A(39,38,41)           109.0894                                         !
 ! A71   A(39,38,46)           104.3612                                         !
 ! A72   A(41,38,46)           108.0724                                         !
 ! A73   A(38,39,40)           119.0754                                         !
 ! A74   A(38,39,51)           117.1069                                         !
 ! A75   A(40,39,51)           123.7424                                         !
 ! A76   A(38,41,42)           113.8186                                         !
 ! A77   A(38,41,47)           108.8792                                         !
 ! A78   A(38,41,48)           108.4825                                         !
 ! A79   A(42,41,47)           107.5878                                         !
 ! A80   A(42,41,48)           110.5986                                         !
 ! A81   A(47,41,48)           107.2619                                         !
 ! A82   A(41,42,43)           115.7327                                         !
 ! A83   A(41,42,44)           122.5561                                         !
 ! A84   A(43,42,44)           121.6995                                         !
 ! A85   A(42,43,49)           118.7138                                         !
 ! A86   A(42,43,50)           122.7635                                         !
 ! A87   A(49,43,50)           118.2947                                         !
 ! A88   A(39,51,52)           121.1865                                         !
 ! A89   A(39,51,63)           116.6878                                         !
 ! A90   A(52,51,63)           119.15                                           !
 ! A91   A(51,52,53)           108.9261                                         !
 ! A92   A(51,52,55)           111.3858                                         !
 ! A93   A(51,52,64)           105.9619                                         !
 ! A94   A(53,52,55)           117.7424                                         !
 ! A95   A(53,52,64)           104.7848                                         !
 ! A96   A(55,52,64)           107.188                                          !
 ! A97   A(52,53,54)           119.1379                                         !
 ! A98   A(52,53,62)           116.148                                          !
 ! A99   A(54,53,62)           124.5798                                         !
 ! A100  A(52,55,56)           121.5028                                         !
 ! A101  A(52,55,65)           106.2916                                         !
 ! A102  A(52,55,66)           106.5462                                         !
 ! A103  A(56,55,65)           106.7999                                         !
 ! A104  A(56,55,66)           108.7342                                         !
 ! A105  A(65,55,66)           106.0051                                         !
 ! A106  A(55,56,57)           116.8407                                         !
 ! A107  A(55,56,67)           110.0586                                         !
 ! A108  A(55,56,68)           106.952                                          !
 ! A109  A(57,56,67)           108.5964                                         !
 ! A110  A(57,56,68)           107.3923                                         !
 ! A111  A(67,56,68)           106.4853                                         !
 ! A112  A(56,57,58)           108.773                                          !
 ! A113  A(56,57,69)           110.0517                                         !
 ! A114  A(56,57,70)           110.2054                                         !
 ! A115  A(58,57,69)           109.2074                                         !
 ! A116  A(58,57,70)           111.0187                                         !
 ! A117  A(69,57,70)           107.5729                                         !
 ! A118  A(57,58,59)           126.5752                                         !
 ! A119  A(57,58,71)           114.1629                                         !
 ! A120  A(59,58,71)           116.3206                                         !
 ! A121  A(58,59,60)           123.1591                                         !
 ! A122  A(58,59,61)           118.2957                                         !
 ! A123  A(60,59,61)           118.5394                                         !
 ! A124  A(59,60,72)           117.5052                                         !
 ! A125  A(59,60,73)           118.5432                                         !
 ! A126  A(72,60,73)           116.1933                                         !
 ! A127  A(59,61,74)           117.9389                                         !
 ! A128  A(59,61,75)           115.7925                                         !
 ! A129  A(74,61,75)           114.154                                          !
 ! D1    D(9,1,2,3)            -32.299                                          !
 ! D2    D(9,1,2,5)           -162.936                                          !
 ! D3    D(9,1,2,10)            79.7633                                         !
 ! D4    D(15,1,2,3)            88.8141                                         !
 ! D5    D(15,1,2,5)           -41.8229                                         !
 ! D6    D(15,1,2,10)         -159.1237                                         !
 ! D7    D(16,1,2,3)          -154.6541                                         !
 ! D8    D(16,1,2,5)            74.7089                                         !
 ! D9    D(16,1,2,10)          -42.5919                                         !
 ! D10   D(1,2,3,4)             51.4052                                         !
 ! D11   D(1,2,3,17)          -129.9714                                         !
 ! D12   D(5,2,3,4)            177.8074                                         !
 ! D13   D(5,2,3,17)            -3.5692                                         !
 ! D14   D(10,2,3,4)           -60.4278                                         !
 ! D15   D(10,2,3,17)          118.1956                                         !
 ! D16   D(1,2,5,6)            -49.2736                                         !
 ! D17   D(1,2,5,11)            74.1242                                         !
 ! D18   D(1,2,5,12)          -167.0386                                         !
 ! D19   D(3,2,5,6)           -174.2298                                         !
 ! D20   D(3,2,5,11)           -50.8321                                         !
 ! D21   D(3,2,5,12)            68.0052                                         !
 ! D22   D(10,2,5,6)            65.7333                                         !
 ! D23   D(10,2,5,11)         -170.869                                          !
 ! D24   D(10,2,5,12)          -52.0317                                         !
 ! D25   D(2,3,17,18)         -165.8487                                         !
 ! D26   D(2,3,17,28)            3.0775                                         !
 ! D27   D(4,3,17,18)           12.6986                                         !
 ! D28   D(4,3,17,28)         -178.3752                                         !
 ! D29   D(2,5,6,7)            159.6789                                         !
 ! D30   D(2,5,6,8)            -23.6249                                         !
 ! D31   D(11,5,6,7)            34.9436                                         !
 ! D32   D(11,5,6,8)          -148.3602                                         !
 ! D33   D(12,5,6,7)           -82.14                                           !
 ! D34   D(12,5,6,8)            94.5562                                         !
 ! D35   D(5,6,7,13)          -172.8726                                         !
 ! D36   D(5,6,7,14)           -34.8403                                         !
 ! D37   D(8,6,7,13)            10.6275                                         !
 ! D38   D(8,6,7,14)           148.6598                                         !
 ! D39   D(3,17,18,19)        -130.4592                                         !
 ! D40   D(3,17,18,21)         105.1974                                         !
 ! D41   D(3,17,18,29)         -12.954                                          !
 ! D42   D(28,17,18,19)         60.2037                                         !
 ! D43   D(28,17,18,21)        -64.1397                                         !
 ! D44   D(28,17,18,29)        177.7089                                         !
 ! D45   D(17,18,19,20)       -117.3124                                         !
 ! D46   D(17,18,19,37)         60.7226                                         !
 ! D47   D(21,18,19,20)          6.6247                                         !
 ! D48   D(21,18,19,37)       -175.3403                                         !
 ! D49   D(29,18,19,20)        127.0772                                         !
 ! D50   D(29,18,19,37)        -54.8878                                         !
 ! D51   D(17,18,21,22)         47.8334                                         !
 ! D52   D(17,18,21,30)        171.5757                                         !
 ! D53   D(17,18,21,31)        -73.2262                                         !
 ! D54   D(19,18,21,22)        -74.4003                                         !
 ! D55   D(19,18,21,30)         49.342                                          !
 ! D56   D(19,18,21,31)        164.5401                                         !
 ! D57   D(29,18,21,22)        164.6883                                         !
 ! D58   D(29,18,21,30)        -71.5693                                         !
 ! D59   D(29,18,21,31)         43.6288                                         !
 ! D60   D(18,19,37,38)          4.1495                                         !
 ! D61   D(18,19,37,45)       -176.3968                                         !
 ! D62   D(20,19,37,38)       -177.7988                                         !
 ! D63   D(20,19,37,45)          1.6549                                         !
 ! D64   D(18,21,22,23)        -81.5096                                         !
 ! D65   D(18,21,22,24)         97.0648                                         !
 ! D66   D(30,21,22,23)        156.2097                                         !
 ! D67   D(30,21,22,24)        -25.2159                                         !
 ! D68   D(31,21,22,23)         37.8868                                         !
 ! D69   D(31,21,22,24)       -143.5387                                         !
 ! D70   D(21,22,23,25)        175.9757                                         !
 ! D71   D(21,22,23,32)         -4.9403                                         !
 ! D72   D(24,22,23,25)         -2.6484                                         !
 ! D73   D(24,22,23,32)        176.4356                                         !
 ! D74   D(21,22,24,26)       -176.5914                                         !
 ! D75   D(21,22,24,33)          2.4676                                         !
 ! D76   D(23,22,24,26)          2.0086                                         !
 ! D77   D(23,22,24,33)       -178.9324                                         !
 ! D78   D(22,23,25,27)          1.1357                                         !
 ! D79   D(22,23,25,34)        179.9135                                         !
 ! D80   D(32,23,25,27)       -177.9458                                         !
 ! D81   D(32,23,25,34)          0.832                                          !
 ! D82   D(22,24,26,27)          0.1315                                         !
 ! D83   D(22,24,26,35)       -179.3848                                         !
 ! D84   D(33,24,26,27)       -178.9188                                         !
 ! D85   D(33,24,26,35)          1.5649                                         !
 ! D86   D(23,25,27,26)          1.0627                                         !
 ! D87   D(23,25,27,36)        179.4009                                         !
 ! D88   D(34,25,27,26)       -177.7114                                         !
 ! D89   D(34,25,27,36)          0.6268                                         !
 ! D90   D(24,26,27,25)         -1.6894                                         !
 ! D91   D(24,26,27,36)        179.9722                                         !
 ! D92   D(35,26,27,25)        177.825                                          !
 ! D93   D(35,26,27,36)         -0.5134                                         !
 ! D94   D(19,37,38,39)        -92.2491                                         !
 ! D95   D(19,37,38,41)        144.183                                          !
 ! D96   D(19,37,38,46)         25.6359                                         !
 ! D97   D(45,37,38,39)         88.2943                                         !
 ! D98   D(45,37,38,41)        -35.2735                                         !
 ! D99   D(45,37,38,46)       -153.8207                                         !
 ! D100  D(37,38,39,40)        145.1391                                         !
 ! D101  D(37,38,39,51)        -37.8969                                         !
 ! D102  D(41,38,39,40)        -91.1592                                         !
 ! D103  D(41,38,39,51)         85.8048                                         !
 ! D104  D(46,38,39,40)         24.1477                                         !
 ! D105  D(46,38,39,51)       -158.8883                                         !
 ! D106  D(37,38,41,42)         59.2922                                         !
 ! D107  D(37,38,41,47)        -60.7103                                         !
 ! D108  D(37,38,41,48)       -177.1319                                         !
 ! D109  D(39,38,41,42)        -68.0591                                         !
 ! D110  D(39,38,41,47)        171.9384                                         !
 ! D111  D(39,38,41,48)         55.5168                                         !
 ! D112  D(46,38,41,42)        179.0475                                         !
 ! D113  D(46,38,41,47)         59.045                                          !
 ! D114  D(46,38,41,48)        -57.3766                                         !
 ! D115  D(38,39,51,52)       -168.6826                                         !
 ! D116  D(38,39,51,63)         -8.3702                                         !
 ! D117  D(40,39,51,52)          8.1262                                         !
 ! D118  D(40,39,51,63)        168.4387                                         !
 ! D119  D(38,41,42,43)        156.0275                                         !
 ! D120  D(38,41,42,44)        -25.1997                                         !
 ! D121  D(47,41,42,43)        -83.2438                                         !
 ! D122  D(47,41,42,44)         95.5289                                         !
 ! D123  D(48,41,42,43)         33.6083                                         !
 ! D124  D(48,41,42,44)       -147.6189                                         !
 ! D125  D(41,42,43,49)        174.6097                                         !
 ! D126  D(41,42,43,50)          0.1952                                         !
 ! D127  D(44,42,43,49)         -4.1746                                         !
 ! D128  D(44,42,43,50)       -178.589                                          !
 ! D129  D(39,51,52,53)        -83.6825                                         !
 ! D130  D(39,51,52,55)        144.8063                                         !
 ! D131  D(39,51,52,64)         28.5686                                         !
 ! D132  D(63,51,52,53)        116.4781                                         !
 ! D133  D(63,51,52,55)        -15.0331                                         !
 ! D134  D(63,51,52,64)       -131.2708                                         !
 ! D135  D(51,52,53,54)        -74.3828                                         !
 ! D136  D(51,52,53,62)        101.5971                                         !
 ! D137  D(55,52,53,54)         53.6342                                         !
 ! D138  D(55,52,53,62)       -130.3858                                         !
 ! D139  D(64,52,53,54)        172.5901                                         !
 ! D140  D(64,52,53,62)        -11.4299                                         !
 ! D141  D(51,52,55,56)         74.7894                                         !
 ! D142  D(51,52,55,65)       -163.0502                                         !
 ! D143  D(51,52,55,66)        -50.3136                                         !
 ! D144  D(53,52,55,56)        -52.0478                                         !
 ! D145  D(53,52,55,65)         70.1127                                         !
 ! D146  D(53,52,55,66)       -177.1508                                         !
 ! D147  D(64,52,55,56)       -169.7258                                         !
 ! D148  D(64,52,55,65)        -47.5653                                         !
 ! D149  D(64,52,55,66)         65.1712                                         !
 ! D150  D(52,55,56,57)        -58.3672                                         !
 ! D151  D(52,55,56,67)         66.0524                                         !
 ! D152  D(52,55,56,68)       -178.6631                                         !
 ! D153  D(65,55,56,57)        179.7136                                         !
 ! D154  D(65,55,56,67)        -55.8668                                         !
 ! D155  D(65,55,56,68)         59.4177                                         !
 ! D156  D(66,55,56,57)         65.7271                                         !
 ! D157  D(66,55,56,67)       -169.8533                                         !
 ! D158  D(66,55,56,68)        -54.5689                                         !
 ! D159  D(55,56,57,58)         78.5916                                         !
 ! D160  D(55,56,57,69)       -161.8073                                         !
 ! D161  D(55,56,57,70)        -43.3303                                         !
 ! D162  D(67,56,57,58)        -46.5662                                         !
 ! D163  D(67,56,57,69)         73.0349                                         !
 ! D164  D(67,56,57,70)       -168.4881                                         !
 ! D165  D(68,56,57,58)       -161.3464                                         !
 ! D166  D(68,56,57,69)        -41.7454                                         !
 ! D167  D(68,56,57,70)         76.7316                                         !
 ! D168  D(56,57,58,59)       -158.207                                          !
 ! D169  D(56,57,58,71)          1.5155                                         !
 ! D170  D(69,57,58,59)         81.6675                                         !
 ! D171  D(69,57,58,71)       -118.61                                           !
 ! D172  D(70,57,58,59)        -36.7808                                         !
 ! D173  D(70,57,58,71)        122.9417                                         !
 ! D174  D(57,58,59,60)         -8.0354                                         !
 ! D175  D(57,58,59,61)        171.0718                                         !
 ! D176  D(71,58,59,60)       -167.3782                                         !
 ! D177  D(71,58,59,61)         11.729                                          !
 ! D178  D(58,59,60,72)        157.6684                                         !
 ! D179  D(58,59,60,73)          9.4871                                         !
 ! D180  D(61,59,60,72)        -21.4367                                         !
 ! D181  D(61,59,60,73)       -169.6181                                         !
 ! D182  D(58,59,61,74)        160.1718                                         !
 ! D183  D(58,59,61,75)         19.7537                                         !
 ! D184  D(60,59,61,74)        -20.679                                          !
 ! D185  D(60,59,61,75)       -161.0971                                         !
 --------------------------------------------------------------------------------
 Symmetry turned off by external request.
 Stoichiometry    C23H36N9O7(1+)
 Framework group  C1[X(C23H36N9O7)]
 Deg. of freedom   219
 Full point group                 C1      NOp   1
                          Input orientation:                          
 ---------------------------------------------------------------------
 Center     Atomic      Atomic             Coordinates (Angstroms)
 Number     Number       Type             X           Y           Z
 ---------------------------------------------------------------------
      1          7           0       -9.896674    0.840102   -6.493458
      2          6           0       -9.722765   -0.584057   -6.034263
      3          6           0       -8.323233   -0.706496   -5.400526
      4          8           0       -7.984739    0.091214   -4.534853
      5          6           0      -10.097862   -1.560455   -7.146336
      6          6           0      -11.461068   -1.200163   -7.750357
      7          7           0      -11.681407   -1.709514   -8.986162
      8          8           0      -12.275595   -0.552086   -7.093471
      9          1           0       -9.385172    1.469342   -5.864678
     10          1           0      -10.427996   -0.704517   -5.207288
     11          1           0       -9.342063   -1.603445   -7.931870
     12          1           0      -10.183318   -2.562717   -6.709606
     13          1           0      -12.530697   -1.379972   -9.431451
     14          1           0      -10.863803   -1.770562   -9.595801
     15          1           0       -9.545589    0.966736   -7.479032
     16          1           0      -10.905483    1.037937   -6.509077
     17          7           0       -7.552248   -1.734049   -5.836631
     18          6           0       -6.342399   -2.185744   -5.158553
     19          6           0       -5.211435   -2.295089   -6.194627
     20          8           0       -4.675300   -3.382653   -6.445135
     21          6           0       -6.576507   -3.519921   -4.398220
     22          6           0       -7.280565   -4.590146   -5.209463
     23          6           0       -8.677454   -4.568245   -5.339643
     24          6           0       -6.568473   -5.603568   -5.870468
     25          6           0       -9.344505   -5.492634   -6.148744
     26          6           0       -7.232511   -6.538381   -6.670556
     27          6           0       -8.621166   -6.475555   -6.826828
     28          1           0       -7.891477   -2.337181   -6.573504
     29          1           0       -6.090470   -1.409959   -4.428889
     30          1           0       -5.607363   -3.880046   -4.042706
     31          1           0       -7.179952   -3.273592   -3.517732
     32          1           0       -9.250802   -3.826718   -4.788301
     33          1           0       -5.490205   -5.645644   -5.766376
     34          1           0      -10.427309   -5.456289   -6.232351
     35          1           0       -6.664693   -7.321309   -7.165890
     36          1           0       -9.135318   -7.202204   -7.449031
     37          7           0       -4.836835   -1.178226   -6.862473
     38          6           0       -5.283495    0.202866   -6.717060
     39          6           0       -6.457729    0.626042   -7.630403
     40          8           0       -7.290130    1.425975   -7.202725
     41          6           0       -4.089570    1.154778   -6.955116
     42          6           0       -3.449243    1.010481   -8.341094
     43          7           0       -2.781046    2.089422   -8.791677
     44          8           0       -3.517150   -0.037471   -9.002246
     45          1           0       -4.125922   -1.318638   -7.574653
     46          1           0       -5.654164    0.371231   -5.703881
     47          1           0       -3.313556    0.944955   -6.207776
     48          1           0       -4.427899    2.183437   -6.792242
     49          1           0       -2.271553    2.016866   -9.663194
     50          1           0       -2.697971    2.943131   -8.258118
     51          7           0       -6.468121    0.132530   -8.888451
     52          6           0       -7.392803    0.660114   -9.907573
     53          6           0       -8.772261   -0.045235   -9.751476
     54          8           0       -8.900305   -1.255505  -10.142601
     55          6           0       -6.743927    0.666118  -11.306292
     56          6           0       -6.554343   -0.634831  -12.112198
     57          6           0       -5.719123   -1.743735  -11.453258
     58          7           0       -6.551473   -2.438164  -10.466947
     59          6           0       -6.125331   -3.149918   -9.438612
     60          7           0       -4.832491   -3.462989   -9.246547
     61          7           0       -7.041715   -3.571249   -8.519348
     62          8           0       -9.663649    0.610561   -9.170153
     63          1           0       -5.643879   -0.371028   -9.185231
     64          1           0       -7.579474    1.701470   -9.633700
     65          1           0       -7.352408    1.336009  -11.924648
     66          1           0       -5.767428    1.158748  -11.196273
     67          1           0       -7.528984   -1.050009  -12.390017
     68          1           0       -6.054941   -0.360966  -13.047979
     69          1           0       -5.382834   -2.461436  -12.210695
     70          1           0       -4.822216   -1.314372  -10.980790
     71          1           0       -7.541315   -2.081184  -10.410003
     72          1           0       -4.538358   -3.696714   -8.291868
     73          1           0       -4.136712   -3.022427   -9.832482
     74          1           0       -6.788906   -4.351278   -7.917292
     75          1           0       -8.005452   -3.583869   -8.831457
 ---------------------------------------------------------------------
 Rotational constants (GHZ):           0.1172335           0.0967525           0.0820286
 Standard basis: 6-31G(d) (6D, 7F)
   657 basis functions,  1236 primitive gaussians,   657 cartesian basis functions
   146 alpha electrons      146 beta electrons
       nuclear repulsion energy      5312.1931579994 Hartrees.
 NAtoms=   75 NActive=   75 NUniq=   75 SFac= 1.00D+00 NAtFMM=   60 NAOKFM=T Big=T
 Integral buffers will be    131072 words long.
 Raffenetti 2 integral format.
 Two-electron integral symmetry is turned off.
 Nuclear repulsion after empirical dispersion term =     5312.0601195597 Hartrees.
 One-electron integrals computed using PRISM.
 NBasis=   657 RedAO= T EigKep=  4.72D-04  NBF=   657
 NBsUse=   657 1.00D-06 EigRej= -1.00D+00 NBFU=   657
 Initial guess from the checkpoint file:  "conf-684.chk"
 B after Tr=     0.000000    0.000000    0.000000
         Rot=    1.000000    0.000000    0.000000    0.000000 Ang=   0.00 deg.
 Requested convergence on RMS density matrix=1.00D-08 within 128 cycles.
 Requested convergence on MAX density matrix=1.00D-06.
 Requested convergence on             energy=1.00D-06.
 No special actions if energy rises.
 SCF Done:  E(RB3LYP) =  -1917.53719942     A.U. after    1 cycles
            NFock=  1  Conv=0.93D-08     -V/T= 2.0093

 **********************************************************************

            Population analysis using the SCF Density.

 **********************************************************************

 Alpha  occ. eigenvalues --  -19.25085 -19.24110 -19.23566 -19.22771 -19.21203
 Alpha  occ. eigenvalues --  -19.20833 -19.19832 -14.53365 -14.48986 -14.48909
 Alpha  occ. eigenvalues --  -14.48779 -14.48430 -14.47965 -14.47934 -14.46982
 Alpha  occ. eigenvalues --  -14.42909 -10.45279 -10.42751 -10.41345 -10.41214
 Alpha  occ. eigenvalues --  -10.39932 -10.38374 -10.38257 -10.36783 -10.35977
 Alpha  occ. eigenvalues --  -10.35360 -10.34398 -10.32936 -10.32599 -10.30703
 Alpha  occ. eigenvalues --  -10.29934 -10.29738 -10.29625 -10.29530 -10.29125
 Alpha  occ. eigenvalues --  -10.29048 -10.28944 -10.28833 -10.28625  -1.16713
 Alpha  occ. eigenvalues --   -1.16203  -1.15663  -1.14815  -1.14080  -1.13482
 Alpha  occ. eigenvalues --   -1.12475  -1.08469  -1.05582  -1.04897  -1.04526
 Alpha  occ. eigenvalues --   -1.03547  -1.03217  -1.02718  -1.02243  -0.98669
 Alpha  occ. eigenvalues --   -0.95622  -0.91261  -0.90674  -0.89973  -0.88320
 Alpha  occ. eigenvalues --   -0.85201  -0.84410  -0.84316  -0.80688  -0.79448
 Alpha  occ. eigenvalues --   -0.78170  -0.77084  -0.75165  -0.72250  -0.71837
 Alpha  occ. eigenvalues --   -0.71714  -0.70929  -0.70362  -0.70305  -0.69742
 Alpha  occ. eigenvalues --   -0.68973  -0.67978  -0.67500  -0.67270  -0.66531
 Alpha  occ. eigenvalues --   -0.65904  -0.65052  -0.63994  -0.63026  -0.61909
 Alpha  occ. eigenvalues --   -0.61653  -0.61562  -0.61255  -0.60481  -0.59956
 Alpha  occ. eigenvalues --   -0.59453  -0.58844  -0.58350  -0.58061  -0.57600
 Alpha  occ. eigenvalues --   -0.57079  -0.56582  -0.55655  -0.55320  -0.55060
 Alpha  occ. eigenvalues --   -0.54900  -0.54478  -0.54151  -0.53675  -0.53540
 Alpha  occ. eigenvalues --   -0.53083  -0.52864  -0.52396  -0.51977  -0.51761
 Alpha  occ. eigenvalues --   -0.51471  -0.50851  -0.50503  -0.50377  -0.50156
 Alpha  occ. eigenvalues --   -0.49358  -0.49241  -0.49019  -0.48364  -0.47897
 Alpha  occ. eigenvalues --   -0.47456  -0.47067  -0.46043  -0.45642  -0.45356
 Alpha  occ. eigenvalues --   -0.45085  -0.44108  -0.43791  -0.43602  -0.41392
 Alpha  occ. eigenvalues --   -0.40236  -0.39974  -0.39063  -0.38900  -0.38570
 Alpha  occ. eigenvalues --   -0.38276  -0.37792  -0.37012  -0.36561  -0.36066
 Alpha  occ. eigenvalues --   -0.35452  -0.35106  -0.34634  -0.34326  -0.34217
 Alpha  occ. eigenvalues --   -0.33104
 Alpha virt. eigenvalues --   -0.11665  -0.11122  -0.10837  -0.10592  -0.10296
 Alpha virt. eigenvalues --   -0.09981  -0.09044  -0.07163  -0.06521  -0.05077
 Alpha virt. eigenvalues --   -0.03855  -0.02844  -0.02530  -0.00860  -0.00814
 Alpha virt. eigenvalues --   -0.00537   0.00217   0.01276   0.01698   0.02095
 Alpha virt. eigenvalues --    0.02659   0.02861   0.03079   0.03216   0.03430
 Alpha virt. eigenvalues --    0.03838   0.04120   0.04260   0.04439   0.04934
 Alpha virt. eigenvalues --    0.05353   0.05500   0.05594   0.05973   0.06639
 Alpha virt. eigenvalues --    0.07033   0.07333   0.07429   0.07636   0.07814
 Alpha virt. eigenvalues --    0.08496   0.08719   0.08788   0.09301   0.09760
 Alpha virt. eigenvalues --    0.10331   0.10501   0.10717   0.10985   0.11178
 Alpha virt. eigenvalues --    0.11888   0.12128   0.12505   0.13394   0.13488
 Alpha virt. eigenvalues --    0.14078   0.14615   0.15143   0.16120   0.16294
 Alpha virt. eigenvalues --    0.16515   0.16811   0.18276   0.19249   0.20990
 Alpha virt. eigenvalues --    0.21231   0.22198   0.22738   0.23085   0.23712
 Alpha virt. eigenvalues --    0.24203   0.24836   0.25567   0.25702   0.26670
 Alpha virt. eigenvalues --    0.27100   0.27569   0.28777   0.30170   0.30685
 Alpha virt. eigenvalues --    0.31127   0.33052   0.33669   0.34816   0.36475
 Alpha virt. eigenvalues --    0.37357   0.39067   0.39467   0.40280   0.40781
 Alpha virt. eigenvalues --    0.41262   0.41513   0.41779   0.42112   0.42998
 Alpha virt. eigenvalues --    0.43475   0.43570   0.44138   0.44727   0.45014
 Alpha virt. eigenvalues --    0.45693   0.46253   0.46438   0.46653   0.47092
 Alpha virt. eigenvalues --    0.47799   0.48216   0.48629   0.49146   0.49515
 Alpha virt. eigenvalues --    0.49850   0.50241   0.50462   0.50986   0.51294
 Alpha virt. eigenvalues --    0.51889   0.52064   0.52235   0.52848   0.53140
 Alpha virt. eigenvalues --    0.53348   0.53538   0.54177   0.54587   0.54717
 Alpha virt. eigenvalues --    0.55099   0.55565   0.56052   0.56155   0.56444
 Alpha virt. eigenvalues --    0.57675   0.58260   0.58482   0.58883   0.59174
 Alpha virt. eigenvalues --    0.59905   0.60383   0.60605   0.61020   0.61737
 Alpha virt. eigenvalues --    0.62306   0.62567   0.63120   0.63940   0.64319
 Alpha virt. eigenvalues --    0.64953   0.65270   0.66304   0.67049   0.68151
 Alpha virt. eigenvalues --    0.68604   0.68738   0.69618   0.70182   0.70842
 Alpha virt. eigenvalues --    0.71503   0.71568   0.72156   0.73081   0.73268
 Alpha virt. eigenvalues --    0.73808   0.74267   0.74542   0.74672   0.75018
 Alpha virt. eigenvalues --    0.75177   0.75366   0.75647   0.75799   0.76177
 Alpha virt. eigenvalues --    0.76725   0.76931   0.77437   0.77820   0.78117
 Alpha virt. eigenvalues --    0.78829   0.78957   0.79736   0.80138   0.80631
 Alpha virt. eigenvalues --    0.80725   0.81333   0.81574   0.82146   0.82350
 Alpha virt. eigenvalues --    0.82623   0.82805   0.83628   0.84235   0.84655
 Alpha virt. eigenvalues --    0.84753   0.84840   0.85547   0.86431   0.86749
 Alpha virt. eigenvalues --    0.87084   0.87533   0.88493   0.88841   0.89142
 Alpha virt. eigenvalues --    0.89594   0.90335   0.91146   0.92200   0.92866
 Alpha virt. eigenvalues --    0.93149   0.93877   0.94642   0.95140   0.95674
 Alpha virt. eigenvalues --    0.96211   0.96856   0.97743   0.99028   0.99619
 Alpha virt. eigenvalues --    0.99683   1.00210   1.01124   1.01943   1.02752
 Alpha virt. eigenvalues --    1.03557   1.03786   1.04485   1.04860   1.05281
 Alpha virt. eigenvalues --    1.06328   1.07508   1.07736   1.08145   1.09050
 Alpha virt. eigenvalues --    1.10162   1.11265   1.11782   1.12160   1.12734
 Alpha virt. eigenvalues --    1.13692   1.14537   1.15044   1.15682   1.16263
 Alpha virt. eigenvalues --    1.17366   1.18919   1.19471   1.19546   1.20266
 Alpha virt. eigenvalues --    1.21030   1.21900   1.22877   1.23339   1.24016
 Alpha virt. eigenvalues --    1.24779   1.25010   1.26622   1.27363   1.28166
 Alpha virt. eigenvalues --    1.28720   1.29743   1.30491   1.31610   1.32179
 Alpha virt. eigenvalues --    1.32449   1.32850   1.33122   1.33760   1.34459
 Alpha virt. eigenvalues --    1.35702   1.36359   1.37289   1.38182   1.38556
 Alpha virt. eigenvalues --    1.39116   1.39882   1.40454   1.40741   1.41447
 Alpha virt. eigenvalues --    1.42650   1.42923   1.44177   1.45576   1.45964
 Alpha virt. eigenvalues --    1.46216   1.48005   1.48758   1.49719   1.50573
 Alpha virt. eigenvalues --    1.51392   1.52993   1.53235   1.54456   1.55309
 Alpha virt. eigenvalues --    1.55723   1.56944   1.58048   1.58396   1.59162
 Alpha virt. eigenvalues --    1.59912   1.61543   1.62001   1.62686   1.63900
 Alpha virt. eigenvalues --    1.64177   1.64609   1.65082   1.66283   1.66893
 Alpha virt. eigenvalues --    1.67344   1.68303   1.68801   1.69723   1.70048
 Alpha virt. eigenvalues --    1.70996   1.71972   1.72072   1.72536   1.73068
 Alpha virt. eigenvalues --    1.73830   1.74605   1.75170   1.75400   1.75484
 Alpha virt. eigenvalues --    1.75995   1.76572   1.77173   1.78064   1.78472
 Alpha virt. eigenvalues --    1.78759   1.79585   1.79708   1.80200   1.80720
 Alpha virt. eigenvalues --    1.81302   1.81550   1.82148   1.82551   1.83141
 Alpha virt. eigenvalues --    1.83457   1.83935   1.84431   1.85476   1.85759
 Alpha virt. eigenvalues --    1.86094   1.87690   1.88128   1.89215   1.89269
 Alpha virt. eigenvalues --    1.89454   1.90558   1.90781   1.92039   1.92493
 Alpha virt. eigenvalues --    1.93092   1.93197   1.93828   1.93960   1.94778
 Alpha virt. eigenvalues --    1.95576   1.95871   1.96801   1.98123   1.98221
 Alpha virt. eigenvalues --    1.99230   2.00122   2.00621   2.01789   2.02726
 Alpha virt. eigenvalues --    2.03038   2.03161   2.04473   2.04869   2.05568
 Alpha virt. eigenvalues --    2.07271   2.07368   2.07696   2.07955   2.09027
 Alpha virt. eigenvalues --    2.09838   2.10358   2.11798   2.12793   2.13250
 Alpha virt. eigenvalues --    2.13987   2.14813   2.15222   2.15792   2.16018
 Alpha virt. eigenvalues --    2.16897   2.18095   2.18163   2.19265   2.19819
 Alpha virt. eigenvalues --    2.21178   2.22531   2.23323   2.23835   2.24408
 Alpha virt. eigenvalues --    2.26960   2.27521   2.28283   2.28916   2.29419
 Alpha virt. eigenvalues --    2.30339   2.31432   2.32484   2.33568   2.34502
 Alpha virt. eigenvalues --    2.36781   2.37084   2.37617   2.38332   2.38616
 Alpha virt. eigenvalues --    2.39678   2.39860   2.40664   2.41768   2.42132
 Alpha virt. eigenvalues --    2.43516   2.44892   2.46842   2.47445   2.47924
 Alpha virt. eigenvalues --    2.48942   2.49208   2.49494   2.50365   2.50933
 Alpha virt. eigenvalues --    2.51979   2.52397   2.53527   2.53790   2.54184
 Alpha virt. eigenvalues --    2.54944   2.55738   2.56138   2.58067   2.58379
 Alpha virt. eigenvalues --    2.59808   2.61041   2.61882   2.62574   2.63443
 Alpha virt. eigenvalues --    2.64346   2.64610   2.64782   2.65495   2.66680
 Alpha virt. eigenvalues --    2.68033   2.70065   2.72811   2.74680   2.75665
 Alpha virt. eigenvalues --    2.76091   2.79905   2.81962   2.85153   2.88707
 Alpha virt. eigenvalues --    2.88936   2.89330   2.89791   2.90206   2.91093
 Alpha virt. eigenvalues --    2.93154   2.93842   2.94150   2.95685   2.97403
 Alpha virt. eigenvalues --    2.99487   3.01213   3.04801   3.05100   3.06289
 Alpha virt. eigenvalues --    3.09191   3.30407   3.68671   3.75064   3.75408
 Alpha virt. eigenvalues --    3.79500   3.82642   3.87917   3.91682   3.95119
 Alpha virt. eigenvalues --    3.97893   4.00264   4.00603   4.02720   4.03736
 Alpha virt. eigenvalues --    4.04858   4.08261   4.09737   4.11337   4.14373
 Alpha virt. eigenvalues --    4.15717   4.17062   4.18197   4.21150   4.23883
 Alpha virt. eigenvalues --    4.25875   4.27579   4.31901   4.32676   4.34803
 Alpha virt. eigenvalues --    4.37247   4.40747   4.44017   4.44457   4.46113
 Alpha virt. eigenvalues --    4.49478   4.56206   4.58836   4.63189   4.65998
 Alpha virt. eigenvalues --    4.67779
          Condensed to atoms (all electrons):
 Mulliken charges:
               1
     1  N   -0.760780
     2  C   -0.091524
     3  C    0.634166
     4  O   -0.519780
     5  C   -0.442872
     6  C    0.624746
     7  N   -0.747792
     8  O   -0.529728
     9  H    0.413243
    10  H    0.229940
    11  H    0.189257
    12  H    0.193919
    13  H    0.348298
    14  H    0.371920
    15  H    0.457308
    16  H    0.417413
    17  N   -0.629021
    18  C   -0.083908
    19  C    0.635408
    20  O   -0.551693
    21  C   -0.345504
    22  C    0.148013
    23  C   -0.203445
    24  C   -0.202512
    25  C   -0.138581
    26  C   -0.154036
    27  C   -0.135468
    28  H    0.387611
    29  H    0.211506
    30  H    0.185612
    31  H    0.175800
    32  H    0.137614
    33  H    0.167892
    34  H    0.158429
    35  H    0.158717
    36  H    0.159830
    37  N   -0.612289
    38  C   -0.080998
    39  C    0.629417
    40  O   -0.555829
    41  C   -0.394857
    42  C    0.618216
    43  N   -0.724913
    44  O   -0.556465
    45  H    0.362064
    46  H    0.211890
    47  H    0.213850
    48  H    0.201003
    49  H    0.367781
    50  H    0.367961
    51  N   -0.636604
    52  C   -0.043373
    53  C    0.634146
    54  O   -0.623528
    55  C   -0.309626
    56  C   -0.306292
    57  C   -0.176943
    58  N   -0.625049
    59  C    0.740761
    60  N   -0.769379
    61  N   -0.805688
    62  O   -0.572947
    63  H    0.370312
    64  H    0.187287
    65  H    0.181509
    66  H    0.151155
    67  H    0.186627
    68  H    0.171626
    69  H    0.189215
    70  H    0.171531
    71  H    0.426652
    72  H    0.404839
    73  H    0.371750
    74  H    0.390293
    75  H    0.374893
 Sum of Mulliken charges =   1.00000
 Mulliken charges with hydrogens summed into heavy atoms:
               1
     1  N    0.527184
     2  C    0.138416
     3  C    0.634166
     4  O   -0.519780
     5  C   -0.059697
     6  C    0.624746
     7  N   -0.027573
     8  O   -0.529728
    17  N   -0.241409
    18  C    0.127598
    19  C    0.635408
    20  O   -0.551693
    21  C    0.015909
    22  C    0.148013
    23  C   -0.065831
    24  C   -0.034620
    25  C    0.019848
    26  C    0.004681
    27  C    0.024362
    37  N   -0.250225
    38  C    0.130892
    39  C    0.629417
    40  O   -0.555829
    41  C    0.019996
    42  C    0.618216
    43  N    0.010829
    44  O   -0.556465
    51  N   -0.266292
    52  C    0.143914
    53  C    0.634146
    54  O   -0.623528
    55  C    0.023039
    56  C    0.051962
    57  C    0.183804
    58  N   -0.198397
    59  C    0.740761
    60  N    0.007209
    61  N   -0.040502
    62  O   -0.572947
 Electronic spatial extent (au):  <R**2>=         134851.7648
 Charge=              1.0000 electrons
 Dipole moment (field-independent basis, Debye):
    X=            -27.1943    Y=             -5.3327    Z=            -40.0119  Tot=             48.6716
 Quadrupole moment (field-independent basis, Debye-Ang):
   XX=            -41.7361   YY=           -172.5603   ZZ=            135.0780
   XY=             56.2116   XZ=            217.5965   YZ=             42.9568
 Traceless Quadrupole moment (field-independent basis, Debye-Ang):
   XX=            -15.3299   YY=           -146.1542   ZZ=            161.4841
   XY=             56.2116   XZ=            217.5965   YZ=             42.9568
 Octapole moment (field-independent basis, Debye-Ang**2):
  XXX=           3519.8363  YYY=            880.9472  ZZZ=           1722.7140  XYY=           1273.1598
  XXY=           -122.9667  XXZ=            320.0083  XZZ=           -283.9614  YZZ=            -22.7090
  YYZ=           1305.6140  XYZ=           -454.6499
 Hexadecapole moment (field-independent basis, Debye-Ang**3):
 XXXX=         -67430.9042 YYYY=          -9139.6223 ZZZZ=         -50230.6276 XXXY=          -4170.7556
 XXXZ=         -26829.7473 YYYX=          -6598.3418 YYYZ=          -5709.7769 ZZZX=         -18844.3872
 ZZZY=          -3778.9908 XXYY=         -11892.4097 XXZZ=         -15115.6898 YYZZ=         -12528.7140
 XXYZ=           1499.1446 YYXZ=          -9598.2102 ZZXY=           1149.1513
 N-N= 5.312060119560D+03 E-N=-1.506316690945D+04  KE= 1.899812338059D+03
 Unable to Open any file for archive entry.
 1\1\GINC-AMR-111\SP\RB3LYP\6-31G(d)\C23H36N9O7(1+)\KENGMITH\03-Jun-202
 2\0\\# B3LYP/6-31G* empiricaldispersion=gd3 guess=read geom=check nosy
 mm integral(ultrafinegrid)\\Candidate Structure: Conf:684 Charge calc 
 in gas phase\\1,1\N,0,-9.8966743368,0.8401021143,-6.493457634\C,0,-9.7
 227654238,-0.5840566524,-6.0342625876\C,0,-8.3232330449,-0.7064963365,
 -5.4005260793\O,0,-7.9847391913,0.0912136817,-4.5348531334\C,0,-10.097
 8623798,-1.5604554583,-7.1463358821\C,0,-11.4610680531,-1.2001626904,-
 7.7503572945\N,0,-11.6814067253,-1.7095140288,-8.9861616203\O,0,-12.27
 55953165,-0.5520857953,-7.093470642\H,0,-9.3851720064,1.4693421423,-5.
 8646783603\H,0,-10.427996043,-0.7045170418,-5.2072881304\H,0,-9.342063
 1186,-1.6034447317,-7.931869577\H,0,-10.1833184677,-2.5627167109,-6.70
 96062538\H,0,-12.5306968347,-1.3799715757,-9.4314507563\H,0,-10.863802
 7843,-1.7705615437,-9.595800515\H,0,-9.5455889729,0.9667363082,-7.4790
 321706\H,0,-10.905482781,1.0379370979,-6.5090774054\N,0,-7.5522478923,
 -1.7340494523,-5.8366307809\C,0,-6.3423989554,-2.1857436616,-5.1585526
 085\C,0,-5.211435468,-2.2950892931,-6.1946271625\O,0,-4.6753001967,-3.
 3826529683,-6.4451350935\C,0,-6.5765074974,-3.5199205358,-4.3982197797
 \C,0,-7.2805647462,-4.5901460919,-5.2094627206\C,0,-8.6774535431,-4.56
 82445673,-5.3396425402\C,0,-6.5684727489,-5.6035682569,-5.870467642\C,
 0,-9.3445051044,-5.4926341899,-6.1487437216\C,0,-7.2325106445,-6.53838
 09481,-6.6705556131\C,0,-8.6211662328,-6.4755550977,-6.8268282625\H,0,
 -7.8914765574,-2.3371806301,-6.5735042407\H,0,-6.0904698977,-1.4099588
 609,-4.4288892048\H,0,-5.6073629397,-3.8800457187,-4.0427060815\H,0,-7
 .1799520134,-3.2735920838,-3.5177319267\H,0,-9.2508018066,-3.826718049
 7,-4.7883007684\H,0,-5.4902049706,-5.645643943,-5.7663761132\H,0,-10.4
 273091495,-5.4562885866,-6.2323510828\H,0,-6.6646926248,-7.3213085176,
 -7.1658899902\H,0,-9.1353178034,-7.2022040567,-7.4490308278\N,0,-4.836
 8351994,-1.1782264634,-6.8624725245\C,0,-5.2834946554,0.2028661214,-6.
 7170600254\C,0,-6.4577286974,0.6260419274,-7.6304032378\O,0,-7.2901297
 141,1.4259749915,-7.2027246275\C,0,-4.0895702608,1.1547781713,-6.95511
 60224\C,0,-3.4492433993,1.0104808649,-8.341094302\N,0,-2.7810459397,2.
 0894224368,-8.7916765416\O,0,-3.5171500021,-0.0374712747,-9.0022460687
 \H,0,-4.1259220833,-1.3186379966,-7.5746525729\H,0,-5.6541639581,0.371
 2308415,-5.7038812825\H,0,-3.3135562652,0.9449550426,-6.2077755783\H,0
 ,-4.4278993275,2.1834372493,-6.7922420275\H,0,-2.2715527378,2.01686628
 78,-9.6631939858\H,0,-2.6979712462,2.9431307442,-8.2581175873\N,0,-6.4
 681205143,0.1325303922,-8.8884514483\C,0,-7.3928026432,0.6601135639,-9
 .9075728688\C,0,-8.7722612831,-0.0452347008,-9.7514758638\O,0,-8.90030
 52456,-1.2555048173,-10.142601467\C,0,-6.7439272749,0.6661180047,-11.3
 0629229\C,0,-6.5543432238,-0.6348309959,-12.1121980415\C,0,-5.71912280
 78,-1.7437353319,-11.453258233\N,0,-6.5514729005,-2.4381637024,-10.466
 9470266\C,0,-6.1253309747,-3.1499175007,-9.4386117884\N,0,-4.832491351
 2,-3.4629891623,-9.2465472779\N,0,-7.0417153235,-3.5712494987,-8.51934
 84237\O,0,-9.6636494187,0.6105613027,-9.1701526157\H,0,-5.6438793004,-
 0.371028229,-9.1852309243\H,0,-7.5794738203,1.7014698485,-9.6337000621
 \H,0,-7.352408239,1.3360088592,-11.9246483661\H,0,-5.7674277116,1.1587
 484701,-11.1962729356\H,0,-7.5289835429,-1.0500091436,-12.3900173504\H
 ,0,-6.0549405831,-0.3609656059,-13.0479793999\H,0,-5.3828343003,-2.461
 4359538,-12.2106951638\H,0,-4.8222163066,-1.3143724736,-10.9807904329\
 H,0,-7.5413151079,-2.0811843582,-10.4100026347\H,0,-4.5383581736,-3.69
 67144277,-8.2918678355\H,0,-4.1367118785,-3.0224268522,-9.8324816555\H
 ,0,-6.7889057831,-4.3512778376,-7.9172917179\H,0,-8.005452412,-3.58386
 87728,-8.8314567794\\Version=ES64L-G16RevC.01\HF=-1917.5371994\RMSD=9.
 290e-09\Dipole=2.9533355,0.7225058,-1.1227143\Quadrupole=-11.3974309,-
 108.662065,120.0594958,41.7919234,161.7776742,31.9373381\PG=C01 [X(C23
 H36N9O7)]\\@
 The archive entry for this job was punched.


 IF THERE IS ONE WAY BETTER THAN ANOTHER IT IS THE WAY OF NATURE.

                          -- ARISTOTLE
 Job cpu time:       0 days  0 hours  2 minutes  6.3 seconds.
 Elapsed time:       0 days  0 hours  0 minutes 32.4 seconds.
 File lengths (MBytes):  RWF=    344 Int=      0 D2E=      0 Chk=     48 Scr=     16
 Normal termination of Gaussian 16 at Fri Jun  3 06:00:34 2022.
