 Entering Gaussian System, Link 0=/opt/software/Gaussian/g16-AVX2-C.01/g16/g16
 Input=charge-conf-472.com
 Output=charge-conf-472.log
 Initial command:
 /opt/software/Gaussian/g16-AVX2-C.01/g16/l1.exe "/mnt/gs18/scratch/users/kengmith/Gau-98917.inp" -scrdir="/mnt/gs18/scratch/users/kengmith/"
 Entering Link 1 = /opt/software/Gaussian/g16-AVX2-C.01/g16/l1.exe PID=     98927.
  
 Copyright (c) 1988-2019, Gaussian, Inc.  All Rights Reserved.
  
 This is part of the Gaussian(R) 16 program.  It is based on
 the Gaussian(R) 09 system (copyright 2009, Gaussian, Inc.),
 the Gaussian(R) 03 system (copyright 2003, Gaussian, Inc.),
 the Gaussian(R) 98 system (copyright 1998, Gaussian, Inc.),
 the Gaussian(R) 94 system (copyright 1995, Gaussian, Inc.),
 the Gaussian 92(TM) system (copyright 1992, Gaussian, Inc.),
 the Gaussian 90(TM) system (copyright 1990, Gaussian, Inc.),
 the Gaussian 88(TM) system (copyright 1988, Gaussian, Inc.),
 the Gaussian 86(TM) system (copyright 1986, Carnegie Mellon
 University), and the Gaussian 82(TM) system (copyright 1983,
 Carnegie Mellon University). Gaussian is a federally registered
 trademark of Gaussian, Inc.
  
 This software contains proprietary and confidential information,
 including trade secrets, belonging to Gaussian, Inc.
  
 This software is provided under written license and may be
 used, copied, transmitted, or stored only in accord with that
 written license.
  
 The following legend is applicable only to US Government
 contracts under FAR:
  
                    RESTRICTED RIGHTS LEGEND
  
 Use, reproduction and disclosure by the US Government is
 subject to restrictions as set forth in subparagraphs (a)
 and (c) of the Commercial Computer Software - Restricted
 Rights clause in FAR 52.227-19.
  
 Gaussian, Inc.
 340 Quinnipiac St., Bldg. 40, Wallingford CT 06492
  
  
 ---------------------------------------------------------------
 Warning -- This program may not be used in any manner that
 competes with the business of Gaussian, Inc. or will provide
 assistance to any competitor of Gaussian, Inc.  The licensee
 of this program is prohibited from giving any competitor of
 Gaussian, Inc. access to this program.  By using this program,
 the user acknowledges that Gaussian, Inc. is engaged in the
 business of creating and licensing software in the field of
 computational chemistry and represents and warrants to the
 licensee that it is not a competitor of Gaussian, Inc. and that
 it will not use this program in any manner prohibited above.
 ---------------------------------------------------------------
  

 Cite this work as:
 Gaussian 16, Revision C.01,
 M. J. Frisch, G. W. Trucks, H. B. Schlegel, G. E. Scuseria, 
 M. A. Robb, J. R. Cheeseman, G. Scalmani, V. Barone, 
 G. A. Petersson, H. Nakatsuji, X. Li, M. Caricato, A. V. Marenich, 
 J. Bloino, B. G. Janesko, R. Gomperts, B. Mennucci, H. P. Hratchian, 
 J. V. Ortiz, A. F. Izmaylov, J. L. Sonnenberg, D. Williams-Young, 
 F. Ding, F. Lipparini, F. Egidi, J. Goings, B. Peng, A. Petrone, 
 T. Henderson, D. Ranasinghe, V. G. Zakrzewski, J. Gao, N. Rega, 
 G. Zheng, W. Liang, M. Hada, M. Ehara, K. Toyota, R. Fukuda, 
 J. Hasegawa, M. Ishida, T. Nakajima, Y. Honda, O. Kitao, H. Nakai, 
 T. Vreven, K. Throssell, J. A. Montgomery, Jr., J. E. Peralta, 
 F. Ogliaro, M. J. Bearpark, J. J. Heyd, E. N. Brothers, K. N. Kudin, 
 V. N. Staroverov, T. A. Keith, R. Kobayashi, J. Normand, 
 K. Raghavachari, A. P. Rendell, J. C. Burant, S. S. Iyengar, 
 J. Tomasi, M. Cossi, J. M. Millam, M. Klene, C. Adamo, R. Cammi, 
 J. W. Ochterski, R. L. Martin, K. Morokuma, O. Farkas, 
 J. B. Foresman, and D. J. Fox, Gaussian, Inc., Wallingford CT, 2019.
 
 ******************************************
 Gaussian 16:  ES64L-G16RevC.01  3-Jul-2019
                 3-Jun-2022 
 ******************************************
 %mem=8gb
 %nproc=4
 Will use up to    4 processors via shared memory.
 %chk=conf-472.chk
 ----------------------------------------------------------------------
 # B3LYP/6-31G* empiricaldispersion=gd3 guess=read geom=check nosymm in
 tegral(ultrafinegrid)
 ----------------------------------------------------------------------
 1/29=2,38=1,172=1/1;
 2/12=2,15=1,40=1/2;
 3/5=1,6=6,7=1,11=2,14=-4,25=1,30=1,74=-5,75=-5,116=-2,124=31/1,2,3;
 4/5=1/1;
 5/5=2,38=6/2;
 6/7=2,8=2,9=2,10=2,28=1/1;
 99/5=1,9=1/99;
 ------------------------------------------------------
 Candidate Structure: Conf:472 Charge calc in gas phase
 ------------------------------------------------------
 Structure from the checkpoint file:  "conf-472.chk"
 Charge =  1 Multiplicity = 1
 Redundant internal coordinates found in file.  (old form).
 N,0,-6.1583092335,-0.3262081921,-11.0137987071
 C,0,-5.432912701,-1.6032540184,-10.628522189
 C,0,-6.4222881662,-2.6563228325,-10.0819380836
 O,0,-7.0134128656,-3.3675005068,-10.8840094742
 C,0,-4.213986119,-1.2638885291,-9.7704895348
 C,0,-3.3921586883,-0.1790279852,-10.4801748306
 N,0,-2.7053910064,0.6554962161,-9.6598160883
 O,0,-3.36836493,-0.1211741358,-11.7073986069
 H,0,-5.7184147598,0.04698811,-11.8610447583
 H,0,-5.091763319,-2.0301468574,-11.571370341
 H,0,-4.4870080617,-0.9444637375,-8.7628536203
 H,0,-3.5916175689,-2.1631038498,-9.690075352
 H,0,-2.241378988,1.4327342985,-10.1159106576
 H,0,-3.1114672377,0.8546496707,-8.7528064358
 H,0,-7.1768106349,-0.4764183203,-11.1374303984
 H,0,-6.0403062292,0.3997033858,-10.2497024438
 N,0,-6.5766992811,-2.7816680115,-8.7281727611
 C,0,-7.1179279125,-4.0272433726,-8.1763639214
 C,0,-8.2698997848,-3.7973755036,-7.1897784676
 O,0,-8.3131163789,-4.3736906962,-6.1011121534
 C,0,-6.0102931287,-4.9360002977,-7.5853922307
 C,0,-5.2836615272,-4.4086342074,-6.3635263379
 C,0,-4.3993323913,-3.3237052816,-6.4451124372
 C,0,-5.4732723734,-5.0134819299,-5.1111568732
 C,0,-3.7616510669,-2.8233843288,-5.3056677861
 C,0,-4.8214861247,-4.5342838064,-3.974161399
 C,0,-3.9736356393,-3.4258338835,-4.0636298834
 H,0,-6.1267613112,-2.1290316434,-8.0924765131
 H,0,-7.5417129086,-4.5540628208,-9.039266592
 H,0,-6.4722013605,-5.8982993643,-7.3479423661
 H,0,-5.2973044385,-5.1155580635,-8.3988444294
 H,0,-4.1780391278,-2.8762283971,-7.4080403241
 H,0,-6.1500037403,-5.8587421437,-5.0299860273
 H,0,-3.0875627806,-1.9763524159,-5.3958015672
 H,0,-4.9780828851,-5.0233759875,-3.0168896606
 H,0,-3.4698393418,-3.0486366717,-3.1785112712
 N,0,-9.2654199086,-2.9308793892,-7.5342522805
 C,0,-9.6130580704,-2.3583595002,-8.8303462622
 C,0,-8.9599065315,-0.9982844191,-9.1292117098
 O,0,-8.8111168209,-0.6446386702,-10.3069836705
 C,0,-11.148816976,-2.1782434414,-8.9121015114
 C,0,-11.6838594195,-1.2333655846,-7.830821883
 N,0,-12.5488213179,-0.2859068268,-8.2399178725
 O,0,-11.3412417308,-1.338352145,-6.6438200493
 H,0,-9.9787163222,-2.8232935879,-6.8193803565
 H,0,-9.2938172961,-3.0176775952,-9.6421241117
 H,0,-11.6314534428,-3.1528716095,-8.7729701409
 H,0,-11.3962557296,-1.8218557413,-9.9157360883
 H,0,-12.9796152453,0.3126541208,-7.5466421232
 H,0,-12.8549154692,-0.2044182763,-9.1987502152
 N,0,-8.6689369608,-0.2403198346,-8.0582161768
 C,0,-7.9176162267,1.0101596677,-8.15401939
 C,0,-6.4041985363,0.7081894666,-7.9456943895
 O,0,-6.0628293401,-0.0435012988,-6.9860017225
 C,0,-8.5004494497,2.1285763897,-7.2667888066
 C,0,-8.3440714967,2.0571831117,-5.736922056
 C,0,-8.9682127041,0.8389830602,-5.0411054469
 N,0,-8.0404804589,-0.2959413075,-5.1315798504
 C,0,-8.2481039476,-1.5210598793,-4.6517233222
 N,0,-9.4854105003,-1.9280446499,-4.3011101992
 N,0,-7.2043917117,-2.3418482946,-4.4708431123
 O,0,-5.6265345695,1.177211644,-8.8197982799
 H,0,-8.7090606916,-0.6999686555,-7.1583870883
 H,0,-8.0371492016,1.3423859411,-9.1861003527
 H,0,-8.0347778252,3.0629344914,-7.6011491138
 H,0,-9.5675123296,2.2035948981,-7.5141730246
 H,0,-7.2856350936,2.1229307217,-5.4558451225
 H,0,-8.8222434167,2.9523804865,-5.3247634239
 H,0,-9.1512395698,1.0541717264,-3.982481442
 H,0,-9.9325717123,0.5899266978,-5.5042787417
 H,0,-7.1658347901,-0.1548693531,-5.680024059
 H,0,-9.5901950775,-2.886727204,-3.9948876232
 H,0,-10.283302162,-1.535619606,-4.7918946862
 H,0,-7.3366690815,-3.3381269471,-4.618626286
 H,0,-6.2665354131,-2.0055809754,-4.6595424855
 Recover connectivity data from disk.
                           ----------------------------
                           !    Current Parameters    !
                           ! (Angstroms and Degrees)  !
 --------------------------                            --------------------------
 ! Name  Definition              Value                                          !
 --------------------------------------------------------------------------------
 ! R1    R(1,2)                  1.5184                                         !
 ! R2    R(1,9)                  1.025                                          !
 ! R3    R(1,15)                 1.0369                                         !
 ! R4    R(1,16)                 1.0605                                         !
 ! R5    R(2,3)                  1.5449                                         !
 ! R6    R(2,5)                  1.5288                                         !
 ! R7    R(2,10)                 1.0898                                         !
 ! R8    R(3,4)                  1.2241                                         !
 ! R9    R(3,17)                 1.3683                                         !
 ! R10   R(5,6)                  1.5349                                         !
 ! R11   R(5,11)                 1.0917                                         !
 ! R12   R(5,12)                 1.0965                                         !
 ! R13   R(6,7)                  1.3569                                         !
 ! R14   R(6,8)                  1.2288                                         !
 ! R15   R(7,13)                 1.0136                                         !
 ! R16   R(7,14)                 1.0135                                         !
 ! R17   R(17,18)                1.4659                                         !
 ! R18   R(17,28)                1.0161                                         !
 ! R19   R(18,19)                1.534                                          !
 ! R20   R(18,21)                1.5498                                         !
 ! R21   R(18,29)                1.0962                                         !
 ! R22   R(19,20)                1.2326                                         !
 ! R23   R(19,37)                1.364                                          !
 ! R24   R(21,22)                1.5163                                         !
 ! R25   R(21,30)                1.0935                                         !
 ! R26   R(21,31)                1.0965                                         !
 ! R27   R(22,23)                1.4021                                         !
 ! R28   R(22,24)                1.4036                                         !
 ! R29   R(23,25)                1.3983                                         !
 ! R30   R(23,32)                1.0846                                         !
 ! R31   R(24,26)                1.3954                                         !
 ! R32   R(24,33)                1.0858                                         !
 ! R33   R(25,27)                1.3966                                         !
 ! R34   R(25,34)                1.0863                                         !
 ! R35   R(26,27)                1.3984                                         !
 ! R36   R(26,35)                1.0863                                         !
 ! R37   R(27,36)                1.0861                                         !
 ! R38   R(37,38)                1.4589                                         !
 ! R39   R(37,45)                1.0156                                         !
 ! R40   R(38,39)                1.5381                                         !
 ! R41   R(38,41)                1.5484                                         !
 ! R42   R(38,46)                1.0934                                         !
 ! R43   R(39,40)                1.2387                                         !
 ! R44   R(39,51)                1.344                                          !
 ! R45   R(41,42)                1.5324                                         !
 ! R46   R(41,47)                1.0964                                         !
 ! R47   R(41,48)                1.0934                                         !
 ! R48   R(42,43)                1.3465                                         !
 ! R49   R(42,44)                1.2399                                         !
 ! R50   R(43,49)                1.0122                                         !
 ! R51   R(43,50)                1.0098                                         !
 ! R52   R(51,52)                1.462                                          !
 ! R53   R(51,63)                1.0112                                         !
 ! R54   R(52,53)                1.5572                                         !
 ! R55   R(52,55)                1.542                                          !
 ! R56   R(52,64)                1.0908                                         !
 ! R57   R(53,54)                1.2659                                         !
 ! R58   R(53,62)                1.2605                                         !
 ! R59   R(55,56)                1.5395                                         !
 ! R60   R(55,65)                1.0962                                         !
 ! R61   R(55,66)                1.0979                                         !
 ! R62   R(56,57)                1.5355                                         !
 ! R63   R(56,67)                1.0971                                         !
 ! R64   R(56,68)                1.0954                                         !
 ! R65   R(57,58)                1.4686                                         !
 ! R66   R(57,69)                1.0957                                         !
 ! R67   R(57,70)                1.0984                                         !
 ! R68   R(58,59)                1.332                                          !
 ! R69   R(58,71)                1.042                                          !
 ! R70   R(59,60)                1.3489                                         !
 ! R71   R(59,61)                1.3401                                         !
 ! R72   R(60,72)                1.0118                                         !
 ! R73   R(60,73)                1.0156                                         !
 ! R74   R(61,74)                1.0158                                         !
 ! R75   R(61,75)                1.014                                          !
 ! A1    A(2,1,9)              108.1155                                         !
 ! A2    A(2,1,15)             112.1898                                         !
 ! A3    A(2,1,16)             109.8594                                         !
 ! A4    A(9,1,15)             112.0699                                         !
 ! A5    A(9,1,16)             107.3721                                         !
 ! A6    A(15,1,16)            107.1187                                         !
 ! A7    A(1,2,3)              110.9241                                         !
 ! A8    A(1,2,5)              109.6714                                         !
 ! A9    A(1,2,10)             105.0398                                         !
 ! A10   A(3,2,5)              117.6049                                         !
 ! A11   A(3,2,10)             103.8612                                         !
 ! A12   A(5,2,10)             108.8412                                         !
 ! A13   A(2,3,4)              118.259                                          !
 ! A14   A(2,3,17)             118.9974                                         !
 ! A15   A(4,3,17)             122.7204                                         !
 ! A16   A(2,5,6)              108.9229                                         !
 ! A17   A(2,5,11)             112.555                                          !
 ! A18   A(2,5,12)             108.1593                                         !
 ! A19   A(6,5,11)             110.7226                                         !
 ! A20   A(6,5,12)             108.036                                          !
 ! A21   A(11,5,12)            108.3117                                         !
 ! A22   A(5,6,7)              115.2241                                         !
 ! A23   A(5,6,8)              120.3582                                         !
 ! A24   A(7,6,8)              124.4064                                         !
 ! A25   A(6,7,13)             115.5476                                         !
 ! A26   A(6,7,14)             117.3306                                         !
 ! A27   A(13,7,14)            115.8119                                         !
 ! A28   A(3,17,18)            119.4678                                         !
 ! A29   A(3,17,28)            120.6747                                         !
 ! A30   A(18,17,28)           118.2771                                         !
 ! A31   A(17,18,19)           113.0808                                         !
 ! A32   A(17,18,21)           112.2036                                         !
 ! A33   A(17,18,29)           104.7596                                         !
 ! A34   A(19,18,21)           112.2915                                         !
 ! A35   A(19,18,29)           106.7355                                         !
 ! A36   A(21,18,29)           107.1365                                         !
 ! A37   A(18,19,20)           121.6225                                         !
 ! A38   A(18,19,37)           118.7407                                         !
 ! A39   A(20,19,37)           119.6368                                         !
 ! A40   A(18,21,22)           116.4767                                         !
 ! A41   A(18,21,30)           107.2725                                         !
 ! A42   A(18,21,31)           106.1322                                         !
 ! A43   A(22,21,30)           109.4824                                         !
 ! A44   A(22,21,31)           110.07                                           !
 ! A45   A(30,21,31)           106.957                                          !
 ! A46   A(21,22,23)           121.6352                                         !
 ! A47   A(21,22,24)           120.2902                                         !
 ! A48   A(23,22,24)           118.0711                                         !
 ! A49   A(22,23,25)           121.1374                                         !
 ! A50   A(22,23,32)           119.9729                                         !
 ! A51   A(25,23,32)           118.8667                                         !
 ! A52   A(22,24,26)           121.0585                                         !
 ! A53   A(22,24,33)           119.0997                                         !
 ! A54   A(26,24,33)           119.8362                                         !
 ! A55   A(23,25,27)           120.0738                                         !
 ! A56   A(23,25,34)           119.6289                                         !
 ! A57   A(27,25,34)           120.2877                                         !
 ! A58   A(24,26,27)           120.2165                                         !
 ! A59   A(24,26,35)           119.7398                                         !
 ! A60   A(27,26,35)           120.0433                                         !
 ! A61   A(25,27,26)           119.3963                                         !
 ! A62   A(25,27,36)           120.3017                                         !
 ! A63   A(26,27,36)           120.2917                                         !
 ! A64   A(19,37,38)           130.3574                                         !
 ! A65   A(19,37,45)           113.7119                                         !
 ! A66   A(38,37,45)           114.6079                                         !
 ! A67   A(37,38,39)           114.7361                                         !
 ! A68   A(37,38,41)           109.2009                                         !
 ! A69   A(37,38,46)           110.6926                                         !
 ! A70   A(39,38,41)           107.942                                          !
 ! A71   A(39,38,46)           105.3641                                         !
 ! A72   A(41,38,46)           108.6938                                         !
 ! A73   A(38,39,40)           119.2235                                         !
 ! A74   A(38,39,51)           115.8362                                         !
 ! A75   A(40,39,51)           124.7982                                         !
 ! A76   A(38,41,42)           112.3809                                         !
 ! A77   A(38,41,47)           109.0552                                         !
 ! A78   A(38,41,48)           108.109                                          !
 ! A79   A(42,41,47)           107.7502                                         !
 ! A80   A(42,41,48)           111.5734                                         !
 ! A81   A(47,41,48)           107.854                                          !
 ! A82   A(41,42,43)           116.3441                                         !
 ! A83   A(41,42,44)           121.7905                                         !
 ! A84   A(43,42,44)           121.8651                                         !
 ! A85   A(42,43,49)           118.7767                                         !
 ! A86   A(42,43,50)           122.6816                                         !
 ! A87   A(49,43,50)           118.2704                                         !
 ! A88   A(39,51,52)           122.7815                                         !
 ! A89   A(39,51,63)           116.3701                                         !
 ! A90   A(52,51,63)           117.8717                                         !
 ! A91   A(51,52,53)           108.9545                                         !
 ! A92   A(51,52,55)           112.8571                                         !
 ! A93   A(51,52,64)           105.4381                                         !
 ! A94   A(53,52,55)           115.5317                                         !
 ! A95   A(53,52,64)           106.9858                                         !
 ! A96   A(55,52,64)           106.3843                                         !
 ! A97   A(52,53,54)           118.5958                                         !
 ! A98   A(52,53,62)           115.7643                                         !
 ! A99   A(54,53,62)           125.4712                                         !
 ! A100  A(52,55,56)           119.9837                                         !
 ! A101  A(52,55,65)           106.3889                                         !
 ! A102  A(52,55,66)           106.6942                                         !
 ! A103  A(56,55,65)           107.4267                                         !
 ! A104  A(56,55,66)           109.0141                                         !
 ! A105  A(65,55,66)           106.6123                                         !
 ! A106  A(55,56,57)           116.4762                                         !
 ! A107  A(55,56,67)           110.4762                                         !
 ! A108  A(55,56,68)           106.958                                          !
 ! A109  A(57,56,67)           108.8808                                         !
 ! A110  A(57,56,68)           107.4827                                         !
 ! A111  A(67,56,68)           106.0079                                         !
 ! A112  A(56,57,58)           109.1718                                         !
 ! A113  A(56,57,69)           110.4824                                         !
 ! A114  A(56,57,70)           110.2226                                         !
 ! A115  A(58,57,69)           108.4703                                         !
 ! A116  A(58,57,70)           110.6952                                         !
 ! A117  A(69,57,70)           107.7754                                         !
 ! A118  A(57,58,59)           126.1636                                         !
 ! A119  A(57,58,71)           117.2615                                         !
 ! A120  A(59,58,71)           116.4222                                         !
 ! A121  A(58,59,60)           120.9386                                         !
 ! A122  A(58,59,61)           119.3781                                         !
 ! A123  A(60,59,61)           119.6395                                         !
 ! A124  A(59,60,72)           117.3564                                         !
 ! A125  A(59,60,73)           118.5838                                         !
 ! A126  A(72,60,73)           115.5295                                         !
 ! A127  A(59,61,74)           118.6631                                         !
 ! A128  A(59,61,75)           119.4798                                         !
 ! A129  A(74,61,75)           114.7459                                         !
 ! D1    D(9,1,2,3)           -142.5162                                         !
 ! D2    D(9,1,2,5)             85.9152                                         !
 ! D3    D(9,1,2,10)           -30.9044                                         !
 ! D4    D(15,1,2,3)           -18.4332                                         !
 ! D5    D(15,1,2,5)          -150.0019                                         !
 ! D6    D(15,1,2,10)           93.1786                                         !
 ! D7    D(16,1,2,3)           100.6004                                         !
 ! D8    D(16,1,2,5)           -30.9682                                         !
 ! D9    D(16,1,2,10)         -147.7878                                         !
 ! D10   D(1,2,3,4)             84.6006                                         !
 ! D11   D(1,2,3,17)           -97.1054                                         !
 ! D12   D(5,2,3,4)           -148.0543                                         !
 ! D13   D(5,2,3,17)            30.2397                                         !
 ! D14   D(10,2,3,4)           -27.7634                                         !
 ! D15   D(10,2,3,17)          150.5306                                         !
 ! D16   D(1,2,5,6)            -50.6203                                         !
 ! D17   D(1,2,5,11)            72.5705                                         !
 ! D18   D(1,2,5,12)          -167.8079                                         !
 ! D19   D(3,2,5,6)           -178.5661                                         !
 ! D20   D(3,2,5,11)           -55.3753                                         !
 ! D21   D(3,2,5,12)            64.2463                                         !
 ! D22   D(10,2,5,6)            63.7832                                         !
 ! D23   D(10,2,5,11)         -173.026                                          !
 ! D24   D(10,2,5,12)          -53.4043                                         !
 ! D25   D(2,3,17,18)         -158.8864                                         !
 ! D26   D(2,3,17,28)            6.5356                                         !
 ! D27   D(4,3,17,18)           19.3275                                         !
 ! D28   D(4,3,17,28)         -175.2506                                         !
 ! D29   D(2,5,6,7)            150.0152                                         !
 ! D30   D(2,5,6,8)            -31.1531                                         !
 ! D31   D(11,5,6,7)            25.7358                                         !
 ! D32   D(11,5,6,8)          -155.4325                                         !
 ! D33   D(12,5,6,7)           -92.7189                                         !
 ! D34   D(12,5,6,8)            86.1128                                         !
 ! D35   D(5,6,7,13)          -173.7343                                         !
 ! D36   D(5,6,7,14)           -31.5226                                         !
 ! D37   D(8,6,7,13)             7.4876                                         !
 ! D38   D(8,6,7,14)           149.6993                                         !
 ! D39   D(3,17,18,19)        -129.966                                          !
 ! D40   D(3,17,18,21)         101.7702                                         !
 ! D41   D(3,17,18,29)         -14.1196                                         !
 ! D42   D(28,17,18,19)         64.264                                          !
 ! D43   D(28,17,18,21)        -63.9998                                         !
 ! D44   D(28,17,18,29)       -179.8896                                         !
 ! D45   D(17,18,19,20)       -133.2935                                         !
 ! D46   D(17,18,19,37)         46.6334                                         !
 ! D47   D(21,18,19,20)         -5.0753                                         !
 ! D48   D(21,18,19,37)        174.8516                                         !
 ! D49   D(29,18,19,20)        112.0412                                         !
 ! D50   D(29,18,19,37)        -68.0319                                         !
 ! D51   D(17,18,21,22)         65.9603                                         !
 ! D52   D(17,18,21,30)       -171.0107                                         !
 ! D53   D(17,18,21,31)        -56.9386                                         !
 ! D54   D(19,18,21,22)        -62.7188                                         !
 ! D55   D(19,18,21,30)         60.3102                                         !
 ! D56   D(19,18,21,31)        174.3823                                         !
 ! D57   D(29,18,21,22)       -179.5956                                         !
 ! D58   D(29,18,21,30)        -56.5666                                         !
 ! D59   D(29,18,21,31)         57.5055                                         !
 ! D60   D(18,19,37,38)         15.1295                                         !
 ! D61   D(18,19,37,45)       -178.9225                                         !
 ! D62   D(20,19,37,38)       -164.9421                                         !
 ! D63   D(20,19,37,45)          1.0059                                         !
 ! D64   D(18,21,22,23)        -70.1333                                         !
 ! D65   D(18,21,22,24)        110.5631                                         !
 ! D66   D(30,21,22,23)        167.9923                                         !
 ! D67   D(30,21,22,24)        -11.3112                                         !
 ! D68   D(31,21,22,23)         50.6941                                         !
 ! D69   D(31,21,22,24)       -128.6094                                         !
 ! D70   D(21,22,23,25)        178.297                                          !
 ! D71   D(21,22,23,32)         -3.4681                                         !
 ! D72   D(24,22,23,25)         -2.3845                                         !
 ! D73   D(24,22,23,32)        175.8503                                         !
 ! D74   D(21,22,24,26)       -179.4539                                         !
 ! D75   D(21,22,24,33)         -0.3161                                         !
 ! D76   D(23,22,24,26)          1.2181                                         !
 ! D77   D(23,22,24,33)       -179.6441                                         !
 ! D78   D(22,23,25,27)          1.6369                                         !
 ! D79   D(22,23,25,34)       -179.4843                                         !
 ! D80   D(32,23,25,27)       -176.6171                                         !
 ! D81   D(32,23,25,34)          2.2617                                         !
 ! D82   D(22,24,26,27)          0.6988                                         !
 ! D83   D(22,24,26,35)       -179.544                                          !
 ! D84   D(33,24,26,27)       -178.4327                                         !
 ! D85   D(33,24,26,35)          1.3245                                         !
 ! D86   D(23,25,27,26)          0.331                                          !
 ! D87   D(23,25,27,36)        179.1726                                         !
 ! D88   D(34,25,27,26)       -178.5404                                         !
 ! D89   D(34,25,27,36)          0.3013                                         !
 ! D90   D(24,26,27,25)         -1.4822                                         !
 ! D91   D(24,26,27,36)        179.6761                                         !
 ! D92   D(35,26,27,25)        178.7614                                         !
 ! D93   D(35,26,27,36)         -0.0804                                         !
 ! D94   D(19,37,38,39)        -92.477                                          !
 ! D95   D(19,37,38,41)        146.2176                                         !
 ! D96   D(19,37,38,46)         26.5915                                         !
 ! D97   D(45,37,38,39)        101.676                                          !
 ! D98   D(45,37,38,41)        -19.6294                                         !
 ! D99   D(45,37,38,46)       -139.2555                                         !
 ! D100  D(37,38,39,40)        155.9471                                         !
 ! D101  D(37,38,39,51)        -28.1781                                         !
 ! D102  D(41,38,39,40)        -82.0612                                         !
 ! D103  D(41,38,39,51)         93.8136                                         !
 ! D104  D(46,38,39,40)         33.9376                                         !
 ! D105  D(46,38,39,51)       -150.1876                                         !
 ! D106  D(37,38,41,42)         60.7323                                         !
 ! D107  D(37,38,41,47)        -58.6772                                         !
 ! D108  D(37,38,41,48)       -175.6924                                         !
 ! D109  D(39,38,41,42)        -64.6129                                         !
 ! D110  D(39,38,41,47)        175.9776                                         !
 ! D111  D(39,38,41,48)         58.9624                                         !
 ! D112  D(46,38,41,42)       -178.4143                                         !
 ! D113  D(46,38,41,47)         62.1762                                         !
 ! D114  D(46,38,41,48)        -54.839                                          !
 ! D115  D(38,39,51,52)        173.179                                          !
 ! D116  D(38,39,51,63)         13.1454                                         !
 ! D117  D(40,39,51,52)        -11.2056                                         !
 ! D118  D(40,39,51,63)       -171.2393                                         !
 ! D119  D(38,41,42,43)        133.0831                                         !
 ! D120  D(38,41,42,44)        -47.0969                                         !
 ! D121  D(47,41,42,43)       -106.7489                                         !
 ! D122  D(47,41,42,44)         73.0711                                         !
 ! D123  D(48,41,42,43)         11.463                                          !
 ! D124  D(48,41,42,44)       -168.7169                                         !
 ! D125  D(41,42,43,49)        175.3783                                         !
 ! D126  D(41,42,43,50)          1.4685                                         !
 ! D127  D(44,42,43,49)         -4.4416                                         !
 ! D128  D(44,42,43,50)       -178.3514                                         !
 ! D129  D(39,51,52,53)        -92.2909                                         !
 ! D130  D(39,51,52,55)        137.9674                                         !
 ! D131  D(39,51,52,64)         22.2466                                         !
 ! D132  D(63,51,52,53)         67.4612                                         !
 ! D133  D(63,51,52,55)        -62.2805                                         !
 ! D134  D(63,51,52,64)       -178.0013                                         !
 ! D135  D(51,52,53,54)        -46.2297                                         !
 ! D136  D(51,52,53,62)        129.3087                                         !
 ! D137  D(55,52,53,54)         82.0277                                         !
 ! D138  D(55,52,53,62)       -102.4338                                         !
 ! D139  D(64,52,53,54)       -159.7581                                         !
 ! D140  D(64,52,53,62)         15.7803                                         !
 ! D141  D(51,52,55,56)         71.9953                                         !
 ! D142  D(51,52,55,65)       -165.9931                                         !
 ! D143  D(51,52,55,66)        -52.4574                                         !
 ! D144  D(53,52,55,56)        -54.3032                                         !
 ! D145  D(53,52,55,65)         67.7084                                         !
 ! D146  D(53,52,55,66)       -178.7559                                         !
 ! D147  D(64,52,55,56)       -172.851                                          !
 ! D148  D(64,52,55,65)        -50.8394                                         !
 ! D149  D(64,52,55,66)         62.6962                                         !
 ! D150  D(52,55,56,57)        -60.324                                          !
 ! D151  D(52,55,56,67)         64.5575                                         !
 ! D152  D(52,55,56,68)        179.4941                                         !
 ! D153  D(65,55,56,57)        178.174                                          !
 ! D154  D(65,55,56,67)        -56.9445                                         !
 ! D155  D(65,55,56,68)         57.9921                                         !
 ! D156  D(66,55,56,57)         63.0165                                         !
 ! D157  D(66,55,56,67)       -172.102                                          !
 ! D158  D(66,55,56,68)        -57.1655                                         !
 ! D159  D(55,56,57,58)         82.6866                                         !
 ! D160  D(55,56,57,69)       -158.1091                                         !
 ! D161  D(55,56,57,70)        -39.1032                                         !
 ! D162  D(67,56,57,58)        -43.0012                                         !
 ! D163  D(67,56,57,69)         76.2031                                         !
 ! D164  D(67,56,57,70)       -164.791                                          !
 ! D165  D(68,56,57,58)       -157.4127                                         !
 ! D166  D(68,56,57,69)        -38.2084                                         !
 ! D167  D(68,56,57,70)         80.7975                                         !
 ! D168  D(56,57,58,59)       -179.3424                                         !
 ! D169  D(56,57,58,71)         -4.0144                                         !
 ! D170  D(69,57,58,59)         60.2121                                         !
 ! D171  D(69,57,58,71)       -124.46                                           !
 ! D172  D(70,57,58,59)        -57.8386                                         !
 ! D173  D(70,57,58,71)        117.4894                                         !
 ! D174  D(57,58,59,60)         15.9914                                         !
 ! D175  D(57,58,59,61)       -161.5941                                         !
 ! D176  D(71,58,59,60)       -159.3711                                         !
 ! D177  D(71,58,59,61)         23.0434                                         !
 ! D178  D(58,59,60,72)        176.4546                                         !
 ! D179  D(58,59,60,73)         29.8918                                         !
 ! D180  D(61,59,60,72)         -5.9661                                         !
 ! D181  D(61,59,60,73)       -152.529                                          !
 ! D182  D(58,59,61,74)       -146.0977                                         !
 ! D183  D(58,59,61,75)          2.887                                          !
 ! D184  D(60,59,61,74)         36.285                                          !
 ! D185  D(60,59,61,75)       -174.7303                                         !
 --------------------------------------------------------------------------------
 Symmetry turned off by external request.
 Stoichiometry    C23H36N9O7(1+)
 Framework group  C1[X(C23H36N9O7)]
 Deg. of freedom   219
 Full point group                 C1      NOp   1
                          Input orientation:                          
 ---------------------------------------------------------------------
 Center     Atomic      Atomic             Coordinates (Angstroms)
 Number     Number       Type             X           Y           Z
 ---------------------------------------------------------------------
      1          7           0       -6.158309   -0.326208  -11.013799
      2          6           0       -5.432913   -1.603254  -10.628522
      3          6           0       -6.422288   -2.656323  -10.081938
      4          8           0       -7.013413   -3.367501  -10.884009
      5          6           0       -4.213986   -1.263889   -9.770490
      6          6           0       -3.392159   -0.179028  -10.480175
      7          7           0       -2.705391    0.655496   -9.659816
      8          8           0       -3.368365   -0.121174  -11.707399
      9          1           0       -5.718415    0.046988  -11.861045
     10          1           0       -5.091763   -2.030147  -11.571370
     11          1           0       -4.487008   -0.944464   -8.762854
     12          1           0       -3.591618   -2.163104   -9.690075
     13          1           0       -2.241379    1.432734  -10.115911
     14          1           0       -3.111467    0.854650   -8.752806
     15          1           0       -7.176811   -0.476418  -11.137430
     16          1           0       -6.040306    0.399703  -10.249702
     17          7           0       -6.576699   -2.781668   -8.728173
     18          6           0       -7.117928   -4.027243   -8.176364
     19          6           0       -8.269900   -3.797376   -7.189778
     20          8           0       -8.313116   -4.373691   -6.101112
     21          6           0       -6.010293   -4.936000   -7.585392
     22          6           0       -5.283662   -4.408634   -6.363526
     23          6           0       -4.399332   -3.323705   -6.445112
     24          6           0       -5.473272   -5.013482   -5.111157
     25          6           0       -3.761651   -2.823384   -5.305668
     26          6           0       -4.821486   -4.534284   -3.974161
     27          6           0       -3.973636   -3.425834   -4.063630
     28          1           0       -6.126761   -2.129032   -8.092477
     29          1           0       -7.541713   -4.554063   -9.039267
     30          1           0       -6.472201   -5.898299   -7.347942
     31          1           0       -5.297304   -5.115558   -8.398844
     32          1           0       -4.178039   -2.876228   -7.408040
     33          1           0       -6.150004   -5.858742   -5.029986
     34          1           0       -3.087563   -1.976352   -5.395802
     35          1           0       -4.978083   -5.023376   -3.016890
     36          1           0       -3.469839   -3.048637   -3.178511
     37          7           0       -9.265420   -2.930879   -7.534252
     38          6           0       -9.613058   -2.358360   -8.830346
     39          6           0       -8.959907   -0.998284   -9.129212
     40          8           0       -8.811117   -0.644639  -10.306984
     41          6           0      -11.148817   -2.178243   -8.912102
     42          6           0      -11.683859   -1.233366   -7.830822
     43          7           0      -12.548821   -0.285907   -8.239918
     44          8           0      -11.341242   -1.338352   -6.643820
     45          1           0       -9.978716   -2.823294   -6.819380
     46          1           0       -9.293817   -3.017678   -9.642124
     47          1           0      -11.631453   -3.152872   -8.772970
     48          1           0      -11.396256   -1.821856   -9.915736
     49          1           0      -12.979615    0.312654   -7.546642
     50          1           0      -12.854915   -0.204418   -9.198750
     51          7           0       -8.668937   -0.240320   -8.058216
     52          6           0       -7.917616    1.010160   -8.154019
     53          6           0       -6.404199    0.708189   -7.945694
     54          8           0       -6.062829   -0.043501   -6.986002
     55          6           0       -8.500449    2.128576   -7.266789
     56          6           0       -8.344071    2.057183   -5.736922
     57          6           0       -8.968213    0.838983   -5.041105
     58          7           0       -8.040480   -0.295941   -5.131580
     59          6           0       -8.248104   -1.521060   -4.651723
     60          7           0       -9.485411   -1.928045   -4.301110
     61          7           0       -7.204392   -2.341848   -4.470843
     62          8           0       -5.626535    1.177212   -8.819798
     63          1           0       -8.709061   -0.699969   -7.158387
     64          1           0       -8.037149    1.342386   -9.186100
     65          1           0       -8.034778    3.062934   -7.601149
     66          1           0       -9.567512    2.203595   -7.514173
     67          1           0       -7.285635    2.122931   -5.455845
     68          1           0       -8.822243    2.952380   -5.324763
     69          1           0       -9.151240    1.054172   -3.982481
     70          1           0       -9.932572    0.589927   -5.504279
     71          1           0       -7.165835   -0.154869   -5.680024
     72          1           0       -9.590195   -2.886727   -3.994888
     73          1           0      -10.283302   -1.535620   -4.791895
     74          1           0       -7.336669   -3.338127   -4.618626
     75          1           0       -6.266535   -2.005581   -4.659542
 ---------------------------------------------------------------------
 Rotational constants (GHZ):           0.1119421           0.0996514           0.0789756
 Standard basis: 6-31G(d) (6D, 7F)
   657 basis functions,  1236 primitive gaussians,   657 cartesian basis functions
   146 alpha electrons      146 beta electrons
       nuclear repulsion energy      5291.7488139058 Hartrees.
 NAtoms=   75 NActive=   75 NUniq=   75 SFac= 1.00D+00 NAtFMM=   60 NAOKFM=T Big=T
 Integral buffers will be    131072 words long.
 Raffenetti 2 integral format.
 Two-electron integral symmetry is turned off.
 Nuclear repulsion after empirical dispersion term =     5291.6165320923 Hartrees.
 One-electron integrals computed using PRISM.
 NBasis=   657 RedAO= T EigKep=  4.48D-04  NBF=   657
 NBsUse=   657 1.00D-06 EigRej= -1.00D+00 NBFU=   657
 Initial guess from the checkpoint file:  "conf-472.chk"
 B after Tr=     0.000000    0.000000    0.000000
         Rot=    1.000000    0.000000    0.000000    0.000000 Ang=   0.00 deg.
 Requested convergence on RMS density matrix=1.00D-08 within 128 cycles.
 Requested convergence on MAX density matrix=1.00D-06.
 Requested convergence on             energy=1.00D-06.
 No special actions if energy rises.
 SCF Done:  E(RB3LYP) =  -1917.53269480     A.U. after    1 cycles
            NFock=  1  Conv=0.24D-08     -V/T= 2.0093

 **********************************************************************

            Population analysis using the SCF Density.

 **********************************************************************

 Alpha  occ. eigenvalues --  -19.25148 -19.23844 -19.23588 -19.23562 -19.21657
 Alpha  occ. eigenvalues --  -19.21259 -19.21082 -14.53459 -14.48954 -14.48897
 Alpha  occ. eigenvalues --  -14.48165 -14.48091 -14.47782 -14.47639 -14.47608
 Alpha  occ. eigenvalues --  -14.44342 -10.44888 -10.42794 -10.41102 -10.41015
 Alpha  occ. eigenvalues --  -10.40802 -10.39120 -10.38856 -10.36670 -10.36170
 Alpha  occ. eigenvalues --  -10.34888 -10.34142 -10.33317 -10.32930 -10.30708
 Alpha  occ. eigenvalues --  -10.29985 -10.29876 -10.29448 -10.29424 -10.28543
 Alpha  occ. eigenvalues --  -10.28480 -10.28261 -10.28208 -10.28034  -1.16748
 Alpha  occ. eigenvalues --   -1.16105  -1.15460  -1.15391  -1.14523  -1.13607
 Alpha  occ. eigenvalues --   -1.13072  -1.08717  -1.05847  -1.05326  -1.04234
 Alpha  occ. eigenvalues --   -1.03714  -1.03298  -1.02824  -1.01697  -0.99630
 Alpha  occ. eigenvalues --   -0.95058  -0.91337  -0.90537  -0.90041  -0.88254
 Alpha  occ. eigenvalues --   -0.85522  -0.83899  -0.83788  -0.80729  -0.79303
 Alpha  occ. eigenvalues --   -0.78308  -0.76722  -0.75378  -0.72439  -0.71747
 Alpha  occ. eigenvalues --   -0.71356  -0.70753  -0.70359  -0.69842  -0.69685
 Alpha  occ. eigenvalues --   -0.68860  -0.68105  -0.67335  -0.67130  -0.66924
 Alpha  occ. eigenvalues --   -0.66651  -0.65547  -0.64186  -0.63234  -0.62603
 Alpha  occ. eigenvalues --   -0.62385  -0.61656  -0.61084  -0.60839  -0.60293
 Alpha  occ. eigenvalues --   -0.59261  -0.59024  -0.58458  -0.57869  -0.57807
 Alpha  occ. eigenvalues --   -0.56753  -0.55899  -0.55441  -0.55348  -0.55178
 Alpha  occ. eigenvalues --   -0.55071  -0.54520  -0.54281  -0.53643  -0.53328
 Alpha  occ. eigenvalues --   -0.53139  -0.52431  -0.52265  -0.51882  -0.51588
 Alpha  occ. eigenvalues --   -0.51259  -0.51148  -0.50932  -0.50300  -0.50060
 Alpha  occ. eigenvalues --   -0.49689  -0.49273  -0.48753  -0.48495  -0.48027
 Alpha  occ. eigenvalues --   -0.47909  -0.47337  -0.46510  -0.45771  -0.45390
 Alpha  occ. eigenvalues --   -0.45096  -0.44593  -0.43307  -0.43190  -0.40946
 Alpha  occ. eigenvalues --   -0.40347  -0.40076  -0.39317  -0.38994  -0.38627
 Alpha  occ. eigenvalues --   -0.38009  -0.37500  -0.37198  -0.36817  -0.36659
 Alpha  occ. eigenvalues --   -0.36032  -0.35434  -0.34773  -0.34485  -0.34095
 Alpha  occ. eigenvalues --   -0.33587
 Alpha virt. eigenvalues --   -0.11804  -0.11266  -0.10992  -0.10453  -0.10214
 Alpha virt. eigenvalues --   -0.09751  -0.09360  -0.08352  -0.07119  -0.04578
 Alpha virt. eigenvalues --   -0.03261  -0.02650  -0.01272  -0.00766  -0.00437
 Alpha virt. eigenvalues --    0.00311   0.00520   0.00611   0.01492   0.01842
 Alpha virt. eigenvalues --    0.02366   0.02588   0.02773   0.03265   0.03566
 Alpha virt. eigenvalues --    0.03658   0.03941   0.04341   0.04689   0.04889
 Alpha virt. eigenvalues --    0.05163   0.05338   0.06007   0.06159   0.06427
 Alpha virt. eigenvalues --    0.06682   0.07562   0.07584   0.07968   0.08026
 Alpha virt. eigenvalues --    0.08270   0.08585   0.08796   0.09016   0.09516
 Alpha virt. eigenvalues --    0.09858   0.10523   0.10577   0.11183   0.11474
 Alpha virt. eigenvalues --    0.11744   0.12396   0.12904   0.13275   0.13713
 Alpha virt. eigenvalues --    0.14238   0.14347   0.15021   0.15607   0.16182
 Alpha virt. eigenvalues --    0.16377   0.17264   0.18231   0.18707   0.20187
 Alpha virt. eigenvalues --    0.20852   0.21724   0.23002   0.23094   0.23287
 Alpha virt. eigenvalues --    0.23888   0.24569   0.25456   0.25647   0.26843
 Alpha virt. eigenvalues --    0.27209   0.27827   0.29076   0.30160   0.30468
 Alpha virt. eigenvalues --    0.32016   0.32274   0.34506   0.35321   0.36639
 Alpha virt. eigenvalues --    0.36954   0.37748   0.38504   0.39525   0.39920
 Alpha virt. eigenvalues --    0.40821   0.41300   0.41853   0.42166   0.42350
 Alpha virt. eigenvalues --    0.42950   0.43797   0.44414   0.44823   0.45425
 Alpha virt. eigenvalues --    0.45900   0.46211   0.46428   0.46657   0.46980
 Alpha virt. eigenvalues --    0.47661   0.47927   0.48533   0.48888   0.49151
 Alpha virt. eigenvalues --    0.49656   0.50179   0.50285   0.50938   0.51943
 Alpha virt. eigenvalues --    0.52157   0.52868   0.52901   0.53197   0.53312
 Alpha virt. eigenvalues --    0.53482   0.53965   0.54103   0.54671   0.55099
 Alpha virt. eigenvalues --    0.55194   0.55822   0.56054   0.56260   0.56471
 Alpha virt. eigenvalues --    0.57099   0.57457   0.57841   0.58576   0.59237
 Alpha virt. eigenvalues --    0.59502   0.60146   0.60660   0.61354   0.61539
 Alpha virt. eigenvalues --    0.62454   0.63012   0.63541   0.64644   0.64871
 Alpha virt. eigenvalues --    0.65378   0.66326   0.67130   0.67932   0.68255
 Alpha virt. eigenvalues --    0.68335   0.69480   0.69602   0.70218   0.70517
 Alpha virt. eigenvalues --    0.71348   0.71515   0.72628   0.73024   0.73489
 Alpha virt. eigenvalues --    0.73960   0.74325   0.74633   0.75196   0.75600
 Alpha virt. eigenvalues --    0.75687   0.75954   0.76036   0.76440   0.76562
 Alpha virt. eigenvalues --    0.77183   0.77874   0.78030   0.78238   0.78376
 Alpha virt. eigenvalues --    0.78769   0.79299   0.80152   0.80454   0.80537
 Alpha virt. eigenvalues --    0.80918   0.81141   0.81393   0.81796   0.82156
 Alpha virt. eigenvalues --    0.82383   0.82703   0.83000   0.83668   0.84618
 Alpha virt. eigenvalues --    0.85033   0.85636   0.85843   0.86121   0.86893
 Alpha virt. eigenvalues --    0.87174   0.87538   0.87928   0.88114   0.88956
 Alpha virt. eigenvalues --    0.90239   0.90703   0.90972   0.91523   0.91697
 Alpha virt. eigenvalues --    0.93550   0.94371   0.94943   0.96105   0.96733
 Alpha virt. eigenvalues --    0.97210   0.97641   0.98265   0.99429   1.00017
 Alpha virt. eigenvalues --    1.00506   1.00809   1.01789   1.02280   1.02558
 Alpha virt. eigenvalues --    1.02955   1.03332   1.04600   1.04814   1.05589
 Alpha virt. eigenvalues --    1.05895   1.06899   1.07403   1.08360   1.08672
 Alpha virt. eigenvalues --    1.09456   1.10587   1.10997   1.11211   1.12097
 Alpha virt. eigenvalues --    1.12455   1.13306   1.14060   1.14687   1.15184
 Alpha virt. eigenvalues --    1.16377   1.17184   1.17646   1.18305   1.19288
 Alpha virt. eigenvalues --    1.20217   1.21245   1.21845   1.22712   1.23402
 Alpha virt. eigenvalues --    1.24182   1.24469   1.26245   1.26534   1.27921
 Alpha virt. eigenvalues --    1.28375   1.28978   1.29698   1.31216   1.31458
 Alpha virt. eigenvalues --    1.32247   1.33370   1.33916   1.34913   1.34946
 Alpha virt. eigenvalues --    1.35574   1.35846   1.37034   1.37541   1.38544
 Alpha virt. eigenvalues --    1.39011   1.39658   1.40316   1.41213   1.42104
 Alpha virt. eigenvalues --    1.42508   1.43070   1.43453   1.43788   1.44977
 Alpha virt. eigenvalues --    1.45363   1.48119   1.49438   1.50746   1.51435
 Alpha virt. eigenvalues --    1.51607   1.52656   1.53523   1.55022   1.55767
 Alpha virt. eigenvalues --    1.56387   1.57080   1.57478   1.58348   1.59055
 Alpha virt. eigenvalues --    1.60520   1.61448   1.61953   1.62374   1.63039
 Alpha virt. eigenvalues --    1.63727   1.64124   1.64984   1.65613   1.66601
 Alpha virt. eigenvalues --    1.67216   1.67530   1.68429   1.68915   1.70109
 Alpha virt. eigenvalues --    1.70723   1.71040   1.71533   1.71766   1.72462
 Alpha virt. eigenvalues --    1.72977   1.73481   1.73761   1.74263   1.75027
 Alpha virt. eigenvalues --    1.75515   1.76604   1.76772   1.77085   1.77906
 Alpha virt. eigenvalues --    1.78473   1.78963   1.79282   1.80003   1.80697
 Alpha virt. eigenvalues --    1.81077   1.81548   1.81899   1.82641   1.82721
 Alpha virt. eigenvalues --    1.83189   1.83697   1.83952   1.84845   1.85679
 Alpha virt. eigenvalues --    1.86108   1.86685   1.86943   1.88480   1.88756
 Alpha virt. eigenvalues --    1.89304   1.89906   1.90477   1.91866   1.92776
 Alpha virt. eigenvalues --    1.93103   1.93852   1.94322   1.94660   1.95770
 Alpha virt. eigenvalues --    1.96666   1.96879   1.97105   1.98195   1.98455
 Alpha virt. eigenvalues --    1.99743   2.00332   2.00396   2.00833   2.01408
 Alpha virt. eigenvalues --    2.02472   2.03643   2.03674   2.05316   2.05792
 Alpha virt. eigenvalues --    2.06170   2.06856   2.07680   2.08787   2.09767
 Alpha virt. eigenvalues --    2.10205   2.11288   2.12073   2.12348   2.12783
 Alpha virt. eigenvalues --    2.13871   2.14660   2.14723   2.15208   2.16082
 Alpha virt. eigenvalues --    2.16689   2.17572   2.18913   2.19640   2.20528
 Alpha virt. eigenvalues --    2.22073   2.22294   2.22810   2.23736   2.25389
 Alpha virt. eigenvalues --    2.25638   2.26375   2.27765   2.28228   2.29184
 Alpha virt. eigenvalues --    2.30139   2.30859   2.32182   2.33285   2.33523
 Alpha virt. eigenvalues --    2.34684   2.35760   2.36583   2.37654   2.38106
 Alpha virt. eigenvalues --    2.38389   2.39257   2.41366   2.42921   2.43953
 Alpha virt. eigenvalues --    2.44734   2.46008   2.46696   2.47778   2.48474
 Alpha virt. eigenvalues --    2.49205   2.49605   2.50405   2.50733   2.50951
 Alpha virt. eigenvalues --    2.52308   2.52717   2.53529   2.54085   2.54501
 Alpha virt. eigenvalues --    2.55469   2.55946   2.56123   2.56791   2.58433
 Alpha virt. eigenvalues --    2.59259   2.61201   2.61520   2.62371   2.63615
 Alpha virt. eigenvalues --    2.64185   2.65113   2.65446   2.65757   2.67716
 Alpha virt. eigenvalues --    2.68538   2.70857   2.71689   2.73912   2.74627
 Alpha virt. eigenvalues --    2.75586   2.80980   2.82643   2.83067   2.87446
 Alpha virt. eigenvalues --    2.88502   2.88962   2.89475   2.90427   2.91138
 Alpha virt. eigenvalues --    2.92715   2.93127   2.94476   2.96400   2.97468
 Alpha virt. eigenvalues --    2.97881   3.00082   3.02469   3.03622   3.05343
 Alpha virt. eigenvalues --    3.09427   3.31295   3.67784   3.74295   3.74488
 Alpha virt. eigenvalues --    3.78838   3.82319   3.86412   3.91272   3.95374
 Alpha virt. eigenvalues --    3.98590   3.99047   4.00769   4.01620   4.03084
 Alpha virt. eigenvalues --    4.07138   4.08618   4.10190   4.11683   4.12719
 Alpha virt. eigenvalues --    4.13935   4.15768   4.18514   4.20150   4.22142
 Alpha virt. eigenvalues --    4.25555   4.27247   4.30584   4.33711   4.37051
 Alpha virt. eigenvalues --    4.37936   4.39137   4.42529   4.43698   4.45593
 Alpha virt. eigenvalues --    4.53875   4.58079   4.60037   4.62333   4.62636
 Alpha virt. eigenvalues --    4.67735
          Condensed to atoms (all electrons):
 Mulliken charges:
               1
     1  N   -0.820390
     2  C   -0.072822
     3  C    0.595558
     4  O   -0.492725
     5  C   -0.418443
     6  C    0.598591
     7  N   -0.723163
     8  O   -0.516157
     9  H    0.414062
    10  H    0.238569
    11  H    0.201154
    12  H    0.209362
    13  H    0.353945
    14  H    0.361821
    15  H    0.444124
    16  H    0.436824
    17  N   -0.637383
    18  C   -0.096500
    19  C    0.623074
    20  O   -0.545559
    21  C   -0.347056
    22  C    0.169321
    23  C   -0.199869
    24  C   -0.206044
    25  C   -0.149353
    26  C   -0.129034
    27  C   -0.145330
    28  H    0.371701
    29  H    0.222862
    30  H    0.181081
    31  H    0.171786
    32  H    0.132076
    33  H    0.155740
    34  H    0.152743
    35  H    0.156280
    36  H    0.156855
    37  N   -0.637149
    38  C   -0.056633
    39  C    0.634970
    40  O   -0.587176
    41  C   -0.394768
    42  C    0.624292
    43  N   -0.724589
    44  O   -0.559551
    45  H    0.364630
    46  H    0.216415
    47  H    0.214965
    48  H    0.195199
    49  H    0.365464
    50  H    0.368831
    51  N   -0.597039
    52  C   -0.083371
    53  C    0.621526
    54  O   -0.603941
    55  C   -0.281885
    56  C   -0.314295
    57  C   -0.149894
    58  N   -0.656991
    59  C    0.730793
    60  N   -0.750256
    61  N   -0.768537
    62  O   -0.589470
    63  H    0.376405
    64  H    0.174305
    65  H    0.180129
    66  H    0.154593
    67  H    0.176382
    68  H    0.176317
    69  H    0.190654
    70  H    0.172431
    71  H    0.412445
    72  H    0.371970
    73  H    0.400734
    74  H    0.404857
    75  H    0.379539
 Sum of Mulliken charges =   1.00000
 Mulliken charges with hydrogens summed into heavy atoms:
               1
     1  N    0.474620
     2  C    0.165747
     3  C    0.595558
     4  O   -0.492725
     5  C   -0.007927
     6  C    0.598591
     7  N   -0.007397
     8  O   -0.516157
    17  N   -0.265682
    18  C    0.126362
    19  C    0.623074
    20  O   -0.545559
    21  C    0.005812
    22  C    0.169321
    23  C   -0.067793
    24  C   -0.050304
    25  C    0.003390
    26  C    0.027246
    27  C    0.011526
    37  N   -0.272520
    38  C    0.159782
    39  C    0.634970
    40  O   -0.587176
    41  C    0.015395
    42  C    0.624292
    43  N    0.009705
    44  O   -0.559551
    51  N   -0.220634
    52  C    0.090934
    53  C    0.621526
    54  O   -0.603941
    55  C    0.052837
    56  C    0.038403
    57  C    0.213191
    58  N   -0.244546
    59  C    0.730793
    60  N    0.022448
    61  N    0.015860
    62  O   -0.589470
 Electronic spatial extent (au):  <R**2>=         133483.6063
 Charge=              1.0000 electrons
 Dipole moment (field-independent basis, Debye):
    X=            -41.8112    Y=             -4.3532    Z=            -33.8800  Tot=             53.9905
 Quadrupole moment (field-independent basis, Debye-Ang):
   XX=            191.6187   YY=           -196.2793   ZZ=             37.3460
   XY=             32.2451   XZ=            305.5310   YZ=             21.6145
 Traceless Quadrupole moment (field-independent basis, Debye-Ang):
   XX=            180.7236   YY=           -207.1744   ZZ=             26.4508
   XY=             32.2451   XZ=            305.5310   YZ=             21.6145
 Octapole moment (field-independent basis, Debye-Ang**2):
  XXX=            313.8352  YYY=            991.6656  ZZZ=           3013.5875  XYY=           1403.8782
  XXY=            110.2502  XXZ=          -1429.7165  XZZ=           -822.2754  YZZ=            250.2551
  YYZ=           1546.5433  XYZ=           -185.2892
 Hexadecapole moment (field-independent basis, Debye-Ang**3):
 XXXX=         -25668.0873 YYYY=          -8482.3792 ZZZZ=         -67425.8184 XXXY=          -5069.4000
 XXXZ=          -1220.4191 YYYX=          -6636.1865 YYYZ=          -7043.6025 ZZZX=         -15946.7542
 ZZZY=          -7270.5130 XXYY=         -12719.7580 XXZZ=          -1593.8673 YYZZ=         -14565.1028
 XXYZ=           -892.3508 YYXZ=         -10953.1688 ZZXY=          -1274.4794
 N-N= 5.291616532092D+03 E-N=-1.502212764172D+04  KE= 1.899835887913D+03
 Unable to Open any file for archive entry.
 1\1\GINC-AMR-161\SP\RB3LYP\6-31G(d)\C23H36N9O7(1+)\KENGMITH\03-Jun-202
 2\0\\# B3LYP/6-31G* empiricaldispersion=gd3 guess=read geom=check nosy
 mm integral(ultrafinegrid)\\Candidate Structure: Conf:472 Charge calc 
 in gas phase\\1,1\N,0,-6.1583092335,-0.3262081921,-11.0137987071\C,0,-
 5.432912701,-1.6032540184,-10.628522189\C,0,-6.4222881662,-2.656322832
 5,-10.0819380836\O,0,-7.0134128656,-3.3675005068,-10.8840094742\C,0,-4
 .213986119,-1.2638885291,-9.7704895348\C,0,-3.3921586883,-0.1790279852
 ,-10.4801748306\N,0,-2.7053910064,0.6554962161,-9.6598160883\O,0,-3.36
 836493,-0.1211741358,-11.7073986069\H,0,-5.7184147598,0.04698811,-11.8
 610447583\H,0,-5.091763319,-2.0301468574,-11.571370341\H,0,-4.48700806
 17,-0.9444637375,-8.7628536203\H,0,-3.5916175689,-2.1631038498,-9.6900
 75352\H,0,-2.241378988,1.4327342985,-10.1159106576\H,0,-3.1114672377,0
 .8546496707,-8.7528064358\H,0,-7.1768106349,-0.4764183203,-11.13743039
 84\H,0,-6.0403062292,0.3997033858,-10.2497024438\N,0,-6.5766992811,-2.
 7816680115,-8.7281727611\C,0,-7.1179279125,-4.0272433726,-8.1763639214
 \C,0,-8.2698997848,-3.7973755036,-7.1897784676\O,0,-8.3131163789,-4.37
 36906962,-6.1011121534\C,0,-6.0102931287,-4.9360002977,-7.5853922307\C
 ,0,-5.2836615272,-4.4086342074,-6.3635263379\C,0,-4.3993323913,-3.3237
 052816,-6.4451124372\C,0,-5.4732723734,-5.0134819299,-5.1111568732\C,0
 ,-3.7616510669,-2.8233843288,-5.3056677861\C,0,-4.8214861247,-4.534283
 8064,-3.974161399\C,0,-3.9736356393,-3.4258338835,-4.0636298834\H,0,-6
 .1267613112,-2.1290316434,-8.0924765131\H,0,-7.5417129086,-4.554062820
 8,-9.039266592\H,0,-6.4722013605,-5.8982993643,-7.3479423661\H,0,-5.29
 73044385,-5.1155580635,-8.3988444294\H,0,-4.1780391278,-2.8762283971,-
 7.4080403241\H,0,-6.1500037403,-5.8587421437,-5.0299860273\H,0,-3.0875
 627806,-1.9763524159,-5.3958015672\H,0,-4.9780828851,-5.0233759875,-3.
 0168896606\H,0,-3.4698393418,-3.0486366717,-3.1785112712\N,0,-9.265419
 9086,-2.9308793892,-7.5342522805\C,0,-9.6130580704,-2.3583595002,-8.83
 03462622\C,0,-8.9599065315,-0.9982844191,-9.1292117098\O,0,-8.81111682
 09,-0.6446386702,-10.3069836705\C,0,-11.148816976,-2.1782434414,-8.912
 1015114\C,0,-11.6838594195,-1.2333655846,-7.830821883\N,0,-12.54882131
 79,-0.2859068268,-8.2399178725\O,0,-11.3412417308,-1.338352145,-6.6438
 200493\H,0,-9.9787163222,-2.8232935879,-6.8193803565\H,0,-9.2938172961
 ,-3.0176775952,-9.6421241117\H,0,-11.6314534428,-3.1528716095,-8.77297
 01409\H,0,-11.3962557296,-1.8218557413,-9.9157360883\H,0,-12.979615245
 3,0.3126541208,-7.5466421232\H,0,-12.8549154692,-0.2044182763,-9.19875
 02152\N,0,-8.6689369608,-0.2403198346,-8.0582161768\C,0,-7.9176162267,
 1.0101596677,-8.15401939\C,0,-6.4041985363,0.7081894666,-7.9456943895\
 O,0,-6.0628293401,-0.0435012988,-6.9860017225\C,0,-8.5004494497,2.1285
 763897,-7.2667888066\C,0,-8.3440714967,2.0571831117,-5.736922056\C,0,-
 8.9682127041,0.8389830602,-5.0411054469\N,0,-8.0404804589,-0.295941307
 5,-5.1315798504\C,0,-8.2481039476,-1.5210598793,-4.6517233222\N,0,-9.4
 854105003,-1.9280446499,-4.3011101992\N,0,-7.2043917117,-2.3418482946,
 -4.4708431123\O,0,-5.6265345695,1.177211644,-8.8197982799\H,0,-8.70906
 06916,-0.6999686555,-7.1583870883\H,0,-8.0371492016,1.3423859411,-9.18
 61003527\H,0,-8.0347778252,3.0629344914,-7.6011491138\H,0,-9.567512329
 6,2.2035948981,-7.5141730246\H,0,-7.2856350936,2.1229307217,-5.4558451
 225\H,0,-8.8222434167,2.9523804865,-5.3247634239\H,0,-9.1512395698,1.0
 541717264,-3.982481442\H,0,-9.9325717123,0.5899266978,-5.5042787417\H,
 0,-7.1658347901,-0.1548693531,-5.680024059\H,0,-9.5901950775,-2.886727
 204,-3.9948876232\H,0,-10.283302162,-1.535619606,-4.7918946862\H,0,-7.
 3366690815,-3.3381269471,-4.618626286\H,0,-6.2665354131,-2.0055809754,
 -4.6595424855\\Version=ES64L-G16RevC.01\HF=-1917.5326948\RMSD=2.383e-0
 9\Dipole=-2.8275492,1.2000299,1.1177802\Quadrupole=134.3635461,-154.02
 91024,19.6655564,23.9734295,227.1548264,16.0698532\PG=C01 [X(C23H36N9O
 7)]\\@
 The archive entry for this job was punched.


 I (ERNEST RUTHERFORD) CAME INTO THE ROOM, WHICH WAS HALF DARK, AND PRESENTLY
 SPOTTED LORD KELVIN IN THE AUDIENCE AND REALIZED I WAS IN TROUBLE AT
 THE LAST PART OF MY SPEECH DEALING THE AGE OF THE EARTH, WHERE MY VIEWS
 CONFLICTED WITH HIS.  TO MY RELIEF KELVIN FELL FAST ASLEEP, BUT AS I CAME
 TO THE IMPORTANT POINT, I SAW THE OLD BIRD SIT UP AND COCK A BALEFUL GLANCE
 AT ME! THEN A SUDDEN INSPIRATION CAME AND I SAID LORD KELVIN HAD LIMITED
 THE AGE OF THE EARTH PROVIDED NO NEW SOURCE WAS DISCOVERED. THAT
 PROPHETIC UTTERANCE REFERS TO WHAT WE ARE NOW CONSIDERING TONIGHT, RADIUM!
 BEHOLD!  THE OLD BOY BEAMED UPON ME.
 Job cpu time:       0 days  0 hours  2 minutes  5.1 seconds.
 Elapsed time:       0 days  0 hours  0 minutes 32.2 seconds.
 File lengths (MBytes):  RWF=    344 Int=      0 D2E=      0 Chk=     48 Scr=     16
 Normal termination of Gaussian 16 at Fri Jun  3 06:00:31 2022.
