 Entering Gaussian System, Link 0=/opt/software/Gaussian/g16-AVX2-C.01/g16/g16
 Input=charge-conf-291.com
 Output=charge-conf-291.log
 Initial command:
 /opt/software/Gaussian/g16-AVX2-C.01/g16/l1.exe "/mnt/gs18/scratch/users/kengmith/Gau-53103.inp" -scrdir="/mnt/gs18/scratch/users/kengmith/"
 Entering Link 1 = /opt/software/Gaussian/g16-AVX2-C.01/g16/l1.exe PID=     53113.
  
 Copyright (c) 1988-2019, Gaussian, Inc.  All Rights Reserved.
  
 This is part of the Gaussian(R) 16 program.  It is based on
 the Gaussian(R) 09 system (copyright 2009, Gaussian, Inc.),
 the Gaussian(R) 03 system (copyright 2003, Gaussian, Inc.),
 the Gaussian(R) 98 system (copyright 1998, Gaussian, Inc.),
 the Gaussian(R) 94 system (copyright 1995, Gaussian, Inc.),
 the Gaussian 92(TM) system (copyright 1992, Gaussian, Inc.),
 the Gaussian 90(TM) system (copyright 1990, Gaussian, Inc.),
 the Gaussian 88(TM) system (copyright 1988, Gaussian, Inc.),
 the Gaussian 86(TM) system (copyright 1986, Carnegie Mellon
 University), and the Gaussian 82(TM) system (copyright 1983,
 Carnegie Mellon University). Gaussian is a federally registered
 trademark of Gaussian, Inc.
  
 This software contains proprietary and confidential information,
 including trade secrets, belonging to Gaussian, Inc.
  
 This software is provided under written license and may be
 used, copied, transmitted, or stored only in accord with that
 written license.
  
 The following legend is applicable only to US Government
 contracts under FAR:
  
                    RESTRICTED RIGHTS LEGEND
  
 Use, reproduction and disclosure by the US Government is
 subject to restrictions as set forth in subparagraphs (a)
 and (c) of the Commercial Computer Software - Restricted
 Rights clause in FAR 52.227-19.
  
 Gaussian, Inc.
 340 Quinnipiac St., Bldg. 40, Wallingford CT 06492
  
  
 ---------------------------------------------------------------
 Warning -- This program may not be used in any manner that
 competes with the business of Gaussian, Inc. or will provide
 assistance to any competitor of Gaussian, Inc.  The licensee
 of this program is prohibited from giving any competitor of
 Gaussian, Inc. access to this program.  By using this program,
 the user acknowledges that Gaussian, Inc. is engaged in the
 business of creating and licensing software in the field of
 computational chemistry and represents and warrants to the
 licensee that it is not a competitor of Gaussian, Inc. and that
 it will not use this program in any manner prohibited above.
 ---------------------------------------------------------------
  

 Cite this work as:
 Gaussian 16, Revision C.01,
 M. J. Frisch, G. W. Trucks, H. B. Schlegel, G. E. Scuseria, 
 M. A. Robb, J. R. Cheeseman, G. Scalmani, V. Barone, 
 G. A. Petersson, H. Nakatsuji, X. Li, M. Caricato, A. V. Marenich, 
 J. Bloino, B. G. Janesko, R. Gomperts, B. Mennucci, H. P. Hratchian, 
 J. V. Ortiz, A. F. Izmaylov, J. L. Sonnenberg, D. Williams-Young, 
 F. Ding, F. Lipparini, F. Egidi, J. Goings, B. Peng, A. Petrone, 
 T. Henderson, D. Ranasinghe, V. G. Zakrzewski, J. Gao, N. Rega, 
 G. Zheng, W. Liang, M. Hada, M. Ehara, K. Toyota, R. Fukuda, 
 J. Hasegawa, M. Ishida, T. Nakajima, Y. Honda, O. Kitao, H. Nakai, 
 T. Vreven, K. Throssell, J. A. Montgomery, Jr., J. E. Peralta, 
 F. Ogliaro, M. J. Bearpark, J. J. Heyd, E. N. Brothers, K. N. Kudin, 
 V. N. Staroverov, T. A. Keith, R. Kobayashi, J. Normand, 
 K. Raghavachari, A. P. Rendell, J. C. Burant, S. S. Iyengar, 
 J. Tomasi, M. Cossi, J. M. Millam, M. Klene, C. Adamo, R. Cammi, 
 J. W. Ochterski, R. L. Martin, K. Morokuma, O. Farkas, 
 J. B. Foresman, and D. J. Fox, Gaussian, Inc., Wallingford CT, 2019.
 
 ******************************************
 Gaussian 16:  ES64L-G16RevC.01  3-Jul-2019
                 3-Jun-2022 
 ******************************************
 %mem=8gb
 %nproc=4
 Will use up to    4 processors via shared memory.
 %chk=conf-291.chk
 ----------------------------------------------------------------------
 # B3LYP/6-31G* empiricaldispersion=gd3 guess=read geom=check nosymm in
 tegral(ultrafinegrid)
 ----------------------------------------------------------------------
 1/29=2,38=1,172=1/1;
 2/12=2,15=1,40=1/2;
 3/5=1,6=6,7=1,11=2,14=-4,25=1,30=1,74=-5,75=-5,116=-2,124=31/1,2,3;
 4/5=1/1;
 5/5=2,38=6/2;
 6/7=2,8=2,9=2,10=2,28=1/1;
 99/5=1,9=1/99;
 ------------------------------------------------------
 Candidate Structure: Conf:291 Charge calc in gas phase
 ------------------------------------------------------
 Structure from the checkpoint file:  "conf-291.chk"
 Charge =  1 Multiplicity = 1
 Redundant internal coordinates found in file.  (old form).
 N,0,-8.7904183472,0.904006409,-8.1688230624
 C,0,-8.0505788383,0.7567086755,-9.4668389316
 C,0,-7.5952226438,-0.6792958565,-9.7730585754
 O,0,-7.8506848566,-1.1738938567,-10.8643263239
 C,0,-6.8389314074,1.6949494142,-9.4573246052
 C,0,-7.2512259163,3.1595250804,-9.3450243578
 N,0,-6.3433408499,4.0460084265,-9.8022364791
 O,0,-8.3309076454,3.4959867538,-8.8476081159
 H,0,-8.1598605672,0.6418345598,-7.3492676162
 H,0,-8.74469247,1.0287237917,-10.2632514597
 H,0,-6.1872058848,1.4522719655,-8.6097034134
 H,0,-6.2488326475,1.5187599518,-10.3606498415
 H,0,-6.5319565486,5.0351652852,-9.7061282726
 H,0,-5.4647567563,3.7478536924,-10.2034019758
 H,0,-9.0452765402,1.9082455086,-8.1107469757
 H,0,-9.6004080334,0.265442019,-8.1268118368
 N,0,-6.8425898008,-1.3023513851,-8.8214435868
 C,0,-5.9840420784,-2.4220239678,-9.1868405585
 C,0,-6.2460244033,-3.6771245163,-8.3400423259
 O,0,-5.3062512502,-4.298883566,-7.8194261585
 C,0,-4.4953425472,-2.0151104466,-9.1145956276
 C,0,-4.1924039803,-0.7199445942,-9.8414485784
 C,0,-4.4691231551,-0.5666186876,-11.2087169399
 C,0,-3.619255459,0.3557713443,-9.1518366758
 C,0,-4.1748709686,0.6280702748,-11.8671046473
 C,0,-3.3141486578,1.5520622557,-9.8076053594
 C,0,-3.5913031857,1.6920132336,-11.1693998914
 H,0,-6.6652892817,-0.8314891027,-7.9282063799
 H,0,-6.2542486405,-2.6763684525,-10.2178333507
 H,0,-4.2102142887,-1.9140054195,-8.0616763981
 H,0,-3.8960419577,-2.8410587051,-9.5122939916
 H,0,-4.921675075,-1.3823628215,-11.7659554344
 H,0,-3.4014146782,0.2567242649,-8.0910192114
 H,0,-4.3898043431,0.7245019093,-12.9275084061
 H,0,-2.8489574953,2.3644857267,-9.2556642471
 H,0,-3.3340790826,2.6101590463,-11.6917781772
 N,0,-7.5156745432,-4.130724382,-8.1829164001
 C,0,-8.7960739685,-3.5033540897,-8.4939642461
 C,0,-9.1889785425,-2.3591221136,-7.5312650879
 O,0,-10.0383393053,-1.5365506328,-7.8924711396
 C,0,-9.9102712144,-4.5734665382,-8.4800662527
 C,0,-10.0614165912,-5.2604455079,-7.1202174499
 N,0,-11.3200740749,-5.5376851524,-6.7292284869
 O,0,-9.0792459739,-5.5527146343,-6.4214060017
 H,0,-7.6002914391,-4.9534868204,-7.5904126368
 H,0,-8.7681028858,-3.0565130131,-9.490665409
 H,0,-9.6717007616,-5.3457475141,-9.221479428
 H,0,-10.8426301371,-4.0923974208,-8.7883616214
 H,0,-11.4605055004,-6.0636894358,-5.8760228655
 H,0,-12.1273513148,-5.3212234633,-7.2960427055
 N,0,-8.5901875155,-2.3710101494,-6.3258571877
 C,0,-8.6875693321,-1.3258792303,-5.3057975809
 C,0,-7.2965653772,-0.5901699028,-5.2816677793
 O,0,-6.5367626212,-0.7098005261,-4.2999613408
 C,0,-9.2567579537,-1.8451346596,-3.9521258972
 C,0,-9.1714657848,-3.3602209046,-3.6467201405
 C,0,-7.8661450059,-3.8313697657,-2.9816870721
 N,0,-6.6678959616,-3.3006797295,-3.6265325575
 C,0,-6.015640345,-3.8167740757,-4.6674756146
 N,0,-6.2855143069,-5.0402949618,-5.1650095966
 N,0,-5.0180587685,-3.098799813,-5.2166441528
 O,0,-7.0226493223,0.0558701214,-6.3471089144
 H,0,-7.9315489559,-3.119792278,-6.1668010849
 H,0,-9.4030402693,-0.6043640891,-5.7067116024
 H,0,-8.7878931808,-1.266276753,-3.1482766737
 H,0,-10.31914598,-1.582275261,-3.9409805219
 H,0,-9.9838575379,-3.6160696774,-2.9562292489
 H,0,-9.3576131239,-3.940381608,-4.5562249874
 H,0,-7.8275780266,-3.4786668093,-1.9465071551
 H,0,-7.8121340726,-4.9239962521,-2.9389672974
 H,0,-6.5559047168,-2.2768105568,-3.5422745653
 H,0,-5.8361608146,-5.2814658984,-6.0462953187
 H,0,-7.1849159252,-5.470842186,-4.9941313828
 H,0,-4.6645863198,-3.3799890798,-6.1263091093
 H,0,-4.9241125369,-2.1268806266,-4.936918138
 Recover connectivity data from disk.
                           ----------------------------
                           !    Current Parameters    !
                           ! (Angstroms and Degrees)  !
 --------------------------                            --------------------------
 ! Name  Definition              Value                                          !
 --------------------------------------------------------------------------------
 ! R1    R(1,2)                  1.5013                                         !
 ! R2    R(1,9)                  1.0668                                         !
 ! R3    R(1,15)                 1.0377                                         !
 ! R4    R(1,16)                 1.0323                                         !
 ! R5    R(2,3)                  1.5373                                         !
 ! R6    R(2,5)                  1.5325                                         !
 ! R7    R(2,10)                 1.0909                                         !
 ! R8    R(3,4)                  1.2251                                         !
 ! R9    R(3,17)                 1.3639                                         !
 ! R10   R(5,6)                  1.5256                                         !
 ! R11   R(5,11)                 1.0964                                         !
 ! R12   R(5,12)                 1.0933                                         !
 ! R13   R(6,7)                  1.3488                                         !
 ! R14   R(6,8)                  1.2355                                         !
 ! R15   R(7,13)                 1.0116                                         !
 ! R16   R(7,14)                 1.0108                                         !
 ! R17   R(17,18)                1.4575                                         !
 ! R18   R(17,28)                1.0252                                         !
 ! R19   R(18,19)                1.5365                                         !
 ! R20   R(18,21)                1.545                                          !
 ! R21   R(18,29)                1.0957                                         !
 ! R22   R(19,20)                1.2413                                         !
 ! R23   R(19,37)                1.3574                                         !
 ! R24   R(21,22)                1.5158                                         !
 ! R25   R(21,30)                1.0955                                         !
 ! R26   R(21,31)                1.0952                                         !
 ! R27   R(22,23)                1.4034                                         !
 ! R28   R(22,24)                1.4004                                         !
 ! R29   R(23,25)                1.3955                                         !
 ! R30   R(23,32)                1.0866                                         !
 ! R31   R(24,26)                1.3979                                         !
 ! R32   R(24,33)                1.0875                                         !
 ! R33   R(25,27)                1.3998                                         !
 ! R34   R(25,34)                1.0863                                         !
 ! R35   R(26,27)                1.3967                                         !
 ! R36   R(26,35)                1.0868                                         !
 ! R37   R(27,36)                1.0872                                         !
 ! R38   R(37,38)                1.4594                                         !
 ! R39   R(37,45)                1.0174                                         !
 ! R40   R(38,39)                1.5461                                         !
 ! R41   R(38,41)                1.5449                                         !
 ! R42   R(38,46)                1.0926                                         !
 ! R43   R(39,40)                1.2363                                         !
 ! R44   R(39,51)                1.346                                          !
 ! R45   R(41,42)                1.531                                          !
 ! R46   R(41,47)                1.0968                                         !
 ! R47   R(41,48)                1.0935                                         !
 ! R48   R(42,43)                1.3468                                         !
 ! R49   R(42,44)                1.2403                                         !
 ! R50   R(43,49)                1.0121                                         !
 ! R51   R(43,50)                1.0099                                         !
 ! R52   R(51,52)                1.4637                                         !
 ! R53   R(51,63)                1.0098                                         !
 ! R54   R(52,53)                1.5738                                         !
 ! R55   R(52,55)                1.5576                                         !
 ! R56   R(52,64)                1.0923                                         !
 ! R57   R(53,54)                1.2471                                         !
 ! R58   R(53,62)                1.2758                                         !
 ! R59   R(55,56)                1.5479                                         !
 ! R60   R(55,65)                1.0959                                         !
 ! R61   R(55,66)                1.0945                                         !
 ! R62   R(56,57)                1.5389                                         !
 ! R63   R(56,67)                1.0965                                         !
 ! R64   R(56,68)                1.0947                                         !
 ! R65   R(57,58)                1.4606                                         !
 ! R66   R(57,69)                1.0943                                         !
 ! R67   R(57,70)                1.0948                                         !
 ! R68   R(58,59)                1.3324                                         !
 ! R69   R(58,71)                1.0334                                         !
 ! R70   R(59,60)                1.3481                                         !
 ! R71   R(59,61)                1.3462                                         !
 ! R72   R(60,72)                1.0182                                         !
 ! R73   R(60,73)                1.0117                                         !
 ! R74   R(61,74)                1.0156                                         !
 ! R75   R(61,75)                1.0157                                         !
 ! A1    A(2,1,9)              110.4157                                         !
 ! A2    A(2,1,15)             105.3294                                         !
 ! A3    A(2,1,16)             111.1722                                         !
 ! A4    A(9,1,15)             109.8775                                         !
 ! A5    A(9,1,16)             106.2906                                         !
 ! A6    A(15,1,16)            113.807                                          !
 ! A7    A(1,2,3)              114.1951                                         !
 ! A8    A(1,2,5)              108.9167                                         !
 ! A9    A(1,2,10)             107.0483                                         !
 ! A10   A(3,2,5)              109.8126                                         !
 ! A11   A(3,2,10)             106.0199                                         !
 ! A12   A(5,2,10)             110.7899                                         !
 ! A13   A(2,3,4)              119.5255                                         !
 ! A14   A(2,3,17)             116.8205                                         !
 ! A15   A(4,3,17)             123.5152                                         !
 ! A16   A(2,5,6)              111.9949                                         !
 ! A17   A(2,5,11)             109.8321                                         !
 ! A18   A(2,5,12)             108.8419                                         !
 ! A19   A(6,5,11)             108.434                                          !
 ! A20   A(6,5,12)             111.1856                                         !
 ! A21   A(11,5,12)            106.3952                                         !
 ! A22   A(5,6,7)              115.0931                                         !
 ! A23   A(5,6,8)              121.8195                                         !
 ! A24   A(7,6,8)              123.0754                                         !
 ! A25   A(6,7,13)             119.0116                                         !
 ! A26   A(6,7,14)             121.718                                          !
 ! A27   A(13,7,14)            119.2231                                         !
 ! A28   A(3,17,18)            120.0711                                         !
 ! A29   A(3,17,28)            119.573                                          !
 ! A30   A(18,17,28)           117.9951                                         !
 ! A31   A(17,18,19)           112.8865                                         !
 ! A32   A(17,18,21)           110.704                                          !
 ! A33   A(17,18,29)           105.6017                                         !
 ! A34   A(19,18,21)           110.7107                                         !
 ! A35   A(19,18,29)           106.6719                                         !
 ! A36   A(21,18,29)           110.0441                                         !
 ! A37   A(18,19,20)           120.7442                                         !
 ! A38   A(18,19,37)           119.7517                                         !
 ! A39   A(20,19,37)           119.4872                                         !
 ! A40   A(18,21,22)           113.2782                                         !
 ! A41   A(18,21,30)           108.6649                                         !
 ! A42   A(18,21,31)           108.159                                          !
 ! A43   A(22,21,30)           109.2692                                         !
 ! A44   A(22,21,31)           111.1551                                         !
 ! A45   A(30,21,31)           106.0325                                         !
 ! A46   A(21,22,23)           121.4082                                         !
 ! A47   A(21,22,24)           120.1324                                         !
 ! A48   A(23,22,24)           118.4589                                         !
 ! A49   A(22,23,25)           120.7715                                         !
 ! A50   A(22,23,32)           119.9813                                         !
 ! A51   A(25,23,32)           119.2466                                         !
 ! A52   A(22,24,26)           121.0413                                         !
 ! A53   A(22,24,33)           119.4969                                         !
 ! A54   A(26,24,33)           119.4603                                         !
 ! A55   A(23,25,27)           120.2298                                         !
 ! A56   A(23,25,34)           119.6601                                         !
 ! A57   A(27,25,34)           120.1059                                         !
 ! A58   A(24,26,27)           119.9865                                         !
 ! A59   A(24,26,35)           119.6636                                         !
 ! A60   A(27,26,35)           120.3445                                         !
 ! A61   A(25,27,26)           119.5079                                         !
 ! A62   A(25,27,36)           120.0687                                         !
 ! A63   A(26,27,36)           120.4059                                         !
 ! A64   A(19,37,38)           130.7177                                         !
 ! A65   A(19,37,45)           114.5472                                         !
 ! A66   A(38,37,45)           113.5028                                         !
 ! A67   A(37,38,39)           114.1043                                         !
 ! A68   A(37,38,41)           109.4551                                         !
 ! A69   A(37,38,46)           110.351                                          !
 ! A70   A(39,38,41)           108.8897                                         !
 ! A71   A(39,38,46)           105.7736                                         !
 ! A72   A(41,38,46)           108.0555                                         !
 ! A73   A(38,39,40)           119.0168                                         !
 ! A74   A(38,39,51)           115.9787                                         !
 ! A75   A(40,39,51)           124.97                                           !
 ! A76   A(38,41,42)           112.9543                                         !
 ! A77   A(38,41,47)           108.9511                                         !
 ! A78   A(38,41,48)           107.918                                          !
 ! A79   A(42,41,47)           107.814                                          !
 ! A80   A(42,41,48)           111.324                                          !
 ! A81   A(47,41,48)           107.7364                                         !
 ! A82   A(41,42,43)           116.2619                                         !
 ! A83   A(41,42,44)           121.8692                                         !
 ! A84   A(43,42,44)           121.8675                                         !
 ! A85   A(42,43,49)           118.7752                                         !
 ! A86   A(42,43,50)           122.6832                                         !
 ! A87   A(49,43,50)           118.2707                                         !
 ! A88   A(39,51,52)           126.0312                                         !
 ! A89   A(39,51,63)           115.9608                                         !
 ! A90   A(52,51,63)           117.5863                                         !
 ! A91   A(51,52,53)           106.5999                                         !
 ! A92   A(51,52,55)           113.0763                                         !
 ! A93   A(51,52,64)           105.0367                                         !
 ! A94   A(53,52,55)           117.7437                                         !
 ! A95   A(53,52,64)           106.0078                                         !
 ! A96   A(55,52,64)           107.4469                                         !
 ! A97   A(52,53,54)           120.3786                                         !
 ! A98   A(52,53,62)           114.4375                                         !
 ! A99   A(54,53,62)           125.1111                                         !
 ! A100  A(52,55,56)           118.5315                                         !
 ! A101  A(52,55,65)           107.7604                                         !
 ! A102  A(52,55,66)           106.4693                                         !
 ! A103  A(56,55,65)           110.4074                                         !
 ! A104  A(56,55,66)           106.6516                                         !
 ! A105  A(65,55,66)           106.3171                                         !
 ! A106  A(55,56,57)           115.5741                                         !
 ! A107  A(55,56,67)           108.1688                                         !
 ! A108  A(55,56,68)           110.2081                                         !
 ! A109  A(57,56,67)           106.5521                                         !
 ! A110  A(57,56,68)           109.9388                                         !
 ! A111  A(67,56,68)           105.8755                                         !
 ! A112  A(56,57,58)           113.1942                                         !
 ! A113  A(56,57,69)           109.8784                                         !
 ! A114  A(56,57,70)           111.3627                                         !
 ! A115  A(58,57,69)           105.7612                                         !
 ! A116  A(58,57,70)           109.8391                                         !
 ! A117  A(69,57,70)           106.4406                                         !
 ! A118  A(57,58,59)           127.2857                                         !
 ! A119  A(57,58,71)           114.387                                          !
 ! A120  A(59,58,71)           113.2288                                         !
 ! A121  A(58,59,60)           122.8111                                         !
 ! A122  A(58,59,61)           118.3514                                         !
 ! A123  A(60,59,61)           118.8057                                         !
 ! A124  A(59,60,72)           116.491                                          !
 ! A125  A(59,60,73)           120.1247                                         !
 ! A126  A(72,60,73)           115.9592                                         !
 ! A127  A(59,61,74)           118.4                                            !
 ! A128  A(59,61,75)           117.8092                                         !
 ! A129  A(74,61,75)           118.6458                                         !
 ! D1    D(9,1,2,3)             62.5107                                         !
 ! D2    D(9,1,2,5)            -60.6359                                         !
 ! D3    D(9,1,2,10)           179.5265                                         !
 ! D4    D(15,1,2,3)          -178.9205                                         !
 ! D5    D(15,1,2,5)            57.9329                                         !
 ! D6    D(15,1,2,10)          -61.9047                                         !
 ! D7    D(16,1,2,3)           -55.2085                                         !
 ! D8    D(16,1,2,5)          -178.3551                                         !
 ! D9    D(16,1,2,10)           61.8073                                         !
 ! D10   D(1,2,3,4)            129.5179                                         !
 ! D11   D(1,2,3,17)           -54.6128                                         !
 ! D12   D(5,2,3,4)           -107.8222                                         !
 ! D13   D(5,2,3,17)            68.0471                                         !
 ! D14   D(10,2,3,4)            11.9108                                         !
 ! D15   D(10,2,3,17)         -172.2199                                         !
 ! D16   D(1,2,5,6)            -61.9534                                         !
 ! D17   D(1,2,5,11)            58.5914                                         !
 ! D18   D(1,2,5,12)           174.7028                                         !
 ! D19   D(3,2,5,6)            172.3164                                         !
 ! D20   D(3,2,5,11)           -67.1388                                         !
 ! D21   D(3,2,5,12)            48.9726                                         !
 ! D22   D(10,2,5,6)            55.5378                                         !
 ! D23   D(10,2,5,11)          176.0826                                         !
 ! D24   D(10,2,5,12)          -67.8061                                         !
 ! D25   D(2,3,17,18)         -157.9756                                         !
 ! D26   D(2,3,17,28)            4.2384                                         !
 ! D27   D(4,3,17,18)           17.713                                          !
 ! D28   D(4,3,17,28)          179.9271                                         !
 ! D29   D(2,5,6,7)           -157.1252                                         !
 ! D30   D(2,5,6,8)             24.1008                                         !
 ! D31   D(11,5,6,7)            81.5211                                         !
 ! D32   D(11,5,6,8)           -97.2529                                         !
 ! D33   D(12,5,6,7)           -35.1124                                         !
 ! D34   D(12,5,6,8)           146.1136                                         !
 ! D35   D(5,6,7,13)          -176.4021                                         !
 ! D36   D(5,6,7,14)             1.075                                          !
 ! D37   D(8,6,7,13)             2.3547                                         !
 ! D38   D(8,6,7,14)           179.8317                                         !
 ! D39   D(3,17,18,19)        -126.0065                                         !
 ! D40   D(3,17,18,21)         109.249                                          !
 ! D41   D(3,17,18,29)          -9.8264                                         !
 ! D42   D(28,17,18,19)         71.5036                                         !
 ! D43   D(28,17,18,21)        -53.2409                                         !
 ! D44   D(28,17,18,29)       -172.3163                                         !
 ! D45   D(17,18,19,20)       -131.708                                          !
 ! D46   D(17,18,19,37)         49.798                                          !
 ! D47   D(21,18,19,20)         -6.9671                                         !
 ! D48   D(21,18,19,37)        174.5389                                         !
 ! D49   D(29,18,19,20)        112.7507                                         !
 ! D50   D(29,18,19,37)        -65.7433                                         !
 ! D51   D(17,18,21,22)        -49.4884                                         !
 ! D52   D(17,18,21,30)         72.1477                                         !
 ! D53   D(17,18,21,31)       -173.1699                                         !
 ! D54   D(19,18,21,22)       -175.4594                                         !
 ! D55   D(19,18,21,30)        -53.8233                                         !
 ! D56   D(19,18,21,31)         60.8591                                         !
 ! D57   D(29,18,21,22)         66.8675                                         !
 ! D58   D(29,18,21,30)       -171.4964                                         !
 ! D59   D(29,18,21,31)        -56.814                                          !
 ! D60   D(18,19,37,38)        -12.3765                                         !
 ! D61   D(18,19,37,45)       -178.671                                          !
 ! D62   D(20,19,37,38)        169.1104                                         !
 ! D63   D(20,19,37,45)          2.816                                          !
 ! D64   D(18,21,22,23)        -58.2351                                         !
 ! D65   D(18,21,22,24)        122.0247                                         !
 ! D66   D(30,21,22,23)       -179.5318                                         !
 ! D67   D(30,21,22,24)          0.728                                          !
 ! D68   D(31,21,22,23)         63.7888                                         !
 ! D69   D(31,21,22,24)       -115.9514                                         !
 ! D70   D(21,22,23,25)       -179.4816                                         !
 ! D71   D(21,22,23,32)          0.785                                          !
 ! D72   D(24,22,23,25)          0.2628                                         !
 ! D73   D(24,22,23,32)       -179.4705                                         !
 ! D74   D(21,22,24,26)        179.0652                                         !
 ! D75   D(21,22,24,33)         -0.4921                                         !
 ! D76   D(23,22,24,26)         -0.6826                                         !
 ! D77   D(23,22,24,33)        179.7601                                         !
 ! D78   D(22,23,25,27)          0.2901                                         !
 ! D79   D(22,23,25,34)        179.5436                                         !
 ! D80   D(32,23,25,27)       -179.9746                                         !
 ! D81   D(32,23,25,34)         -0.7211                                         !
 ! D82   D(22,24,26,27)          0.5489                                         !
 ! D83   D(22,24,26,35)       -178.6127                                         !
 ! D84   D(33,24,26,27)       -179.8937                                         !
 ! D85   D(33,24,26,35)          0.9447                                         !
 ! D86   D(23,25,27,26)         -0.4306                                         !
 ! D87   D(23,25,27,36)        178.0519                                         !
 ! D88   D(34,25,27,26)       -179.6808                                         !
 ! D89   D(34,25,27,36)         -1.1983                                         !
 ! D90   D(24,26,27,25)          0.0162                                         !
 ! D91   D(24,26,27,36)       -178.4612                                         !
 ! D92   D(35,26,27,25)        179.172                                          !
 ! D93   D(35,26,27,36)          0.6947                                         !
 ! D94   D(19,37,38,39)        -72.8553                                         !
 ! D95   D(19,37,38,41)        164.8555                                         !
 ! D96   D(19,37,38,46)         46.0646                                         !
 ! D97   D(45,37,38,39)         93.5522                                         !
 ! D98   D(45,37,38,41)        -28.737                                          !
 ! D99   D(45,37,38,46)       -147.5279                                         !
 ! D100  D(37,38,39,40)        160.6079                                         !
 ! D101  D(37,38,39,51)        -21.4226                                         !
 ! D102  D(41,38,39,40)        -76.7936                                         !
 ! D103  D(41,38,39,51)        101.1758                                         !
 ! D104  D(46,38,39,40)         39.1226                                         !
 ! D105  D(46,38,39,51)       -142.908                                          !
 ! D106  D(37,38,41,42)         60.6557                                         !
 ! D107  D(37,38,41,47)        -59.1266                                         !
 ! D108  D(37,38,41,48)       -175.8408                                         !
 ! D109  D(39,38,41,42)        -64.7002                                         !
 ! D110  D(39,38,41,47)        175.5175                                         !
 ! D111  D(39,38,41,48)         58.8033                                         !
 ! D112  D(46,38,41,42)       -179.1401                                         !
 ! D113  D(46,38,41,47)         61.0776                                         !
 ! D114  D(46,38,41,48)        -55.6366                                         !
 ! D115  D(38,39,51,52)        173.0514                                         !
 ! D116  D(38,39,51,63)          0.7242                                         !
 ! D117  D(40,39,51,52)         -9.1156                                         !
 ! D118  D(40,39,51,63)        178.5572                                         !
 ! D119  D(38,41,42,43)        141.5404                                         !
 ! D120  D(38,41,42,44)        -38.8856                                         !
 ! D121  D(47,41,42,43)        -98.0256                                         !
 ! D122  D(47,41,42,44)         81.5484                                         !
 ! D123  D(48,41,42,43)         19.9395                                         !
 ! D124  D(48,41,42,44)       -160.4865                                         !
 ! D125  D(41,42,43,49)        174.6834                                         !
 ! D126  D(41,42,43,50)          0.7708                                         !
 ! D127  D(44,42,43,49)         -4.8906                                         !
 ! D128  D(44,42,43,50)       -178.8032                                         !
 ! D129  D(39,51,52,53)       -107.633                                          !
 ! D130  D(39,51,52,55)        121.4458                                         !
 ! D131  D(39,51,52,64)          4.5798                                         !
 ! D132  D(63,51,52,53)         64.5828                                         !
 ! D133  D(63,51,52,55)        -66.3384                                         !
 ! D134  D(63,51,52,64)        176.7956                                         !
 ! D135  D(51,52,53,54)       -110.9117                                         !
 ! D136  D(51,52,53,62)         66.1404                                         !
 ! D137  D(55,52,53,54)         17.3264                                         !
 ! D138  D(55,52,53,62)       -165.6215                                         !
 ! D139  D(64,52,53,54)        137.5472                                         !
 ! D140  D(64,52,53,62)        -45.4006                                         !
 ! D141  D(51,52,55,56)         21.4475                                         !
 ! D142  D(51,52,55,65)        147.668                                          !
 ! D143  D(51,52,55,66)        -98.6082                                         !
 ! D144  D(53,52,55,56)       -103.6497                                         !
 ! D145  D(53,52,55,65)         22.5709                                         !
 ! D146  D(53,52,55,66)        136.2946                                         !
 ! D147  D(64,52,55,56)        136.8834                                         !
 ! D148  D(64,52,55,65)        -96.8961                                         !
 ! D149  D(64,52,55,66)         16.8276                                         !
 ! D150  D(52,55,56,57)         87.2148                                         !
 ! D151  D(52,55,56,67)       -153.4803                                         !
 ! D152  D(52,55,56,68)        -38.1659                                         !
 ! D153  D(65,55,56,57)        -37.7255                                         !
 ! D154  D(65,55,56,67)         81.5793                                         !
 ! D155  D(65,55,56,68)       -163.1062                                         !
 ! D156  D(66,55,56,57)       -152.8233                                         !
 ! D157  D(66,55,56,67)        -33.5184                                         !
 ! D158  D(66,55,56,68)         81.796                                          !
 ! D159  D(55,56,57,58)        -46.8013                                         !
 ! D160  D(55,56,57,69)         71.1786                                         !
 ! D161  D(55,56,57,70)       -171.1383                                         !
 ! D162  D(67,56,57,58)       -166.9906                                         !
 ! D163  D(67,56,57,69)        -49.0107                                         !
 ! D164  D(67,56,57,70)         68.6724                                         !
 ! D165  D(68,56,57,58)         78.7176                                         !
 ! D166  D(68,56,57,69)       -163.3025                                         !
 ! D167  D(68,56,57,70)        -45.6194                                         !
 ! D168  D(56,57,58,59)        -86.6773                                         !
 ! D169  D(56,57,58,71)         66.1278                                         !
 ! D170  D(69,57,58,59)        152.9707                                         !
 ! D171  D(69,57,58,71)        -54.2242                                         !
 ! D172  D(70,57,58,59)         38.4853                                         !
 ! D173  D(70,57,58,71)       -168.7096                                         !
 ! D174  D(57,58,59,60)         -9.6042                                         !
 ! D175  D(57,58,59,61)        172.4766                                         !
 ! D176  D(71,58,59,60)       -162.6704                                         !
 ! D177  D(71,58,59,61)         19.4103                                         !
 ! D178  D(58,59,60,72)        170.6667                                         !
 ! D179  D(58,59,60,73)         21.946                                          !
 ! D180  D(61,59,60,72)        -11.4231                                         !
 ! D181  D(61,59,60,73)       -160.1438                                         !
 ! D182  D(58,59,61,74)       -166.1034                                         !
 ! D183  D(58,59,61,75)        -11.7694                                         !
 ! D184  D(60,59,61,74)         15.8924                                         !
 ! D185  D(60,59,61,75)        170.2263                                         !
 --------------------------------------------------------------------------------
 Symmetry turned off by external request.
 Stoichiometry    C23H36N9O7(1+)
 Framework group  C1[X(C23H36N9O7)]
 Deg. of freedom   219
 Full point group                 C1      NOp   1
                          Input orientation:                          
 ---------------------------------------------------------------------
 Center     Atomic      Atomic             Coordinates (Angstroms)
 Number     Number       Type             X           Y           Z
 ---------------------------------------------------------------------
      1          7           0       -8.790418    0.904006   -8.168823
      2          6           0       -8.050579    0.756709   -9.466839
      3          6           0       -7.595223   -0.679296   -9.773059
      4          8           0       -7.850685   -1.173894  -10.864326
      5          6           0       -6.838931    1.694949   -9.457325
      6          6           0       -7.251226    3.159525   -9.345024
      7          7           0       -6.343341    4.046008   -9.802236
      8          8           0       -8.330908    3.495987   -8.847608
      9          1           0       -8.159861    0.641835   -7.349268
     10          1           0       -8.744692    1.028724  -10.263251
     11          1           0       -6.187206    1.452272   -8.609703
     12          1           0       -6.248833    1.518760  -10.360650
     13          1           0       -6.531957    5.035165   -9.706128
     14          1           0       -5.464757    3.747854  -10.203402
     15          1           0       -9.045277    1.908246   -8.110747
     16          1           0       -9.600408    0.265442   -8.126812
     17          7           0       -6.842590   -1.302351   -8.821444
     18          6           0       -5.984042   -2.422024   -9.186841
     19          6           0       -6.246024   -3.677125   -8.340042
     20          8           0       -5.306251   -4.298884   -7.819426
     21          6           0       -4.495343   -2.015110   -9.114596
     22          6           0       -4.192404   -0.719945   -9.841449
     23          6           0       -4.469123   -0.566619  -11.208717
     24          6           0       -3.619255    0.355771   -9.151837
     25          6           0       -4.174871    0.628070  -11.867105
     26          6           0       -3.314149    1.552062   -9.807605
     27          6           0       -3.591303    1.692013  -11.169400
     28          1           0       -6.665289   -0.831489   -7.928206
     29          1           0       -6.254249   -2.676368  -10.217833
     30          1           0       -4.210214   -1.914005   -8.061676
     31          1           0       -3.896042   -2.841059   -9.512294
     32          1           0       -4.921675   -1.382363  -11.765955
     33          1           0       -3.401415    0.256724   -8.091019
     34          1           0       -4.389804    0.724502  -12.927508
     35          1           0       -2.848957    2.364486   -9.255664
     36          1           0       -3.334079    2.610159  -11.691778
     37          7           0       -7.515675   -4.130724   -8.182916
     38          6           0       -8.796074   -3.503354   -8.493964
     39          6           0       -9.188979   -2.359122   -7.531265
     40          8           0      -10.038339   -1.536551   -7.892471
     41          6           0       -9.910271   -4.573467   -8.480066
     42          6           0      -10.061417   -5.260446   -7.120217
     43          7           0      -11.320074   -5.537685   -6.729228
     44          8           0       -9.079246   -5.552715   -6.421406
     45          1           0       -7.600291   -4.953487   -7.590413
     46          1           0       -8.768103   -3.056513   -9.490665
     47          1           0       -9.671701   -5.345748   -9.221479
     48          1           0      -10.842630   -4.092397   -8.788362
     49          1           0      -11.460506   -6.063689   -5.876023
     50          1           0      -12.127351   -5.321223   -7.296043
     51          7           0       -8.590188   -2.371010   -6.325857
     52          6           0       -8.687569   -1.325879   -5.305798
     53          6           0       -7.296565   -0.590170   -5.281668
     54          8           0       -6.536763   -0.709801   -4.299961
     55          6           0       -9.256758   -1.845135   -3.952126
     56          6           0       -9.171466   -3.360221   -3.646720
     57          6           0       -7.866145   -3.831370   -2.981687
     58          7           0       -6.667896   -3.300680   -3.626533
     59          6           0       -6.015640   -3.816774   -4.667476
     60          7           0       -6.285514   -5.040295   -5.165010
     61          7           0       -5.018059   -3.098800   -5.216644
     62          8           0       -7.022649    0.055870   -6.347109
     63          1           0       -7.931549   -3.119792   -6.166801
     64          1           0       -9.403040   -0.604364   -5.706712
     65          1           0       -8.787893   -1.266277   -3.148277
     66          1           0      -10.319146   -1.582275   -3.940981
     67          1           0       -9.983858   -3.616070   -2.956229
     68          1           0       -9.357613   -3.940382   -4.556225
     69          1           0       -7.827578   -3.478667   -1.946507
     70          1           0       -7.812134   -4.923996   -2.938967
     71          1           0       -6.555905   -2.276811   -3.542275
     72          1           0       -5.836161   -5.281466   -6.046295
     73          1           0       -7.184916   -5.470842   -4.994131
     74          1           0       -4.664586   -3.379989   -6.126309
     75          1           0       -4.924113   -2.126881   -4.936918
 ---------------------------------------------------------------------
 Rotational constants (GHZ):           0.1525567           0.0712822           0.0696159
 Standard basis: 6-31G(d) (6D, 7F)
   657 basis functions,  1236 primitive gaussians,   657 cartesian basis functions
   146 alpha electrons      146 beta electrons
       nuclear repulsion energy      5210.8729176680 Hartrees.
 NAtoms=   75 NActive=   75 NUniq=   75 SFac= 1.00D+00 NAtFMM=   60 NAOKFM=T Big=T
 Integral buffers will be    131072 words long.
 Raffenetti 2 integral format.
 Two-electron integral symmetry is turned off.
 Nuclear repulsion after empirical dispersion term =     5210.7430489604 Hartrees.
 One-electron integrals computed using PRISM.
 NBasis=   657 RedAO= T EigKep=  4.64D-04  NBF=   657
 NBsUse=   657 1.00D-06 EigRej= -1.00D+00 NBFU=   657
 Initial guess from the checkpoint file:  "conf-291.chk"
 B after Tr=     0.000000    0.000000    0.000000
         Rot=    1.000000    0.000000    0.000000    0.000000 Ang=   0.00 deg.
 Requested convergence on RMS density matrix=1.00D-08 within 128 cycles.
 Requested convergence on MAX density matrix=1.00D-06.
 Requested convergence on             energy=1.00D-06.
 No special actions if energy rises.
 SCF Done:  E(RB3LYP) =  -1917.54513455     A.U. after    3 cycles
            NFock=  3  Conv=0.10D-08     -V/T= 2.0093

 **********************************************************************

            Population analysis using the SCF Density.

 **********************************************************************

 Alpha  occ. eigenvalues --  -19.24938 -19.24432 -19.23851 -19.22921 -19.22500
 Alpha  occ. eigenvalues --  -19.21357 -19.21162 -14.51577 -14.48705 -14.48372
 Alpha  occ. eigenvalues --  -14.48287 -14.47958 -14.47647 -14.47615 -14.46635
 Alpha  occ. eigenvalues --  -14.46123 -10.44643 -10.42544 -10.41514 -10.41022
 Alpha  occ. eigenvalues --  -10.40216 -10.40069 -10.39221 -10.36116 -10.36110
 Alpha  occ. eigenvalues --  -10.34686 -10.33762 -10.33733 -10.32733 -10.30852
 Alpha  occ. eigenvalues --  -10.29432 -10.29420 -10.29312 -10.29229 -10.28375
 Alpha  occ. eigenvalues --  -10.28306 -10.28241 -10.28186 -10.28117  -1.16680
 Alpha  occ. eigenvalues --   -1.16078  -1.15609  -1.14916  -1.14508  -1.14093
 Alpha  occ. eigenvalues --   -1.13255  -1.07880  -1.05975  -1.05428  -1.03930
 Alpha  occ. eigenvalues --   -1.03483  -1.03122  -1.02729  -1.01242  -1.01082
 Alpha  occ. eigenvalues --   -0.94913  -0.91055  -0.90160  -0.89696  -0.88208
 Alpha  occ. eigenvalues --   -0.85366  -0.83921  -0.83584  -0.80555  -0.79056
 Alpha  occ. eigenvalues --   -0.78536  -0.76625  -0.75062  -0.72819  -0.71357
 Alpha  occ. eigenvalues --   -0.71026  -0.70472  -0.70327  -0.69844  -0.69552
 Alpha  occ. eigenvalues --   -0.69069  -0.68796  -0.67213  -0.66815  -0.66346
 Alpha  occ. eigenvalues --   -0.66274  -0.65328  -0.63871  -0.63562  -0.62656
 Alpha  occ. eigenvalues --   -0.62014  -0.61302  -0.61251  -0.60573  -0.59872
 Alpha  occ. eigenvalues --   -0.58993  -0.58661  -0.58397  -0.58148  -0.57659
 Alpha  occ. eigenvalues --   -0.56841  -0.56516  -0.56402  -0.55316  -0.55020
 Alpha  occ. eigenvalues --   -0.54946  -0.54516  -0.54150  -0.53944  -0.53097
 Alpha  occ. eigenvalues --   -0.52900  -0.52682  -0.52336  -0.52159  -0.51652
 Alpha  occ. eigenvalues --   -0.51388  -0.51068  -0.50769  -0.50574  -0.49834
 Alpha  occ. eigenvalues --   -0.49645  -0.49444  -0.49004  -0.48509  -0.47883
 Alpha  occ. eigenvalues --   -0.47754  -0.46785  -0.46591  -0.46107  -0.44785
 Alpha  occ. eigenvalues --   -0.44549  -0.44387  -0.43311  -0.43013  -0.41004
 Alpha  occ. eigenvalues --   -0.40054  -0.39723  -0.39235  -0.39019  -0.38760
 Alpha  occ. eigenvalues --   -0.37504  -0.37365  -0.37293  -0.37014  -0.36318
 Alpha  occ. eigenvalues --   -0.36270  -0.35754  -0.35233  -0.34331  -0.34282
 Alpha  occ. eigenvalues --   -0.33872
 Alpha virt. eigenvalues --   -0.11688  -0.10850  -0.10766  -0.09962  -0.09805
 Alpha virt. eigenvalues --   -0.09557  -0.09370  -0.07480  -0.07062  -0.04394
 Alpha virt. eigenvalues --   -0.03334  -0.01969  -0.01727  -0.00887  -0.00330
 Alpha virt. eigenvalues --    0.00498   0.01136   0.01315   0.01667   0.01971
 Alpha virt. eigenvalues --    0.02087   0.02930   0.03091   0.03408   0.03587
 Alpha virt. eigenvalues --    0.04298   0.04580   0.04891   0.04986   0.05295
 Alpha virt. eigenvalues --    0.05560   0.05968   0.06158   0.06599   0.06706
 Alpha virt. eigenvalues --    0.07054   0.07356   0.07769   0.07893   0.08010
 Alpha virt. eigenvalues --    0.08444   0.08626   0.09235   0.09417   0.09979
 Alpha virt. eigenvalues --    0.10191   0.10477   0.10935   0.11679   0.12090
 Alpha virt. eigenvalues --    0.12663   0.12828   0.13171   0.13672   0.14135
 Alpha virt. eigenvalues --    0.14442   0.14667   0.15245   0.15466   0.16307
 Alpha virt. eigenvalues --    0.16698   0.17490   0.17738   0.18271   0.20205
 Alpha virt. eigenvalues --    0.21453   0.21762   0.22975   0.23375   0.23494
 Alpha virt. eigenvalues --    0.24192   0.24474   0.24950   0.26210   0.26664
 Alpha virt. eigenvalues --    0.27305   0.28932   0.29322   0.29802   0.31012
 Alpha virt. eigenvalues --    0.31949   0.32646   0.33392   0.36426   0.36808
 Alpha virt. eigenvalues --    0.37443   0.38080   0.39278   0.39379   0.39815
 Alpha virt. eigenvalues --    0.40740   0.41406   0.42123   0.42733   0.43197
 Alpha virt. eigenvalues --    0.43958   0.44338   0.44882   0.45182   0.46050
 Alpha virt. eigenvalues --    0.46362   0.46518   0.46672   0.46944   0.47346
 Alpha virt. eigenvalues --    0.47589   0.48183   0.48734   0.49171   0.49546
 Alpha virt. eigenvalues --    0.49876   0.50259   0.51290   0.51375   0.51645
 Alpha virt. eigenvalues --    0.52059   0.52424   0.52766   0.53035   0.53175
 Alpha virt. eigenvalues --    0.53476   0.53651   0.54276   0.54463   0.54710
 Alpha virt. eigenvalues --    0.55284   0.55357   0.55706   0.55920   0.56050
 Alpha virt. eigenvalues --    0.56567   0.56725   0.57725   0.57880   0.58469
 Alpha virt. eigenvalues --    0.59083   0.59588   0.60309   0.60947   0.61428
 Alpha virt. eigenvalues --    0.62560   0.62760   0.63264   0.64055   0.64490
 Alpha virt. eigenvalues --    0.64669   0.65990   0.66080   0.66718   0.67523
 Alpha virt. eigenvalues --    0.68190   0.69360   0.69812   0.70113   0.70839
 Alpha virt. eigenvalues --    0.71380   0.71845   0.71899   0.72501   0.72994
 Alpha virt. eigenvalues --    0.73783   0.73874   0.74489   0.74582   0.74881
 Alpha virt. eigenvalues --    0.75161   0.75619   0.75793   0.76161   0.76410
 Alpha virt. eigenvalues --    0.76854   0.77308   0.77511   0.77781   0.78374
 Alpha virt. eigenvalues --    0.78681   0.78812   0.79773   0.80612   0.81075
 Alpha virt. eigenvalues --    0.81352   0.81845   0.82031   0.82331   0.82850
 Alpha virt. eigenvalues --    0.83286   0.83414   0.83511   0.84181   0.84609
 Alpha virt. eigenvalues --    0.85013   0.85159   0.85721   0.85902   0.86681
 Alpha virt. eigenvalues --    0.87520   0.87972   0.88833   0.89329   0.90336
 Alpha virt. eigenvalues --    0.90594   0.91152   0.92351   0.92500   0.93633
 Alpha virt. eigenvalues --    0.94357   0.94708   0.96008   0.96154   0.96703
 Alpha virt. eigenvalues --    0.97402   0.98320   0.99198   1.00004   1.00812
 Alpha virt. eigenvalues --    1.01369   1.01420   1.01898   1.02446   1.03456
 Alpha virt. eigenvalues --    1.04411   1.05180   1.05823   1.07206   1.07381
 Alpha virt. eigenvalues --    1.08208   1.08981   1.09227   1.09692   1.10175
 Alpha virt. eigenvalues --    1.10882   1.11430   1.12575   1.12930   1.14074
 Alpha virt. eigenvalues --    1.14505   1.14988   1.15649   1.16416   1.17075
 Alpha virt. eigenvalues --    1.17669   1.17901   1.18249   1.19300   1.19717
 Alpha virt. eigenvalues --    1.20157   1.21723   1.22775   1.23745   1.24829
 Alpha virt. eigenvalues --    1.25658   1.25976   1.26527   1.27883   1.28599
 Alpha virt. eigenvalues --    1.29133   1.29268   1.30360   1.31288   1.32384
 Alpha virt. eigenvalues --    1.33320   1.33597   1.34087   1.34618   1.34773
 Alpha virt. eigenvalues --    1.35795   1.36754   1.37609   1.38366   1.38554
 Alpha virt. eigenvalues --    1.38957   1.39190   1.39595   1.40609   1.41002
 Alpha virt. eigenvalues --    1.42051   1.42447   1.42702   1.44643   1.45538
 Alpha virt. eigenvalues --    1.46385   1.48010   1.48937   1.49085   1.51027
 Alpha virt. eigenvalues --    1.52817   1.53702   1.53840   1.54212   1.55895
 Alpha virt. eigenvalues --    1.56054   1.56538   1.57188   1.58187   1.58670
 Alpha virt. eigenvalues --    1.60618   1.61393   1.61881   1.62548   1.62785
 Alpha virt. eigenvalues --    1.63155   1.64204   1.64598   1.65769   1.65805
 Alpha virt. eigenvalues --    1.66447   1.67239   1.67763   1.69340   1.69732
 Alpha virt. eigenvalues --    1.69960   1.70451   1.71155   1.71375   1.71894
 Alpha virt. eigenvalues --    1.72405   1.72888   1.73758   1.74032   1.74728
 Alpha virt. eigenvalues --    1.75019   1.75344   1.76038   1.76845   1.77299
 Alpha virt. eigenvalues --    1.77814   1.78237   1.78883   1.79343   1.79626
 Alpha virt. eigenvalues --    1.80173   1.80668   1.81215   1.81696   1.82659
 Alpha virt. eigenvalues --    1.83012   1.83291   1.83804   1.84450   1.84912
 Alpha virt. eigenvalues --    1.85374   1.85719   1.86995   1.88077   1.88515
 Alpha virt. eigenvalues --    1.89140   1.89570   1.90027   1.90321   1.91463
 Alpha virt. eigenvalues --    1.92304   1.93115   1.93375   1.93794   1.94583
 Alpha virt. eigenvalues --    1.95257   1.96288   1.96894   1.97653   1.98400
 Alpha virt. eigenvalues --    1.99235   1.99868   2.00428   2.01326   2.01678
 Alpha virt. eigenvalues --    2.02110   2.02535   2.03911   2.04500   2.05149
 Alpha virt. eigenvalues --    2.05505   2.06372   2.07384   2.08440   2.09512
 Alpha virt. eigenvalues --    2.10390   2.11120   2.11748   2.12165   2.13821
 Alpha virt. eigenvalues --    2.14595   2.14769   2.16063   2.16366   2.17661
 Alpha virt. eigenvalues --    2.18612   2.19095   2.19567   2.19981   2.20638
 Alpha virt. eigenvalues --    2.22458   2.22884   2.23066   2.23827   2.25136
 Alpha virt. eigenvalues --    2.26546   2.26838   2.27830   2.28436   2.28814
 Alpha virt. eigenvalues --    2.30575   2.31049   2.31408   2.32455   2.32519
 Alpha virt. eigenvalues --    2.34263   2.34971   2.36053   2.37535   2.38071
 Alpha virt. eigenvalues --    2.39321   2.39890   2.40357   2.41207   2.41711
 Alpha virt. eigenvalues --    2.44301   2.45241   2.45578   2.46967   2.47863
 Alpha virt. eigenvalues --    2.48711   2.49704   2.50125   2.50715   2.51063
 Alpha virt. eigenvalues --    2.51413   2.52206   2.52631   2.53790   2.54762
 Alpha virt. eigenvalues --    2.55346   2.55819   2.56494   2.56696   2.58162
 Alpha virt. eigenvalues --    2.58995   2.59966   2.60867   2.62656   2.63138
 Alpha virt. eigenvalues --    2.63699   2.64570   2.65775   2.66606   2.67162
 Alpha virt. eigenvalues --    2.67813   2.69822   2.72063   2.73046   2.76334
 Alpha virt. eigenvalues --    2.77394   2.81074   2.83781   2.85103   2.88346
 Alpha virt. eigenvalues --    2.88637   2.89737   2.90317   2.90649   2.91136
 Alpha virt. eigenvalues --    2.91817   2.93264   2.93996   2.96554   2.98336
 Alpha virt. eigenvalues --    2.98711   2.99139   3.03567   3.04062   3.05562
 Alpha virt. eigenvalues --    3.09684   3.31505   3.68465   3.73493   3.75169
 Alpha virt. eigenvalues --    3.80118   3.81802   3.86719   3.90201   3.95796
 Alpha virt. eigenvalues --    3.97283   3.98362   4.00209   4.01775   4.05117
 Alpha virt. eigenvalues --    4.06221   4.08019   4.09824   4.12208   4.12636
 Alpha virt. eigenvalues --    4.14161   4.16667   4.20960   4.22001   4.23661
 Alpha virt. eigenvalues --    4.28183   4.29453   4.31230   4.32344   4.35224
 Alpha virt. eigenvalues --    4.38055   4.39370   4.40330   4.42864   4.48659
 Alpha virt. eigenvalues --    4.51260   4.55125   4.58962   4.62524   4.65054
 Alpha virt. eigenvalues --    4.68018
          Condensed to atoms (all electrons):
 Mulliken charges:
               1
     1  N   -0.813815
     2  C   -0.109831
     3  C    0.630218
     4  O   -0.514507
     5  C   -0.415430
     6  C    0.637965
     7  N   -0.741728
     8  O   -0.534145
     9  H    0.430478
    10  H    0.217081
    11  H    0.218933
    12  H    0.212098
    13  H    0.365973
    14  H    0.357711
    15  H    0.418524
    16  H    0.427477
    17  N   -0.651748
    18  C   -0.081102
    19  C    0.625674
    20  O   -0.555590
    21  C   -0.356395
    22  C    0.173421
    23  C   -0.178914
    24  C   -0.197403
    25  C   -0.138078
    26  C   -0.136643
    27  C   -0.159272
    28  H    0.390082
    29  H    0.220108
    30  H    0.144103
    31  H    0.195003
    32  H    0.152178
    33  H    0.143530
    34  H    0.158270
    35  H    0.152118
    36  H    0.150115
    37  N   -0.632112
    38  C   -0.060585
    39  C    0.642006
    40  O   -0.583308
    41  C   -0.395675
    42  C    0.626513
    43  N   -0.725795
    44  O   -0.560737
    45  H    0.370186
    46  H    0.221389
    47  H    0.217601
    48  H    0.197585
    49  H    0.366316
    50  H    0.367950
    51  N   -0.605657
    52  C   -0.058728
    53  C    0.602300
    54  O   -0.553105
    55  C   -0.301193
    56  C   -0.301972
    57  C   -0.178666
    58  N   -0.592101
    59  C    0.718859
    60  N   -0.767617
    61  N   -0.781022
    62  O   -0.604554
    63  H    0.361181
    64  H    0.169730
    65  H    0.177799
    66  H    0.166093
    67  H    0.166706
    68  H    0.165456
    69  H    0.193971
    70  H    0.174198
    71  H    0.403594
    72  H    0.385845
    73  H    0.386789
    74  H    0.398451
    75  H    0.385848
 Sum of Mulliken charges =   1.00000
 Mulliken charges with hydrogens summed into heavy atoms:
               1
     1  N    0.462664
     2  C    0.107250
     3  C    0.630218
     4  O   -0.514507
     5  C    0.015601
     6  C    0.637965
     7  N   -0.018044
     8  O   -0.534145
    17  N   -0.261666
    18  C    0.139005
    19  C    0.625674
    20  O   -0.555590
    21  C   -0.017289
    22  C    0.173421
    23  C   -0.026736
    24  C   -0.053872
    25  C    0.020192
    26  C    0.015476
    27  C   -0.009157
    37  N   -0.261926
    38  C    0.160803
    39  C    0.642006
    40  O   -0.583308
    41  C    0.019511
    42  C    0.626513
    43  N    0.008471
    44  O   -0.560737
    51  N   -0.244477
    52  C    0.111002
    53  C    0.602300
    54  O   -0.553105
    55  C    0.042699
    56  C    0.030190
    57  C    0.189503
    58  N   -0.188507
    59  C    0.718859
    60  N    0.005018
    61  N    0.003277
    62  O   -0.604554
 Electronic spatial extent (au):  <R**2>=         134294.2331
 Charge=              1.0000 electrons
 Dipole moment (field-independent basis, Debye):
    X=            -38.7156    Y=            -10.5131    Z=            -35.5303  Tot=             53.5894
 Quadrupole moment (field-independent basis, Debye-Ang):
   XX=            125.5151   YY=           -137.4685   ZZ=             70.6713
   XY=            124.7602   XZ=            264.9943   YZ=             41.9913
 Traceless Quadrupole moment (field-independent basis, Debye-Ang):
   XX=            105.9425   YY=           -157.0411   ZZ=             51.0986
   XY=            124.7602   XZ=            264.9943   YZ=             41.9913
 Octapole moment (field-independent basis, Debye-Ang**2):
  XXX=           1330.5498  YYY=            790.5184  ZZZ=           2535.0796  XYY=            806.4252
  XXY=          -1053.0556  XXZ=           -554.4017  XZZ=           -430.3346  YZZ=            250.6470
  YYZ=           1093.0673  XYZ=           -671.5286
 Hexadecapole moment (field-independent basis, Debye-Ang**3):
 XXXX=         -37594.6643 YYYY=         -10042.3923 ZZZZ=         -62290.3323 XXXY=           7008.3469
 XXXZ=         -13387.1652 YYYX=          -5422.1769 YYYZ=          -4667.9543 ZZZX=         -18974.0950
 ZZZY=          -6932.5543 XXYY=          -6439.7854 XXZZ=         -10591.4799 YYZZ=         -11397.9620
 XXYZ=           6456.1251 YYXZ=          -6379.0575 ZZXY=            812.2111
 N-N= 5.210743048960D+03 E-N=-1.486053952615D+04  KE= 1.899811781083D+03
 Unable to Open any file for archive entry.
 1\1\GINC-AMR-176\SP\RB3LYP\6-31G(d)\C23H36N9O7(1+)\KENGMITH\03-Jun-202
 2\0\\# B3LYP/6-31G* empiricaldispersion=gd3 guess=read geom=check nosy
 mm integral(ultrafinegrid)\\Candidate Structure: Conf:291 Charge calc 
 in gas phase\\1,1\N,0,-8.7904183472,0.904006409,-8.1688230624\C,0,-8.0
 505788383,0.7567086755,-9.4668389316\C,0,-7.5952226438,-0.6792958565,-
 9.7730585754\O,0,-7.8506848566,-1.1738938567,-10.8643263239\C,0,-6.838
 9314074,1.6949494142,-9.4573246052\C,0,-7.2512259163,3.1595250804,-9.3
 450243578\N,0,-6.3433408499,4.0460084265,-9.8022364791\O,0,-8.33090764
 54,3.4959867538,-8.8476081159\H,0,-8.1598605672,0.6418345598,-7.349267
 6162\H,0,-8.74469247,1.0287237917,-10.2632514597\H,0,-6.1872058848,1.4
 522719655,-8.6097034134\H,0,-6.2488326475,1.5187599518,-10.3606498415\
 H,0,-6.5319565486,5.0351652852,-9.7061282726\H,0,-5.4647567563,3.74785
 36924,-10.2034019758\H,0,-9.0452765402,1.9082455086,-8.1107469757\H,0,
 -9.6004080334,0.265442019,-8.1268118368\N,0,-6.8425898008,-1.302351385
 1,-8.8214435868\C,0,-5.9840420784,-2.4220239678,-9.1868405585\C,0,-6.2
 460244033,-3.6771245163,-8.3400423259\O,0,-5.3062512502,-4.298883566,-
 7.8194261585\C,0,-4.4953425472,-2.0151104466,-9.1145956276\C,0,-4.1924
 039803,-0.7199445942,-9.8414485784\C,0,-4.4691231551,-0.5666186876,-11
 .2087169399\C,0,-3.619255459,0.3557713443,-9.1518366758\C,0,-4.1748709
 686,0.6280702748,-11.8671046473\C,0,-3.3141486578,1.5520622557,-9.8076
 053594\C,0,-3.5913031857,1.6920132336,-11.1693998914\H,0,-6.6652892817
 ,-0.8314891027,-7.9282063799\H,0,-6.2542486405,-2.6763684525,-10.21783
 33507\H,0,-4.2102142887,-1.9140054195,-8.0616763981\H,0,-3.8960419577,
 -2.8410587051,-9.5122939916\H,0,-4.921675075,-1.3823628215,-11.7659554
 344\H,0,-3.4014146782,0.2567242649,-8.0910192114\H,0,-4.3898043431,0.7
 245019093,-12.9275084061\H,0,-2.8489574953,2.3644857267,-9.2556642471\
 H,0,-3.3340790826,2.6101590463,-11.6917781772\N,0,-7.5156745432,-4.130
 724382,-8.1829164001\C,0,-8.7960739685,-3.5033540897,-8.4939642461\C,0
 ,-9.1889785425,-2.3591221136,-7.5312650879\O,0,-10.0383393053,-1.53655
 06328,-7.8924711396\C,0,-9.9102712144,-4.5734665382,-8.4800662527\C,0,
 -10.0614165912,-5.2604455079,-7.1202174499\N,0,-11.3200740749,-5.53768
 51524,-6.7292284869\O,0,-9.0792459739,-5.5527146343,-6.4214060017\H,0,
 -7.6002914391,-4.9534868204,-7.5904126368\H,0,-8.7681028858,-3.0565130
 131,-9.490665409\H,0,-9.6717007616,-5.3457475141,-9.221479428\H,0,-10.
 8426301371,-4.0923974208,-8.7883616214\H,0,-11.4605055004,-6.063689435
 8,-5.8760228655\H,0,-12.1273513148,-5.3212234633,-7.2960427055\N,0,-8.
 5901875155,-2.3710101494,-6.3258571877\C,0,-8.6875693321,-1.3258792303
 ,-5.3057975809\C,0,-7.2965653772,-0.5901699028,-5.2816677793\O,0,-6.53
 67626212,-0.7098005261,-4.2999613408\C,0,-9.2567579537,-1.8451346596,-
 3.9521258972\C,0,-9.1714657848,-3.3602209046,-3.6467201405\C,0,-7.8661
 450059,-3.8313697657,-2.9816870721\N,0,-6.6678959616,-3.3006797295,-3.
 6265325575\C,0,-6.015640345,-3.8167740757,-4.6674756146\N,0,-6.2855143
 069,-5.0402949618,-5.1650095966\N,0,-5.0180587685,-3.098799813,-5.2166
 441528\O,0,-7.0226493223,0.0558701214,-6.3471089144\H,0,-7.9315489559,
 -3.119792278,-6.1668010849\H,0,-9.4030402693,-0.6043640891,-5.70671160
 24\H,0,-8.7878931808,-1.266276753,-3.1482766737\H,0,-10.31914598,-1.58
 2275261,-3.9409805219\H,0,-9.9838575379,-3.6160696774,-2.9562292489\H,
 0,-9.3576131239,-3.940381608,-4.5562249874\H,0,-7.8275780266,-3.478666
 8093,-1.9465071551\H,0,-7.8121340726,-4.9239962521,-2.9389672974\H,0,-
 6.5559047168,-2.2768105568,-3.5422745653\H,0,-5.8361608146,-5.28146589
 84,-6.0462953187\H,0,-7.1849159252,-5.470842186,-4.9941313828\H,0,-4.6
 645863198,-3.3799890798,-6.1263091093\H,0,-4.9241125369,-2.1268806266,
 -4.936918138\\Version=ES64L-G16RevC.01\HF=-1917.5451346\RMSD=1.032e-09
 \Dipole=-1.6726801,-1.1770172,0.4219658\Quadrupole=78.7656566,-116.756
 241,37.9905843,92.7561669,197.0167618,31.2195144\PG=C01 [X(C23H36N9O7)
 ]\\@
 The archive entry for this job was punched.


 There ain't no surer way to find out whether you
 like people or hate them than to travel with them.
                                     -- Mark Twain
 Job cpu time:       0 days  0 hours  5 minutes  3.8 seconds.
 Elapsed time:       0 days  0 hours  1 minutes 16.7 seconds.
 File lengths (MBytes):  RWF=    344 Int=      0 D2E=      0 Chk=     48 Scr=     16
 Normal termination of Gaussian 16 at Fri Jun  3 06:01:15 2022.
