 Entering Gaussian System, Link 0=/opt/software/Gaussian/g16-AVX2-C.01/g16/g16
 Input=charge-conf-365.com
 Output=charge-conf-365.log
 Initial command:
 /opt/software/Gaussian/g16-AVX2-C.01/g16/l1.exe "/mnt/gs18/scratch/users/kengmith/Gau-67933.inp" -scrdir="/mnt/gs18/scratch/users/kengmith/"
 Entering Link 1 = /opt/software/Gaussian/g16-AVX2-C.01/g16/l1.exe PID=     67944.
  
 Copyright (c) 1988-2019, Gaussian, Inc.  All Rights Reserved.
  
 This is part of the Gaussian(R) 16 program.  It is based on
 the Gaussian(R) 09 system (copyright 2009, Gaussian, Inc.),
 the Gaussian(R) 03 system (copyright 2003, Gaussian, Inc.),
 the Gaussian(R) 98 system (copyright 1998, Gaussian, Inc.),
 the Gaussian(R) 94 system (copyright 1995, Gaussian, Inc.),
 the Gaussian 92(TM) system (copyright 1992, Gaussian, Inc.),
 the Gaussian 90(TM) system (copyright 1990, Gaussian, Inc.),
 the Gaussian 88(TM) system (copyright 1988, Gaussian, Inc.),
 the Gaussian 86(TM) system (copyright 1986, Carnegie Mellon
 University), and the Gaussian 82(TM) system (copyright 1983,
 Carnegie Mellon University). Gaussian is a federally registered
 trademark of Gaussian, Inc.
  
 This software contains proprietary and confidential information,
 including trade secrets, belonging to Gaussian, Inc.
  
 This software is provided under written license and may be
 used, copied, transmitted, or stored only in accord with that
 written license.
  
 The following legend is applicable only to US Government
 contracts under FAR:
  
                    RESTRICTED RIGHTS LEGEND
  
 Use, reproduction and disclosure by the US Government is
 subject to restrictions as set forth in subparagraphs (a)
 and (c) of the Commercial Computer Software - Restricted
 Rights clause in FAR 52.227-19.
  
 Gaussian, Inc.
 340 Quinnipiac St., Bldg. 40, Wallingford CT 06492
  
  
 ---------------------------------------------------------------
 Warning -- This program may not be used in any manner that
 competes with the business of Gaussian, Inc. or will provide
 assistance to any competitor of Gaussian, Inc.  The licensee
 of this program is prohibited from giving any competitor of
 Gaussian, Inc. access to this program.  By using this program,
 the user acknowledges that Gaussian, Inc. is engaged in the
 business of creating and licensing software in the field of
 computational chemistry and represents and warrants to the
 licensee that it is not a competitor of Gaussian, Inc. and that
 it will not use this program in any manner prohibited above.
 ---------------------------------------------------------------
  

 Cite this work as:
 Gaussian 16, Revision C.01,
 M. J. Frisch, G. W. Trucks, H. B. Schlegel, G. E. Scuseria, 
 M. A. Robb, J. R. Cheeseman, G. Scalmani, V. Barone, 
 G. A. Petersson, H. Nakatsuji, X. Li, M. Caricato, A. V. Marenich, 
 J. Bloino, B. G. Janesko, R. Gomperts, B. Mennucci, H. P. Hratchian, 
 J. V. Ortiz, A. F. Izmaylov, J. L. Sonnenberg, D. Williams-Young, 
 F. Ding, F. Lipparini, F. Egidi, J. Goings, B. Peng, A. Petrone, 
 T. Henderson, D. Ranasinghe, V. G. Zakrzewski, J. Gao, N. Rega, 
 G. Zheng, W. Liang, M. Hada, M. Ehara, K. Toyota, R. Fukuda, 
 J. Hasegawa, M. Ishida, T. Nakajima, Y. Honda, O. Kitao, H. Nakai, 
 T. Vreven, K. Throssell, J. A. Montgomery, Jr., J. E. Peralta, 
 F. Ogliaro, M. J. Bearpark, J. J. Heyd, E. N. Brothers, K. N. Kudin, 
 V. N. Staroverov, T. A. Keith, R. Kobayashi, J. Normand, 
 K. Raghavachari, A. P. Rendell, J. C. Burant, S. S. Iyengar, 
 J. Tomasi, M. Cossi, J. M. Millam, M. Klene, C. Adamo, R. Cammi, 
 J. W. Ochterski, R. L. Martin, K. Morokuma, O. Farkas, 
 J. B. Foresman, and D. J. Fox, Gaussian, Inc., Wallingford CT, 2019.
 
 ******************************************
 Gaussian 16:  ES64L-G16RevC.01  3-Jul-2019
                 3-Jun-2022 
 ******************************************
 %mem=8gb
 %nproc=4
 Will use up to    4 processors via shared memory.
 %chk=conf-365.chk
 ----------------------------------------------------------------------
 # B3LYP/6-31G* empiricaldispersion=gd3 guess=read geom=check nosymm in
 tegral(ultrafinegrid)
 ----------------------------------------------------------------------
 1/29=2,38=1,172=1/1;
 2/12=2,15=1,40=1/2;
 3/5=1,6=6,7=1,11=2,14=-4,25=1,30=1,74=-5,75=-5,116=-2,124=31/1,2,3;
 4/5=1/1;
 5/5=2,38=6/2;
 6/7=2,8=2,9=2,10=2,28=1/1;
 99/5=1,9=1/99;
 ------------------------------------------------------
 Candidate Structure: Conf:365 Charge calc in gas phase
 ------------------------------------------------------
 Structure from the checkpoint file:  "conf-365.chk"
 Charge =  1 Multiplicity = 1
 Redundant internal coordinates found in file.  (old form).
 N,0,-8.7244708472,-3.0809816225,-5.7040995656
 C,0,-8.5878203331,-1.7393923125,-5.0443336819
 C,0,-8.3835875753,-0.5731837019,-6.0249028566
 O,0,-9.0920702477,0.4221815302,-5.9350241005
 C,0,-7.4240040839,-1.7919415623,-4.0485712445
 C,0,-7.6673417581,-2.8101074099,-2.9387086043
 N,0,-6.9734594521,-2.5941083698,-1.8024697099
 O,0,-8.4287538524,-3.7709635128,-3.0914358811
 H,0,-7.8309176047,-3.3283685587,-6.2316142959
 H,0,-9.5286439867,-1.5387031848,-4.5298965104
 H,0,-6.4992174423,-2.0633682017,-4.5712506422
 H,0,-7.2647201433,-0.7911454929,-3.6383488266
 H,0,-7.048054532,-3.2630033671,-1.0473166191
 H,0,-6.3551873544,-1.8010257544,-1.6999861602
 H,0,-8.8742370239,-3.7540983545,-4.9286788006
 H,0,-9.4826219134,-3.0765666215,-6.4046020216
 N,0,-7.34574292,-0.6818395594,-6.9032075246
 C,0,-6.7803934539,0.5133961436,-7.5164500049
 C,0,-6.7428123297,0.4362064408,-9.0504430623
 O,0,-5.7087787232,0.7211129433,-9.6752191154
 C,0,-5.3735262197,0.8058876384,-6.9490212499
 C,0,-5.3227497498,0.7860392002,-5.4342037315
 C,0,-6.1326709331,1.6349502492,-4.6641553336
 C,0,-4.4515139576,-0.0872504266,-4.7712521216
 C,0,-6.0673797754,1.6132868798,-3.2703905036
 C,0,-4.3750968442,-0.1075232964,-3.3755394492
 C,0,-5.1839856806,0.7441181741,-2.6196575458
 H,0,-6.7913307136,-1.5437600061,-6.9274092791
 H,0,-7.4657823778,1.3286321225,-7.2592134332
 H,0,-4.6739573865,0.0612010997,-7.34421344
 H,0,-5.0407785748,1.7721859694,-7.3428970894
 H,0,-6.8244511921,2.3158265348,-5.1526299242
 H,0,-3.8188385446,-0.7550465973,-5.3512220252
 H,0,-6.6973682766,2.2832773029,-2.6923134196
 H,0,-3.6746896535,-0.7781997971,-2.8849150005
 H,0,-5.1125281123,0.7516175064,-1.5348312149
 N,0,-7.8606869832,0.0820156463,-9.734047084
 C,0,-9.1180811729,-0.4941820991,-9.2684957491
 C,0,-9.0164549592,-1.9803950345,-8.8543551509
 O,0,-9.8893634148,-2.459964238,-8.1219245965
 C,0,-10.1886902681,-0.3545296153,-10.3734808448
 C,0,-9.8097199922,-1.0793052702,-11.6677111733
 N,0,-10.8121371188,-1.7005690673,-12.3182311429
 O,0,-8.6462922118,-1.0868587369,-12.0975536915
 H,0,-7.7420903411,0.0356685788,-10.743486107
 H,0,-9.4744582708,0.0369446326,-8.3825759918
 H,0,-10.3195171364,0.7084010713,-10.6103388144
 H,0,-11.1360839194,-0.7255325733,-9.9727368317
 H,0,-10.6214898921,-2.121485821,-13.2186988215
 H,0,-11.7667439892,-1.6871843781,-11.9890264631
 N,0,-7.9801823054,-2.6667747006,-9.3708612589
 C,0,-7.5925284849,-4.0336558943,-9.0196368892
 C,0,-6.2727985492,-3.9229654977,-8.1693461814
 O,0,-5.1872026366,-4.3233365636,-8.6346653746
 C,0,-7.5890967607,-4.9998906918,-10.2413047255
 C,0,-7.4729835679,-4.3955679774,-11.6616257282
 C,0,-6.0392197385,-4.1619998605,-12.169604117
 N,0,-5.1804384873,-3.5061587492,-11.1869238105
 C,0,-5.040520753,-2.1968385161,-10.9834442142
 N,0,-5.5583189898,-1.2693027081,-11.8134953634
 N,0,-4.3160953426,-1.7880531606,-9.9250044761
 O,0,-6.4202217203,-3.3520658419,-7.0380469823
 H,0,-7.3591349632,-2.1444932248,-9.971918674
 H,0,-8.3665425999,-4.3796024132,-8.3308255516
 H,0,-6.8014466879,-5.7439927817,-10.0769705779
 H,0,-8.5380930001,-5.5441789145,-10.2089544596
 H,0,-7.9453631247,-5.0888503881,-12.367632512
 H,0,-8.0476002695,-3.4659412093,-11.7251877779
 H,0,-5.5611714085,-5.1216583582,-12.3886995811
 H,0,-6.0352961046,-3.5931991038,-13.1050281539
 H,0,-4.9857782374,-4.072578619,-10.3447420553
 H,0,-5.5224422903,-0.3031700216,-11.4941325334
 H,0,-6.3319599636,-1.5066055556,-12.4206389661
 H,0,-4.3821212752,-0.8150708933,-9.6414244812
 H,0,-4.0619216691,-2.4821994558,-9.2283743025
 Recover connectivity data from disk.
                           ----------------------------
                           !    Current Parameters    !
                           ! (Angstroms and Degrees)  !
 --------------------------                            --------------------------
 ! Name  Definition              Value                                          !
 --------------------------------------------------------------------------------
 ! R1    R(1,2)                  1.5013                                         !
 ! R2    R(1,9)                  1.0667                                         !
 ! R3    R(1,15)                 1.0377                                         !
 ! R4    R(1,16)                 1.0322                                         !
 ! R5    R(2,3)                  1.5373                                         !
 ! R6    R(2,5)                  1.5326                                         !
 ! R7    R(2,10)                 1.0909                                         !
 ! R8    R(3,4)                  1.2251                                         !
 ! R9    R(3,17)                 1.3639                                         !
 ! R10   R(5,6)                  1.5257                                         !
 ! R11   R(5,11)                 1.0964                                         !
 ! R12   R(5,12)                 1.0933                                         !
 ! R13   R(6,7)                  1.3488                                         !
 ! R14   R(6,8)                  1.2354                                         !
 ! R15   R(7,13)                 1.0116                                         !
 ! R16   R(7,14)                 1.0108                                         !
 ! R17   R(17,18)                1.4575                                         !
 ! R18   R(17,28)                1.0251                                         !
 ! R19   R(18,19)                1.5364                                         !
 ! R20   R(18,21)                1.5449                                         !
 ! R21   R(18,29)                1.0957                                         !
 ! R22   R(19,20)                1.2413                                         !
 ! R23   R(19,37)                1.3574                                         !
 ! R24   R(21,22)                1.5158                                         !
 ! R25   R(21,30)                1.0955                                         !
 ! R26   R(21,31)                1.0953                                         !
 ! R27   R(22,23)                1.4034                                         !
 ! R28   R(22,24)                1.4004                                         !
 ! R29   R(23,25)                1.3955                                         !
 ! R30   R(23,32)                1.0866                                         !
 ! R31   R(24,26)                1.398                                          !
 ! R32   R(24,33)                1.0875                                         !
 ! R33   R(25,27)                1.3997                                         !
 ! R34   R(25,34)                1.0863                                         !
 ! R35   R(26,27)                1.3968                                         !
 ! R36   R(26,35)                1.0868                                         !
 ! R37   R(27,36)                1.0872                                         !
 ! R38   R(37,38)                1.4594                                         !
 ! R39   R(37,45)                1.0174                                         !
 ! R40   R(38,39)                1.5462                                         !
 ! R41   R(38,41)                1.5449                                         !
 ! R42   R(38,46)                1.0927                                         !
 ! R43   R(39,40)                1.2363                                         !
 ! R44   R(39,51)                1.346                                          !
 ! R45   R(41,42)                1.531                                          !
 ! R46   R(41,47)                1.0968                                         !
 ! R47   R(41,48)                1.0935                                         !
 ! R48   R(42,43)                1.3468                                         !
 ! R49   R(42,44)                1.2403                                         !
 ! R50   R(43,49)                1.0121                                         !
 ! R51   R(43,50)                1.0099                                         !
 ! R52   R(51,52)                1.4636                                         !
 ! R53   R(51,63)                1.0098                                         !
 ! R54   R(52,53)                1.5738                                         !
 ! R55   R(52,55)                1.5576                                         !
 ! R56   R(52,64)                1.0924                                         !
 ! R57   R(53,54)                1.2471                                         !
 ! R58   R(53,62)                1.2757                                         !
 ! R59   R(55,56)                1.5479                                         !
 ! R60   R(55,65)                1.0959                                         !
 ! R61   R(55,66)                1.0945                                         !
 ! R62   R(56,57)                1.5389                                         !
 ! R63   R(56,67)                1.0965                                         !
 ! R64   R(56,68)                1.0947                                         !
 ! R65   R(57,58)                1.4606                                         !
 ! R66   R(57,69)                1.0943                                         !
 ! R67   R(57,70)                1.0948                                         !
 ! R68   R(58,59)                1.3324                                         !
 ! R69   R(58,71)                1.0334                                         !
 ! R70   R(59,60)                1.3481                                         !
 ! R71   R(59,61)                1.3462                                         !
 ! R72   R(60,72)                1.0182                                         !
 ! R73   R(60,73)                1.0117                                         !
 ! R74   R(61,74)                1.0156                                         !
 ! R75   R(61,75)                1.0157                                         !
 ! A1    A(2,1,9)              110.3848                                         !
 ! A2    A(2,1,15)             105.332                                          !
 ! A3    A(2,1,16)             111.178                                          !
 ! A4    A(9,1,15)             109.8765                                         !
 ! A5    A(9,1,16)             106.2983                                         !
 ! A6    A(15,1,16)            113.8209                                         !
 ! A7    A(1,2,3)              114.1857                                         !
 ! A8    A(1,2,5)              108.9062                                         !
 ! A9    A(1,2,10)             107.0459                                         !
 ! A10   A(3,2,5)              109.8501                                         !
 ! A11   A(3,2,10)             106.0103                                         !
 ! A12   A(5,2,10)             110.783                                          !
 ! A13   A(2,3,4)              119.5211                                         !
 ! A14   A(2,3,17)             116.8334                                         !
 ! A15   A(4,3,17)             123.506                                          !
 ! A16   A(2,5,6)              111.9883                                         !
 ! A17   A(2,5,11)             109.8324                                         !
 ! A18   A(2,5,12)             108.8473                                         !
 ! A19   A(6,5,11)             108.4281                                         !
 ! A20   A(6,5,12)             111.1729                                         !
 ! A21   A(11,5,12)            106.416                                          !
 ! A22   A(5,6,7)              115.0813                                         !
 ! A23   A(5,6,8)              121.83                                           !
 ! A24   A(7,6,8)              123.0765                                         !
 ! A25   A(6,7,13)             119.0165                                         !
 ! A26   A(6,7,14)             121.7177                                         !
 ! A27   A(13,7,14)            119.2248                                         !
 ! A28   A(3,17,18)            120.0507                                         !
 ! A29   A(3,17,28)            119.5845                                         !
 ! A30   A(18,17,28)           118.021                                          !
 ! A31   A(17,18,19)           112.8539                                         !
 ! A32   A(17,18,21)           110.7292                                         !
 ! A33   A(17,18,29)           105.5893                                         !
 ! A34   A(19,18,21)           110.729                                          !
 ! A35   A(19,18,29)           106.6836                                         !
 ! A36   A(21,18,29)           110.0317                                         !
 ! A37   A(18,19,20)           120.7569                                         !
 ! A38   A(18,19,37)           119.723                                          !
 ! A39   A(20,19,37)           119.503                                          !
 ! A40   A(18,21,22)           113.2705                                         !
 ! A41   A(18,21,30)           108.6826                                         !
 ! A42   A(18,21,31)           108.1561                                         !
 ! A43   A(22,21,30)           109.2818                                         !
 ! A44   A(22,21,31)           111.147                                          !
 ! A45   A(30,21,31)           106.0212                                         !
 ! A46   A(21,22,23)           121.4051                                         !
 ! A47   A(21,22,24)           120.1385                                         !
 ! A48   A(23,22,24)           118.4559                                         !
 ! A49   A(22,23,25)           120.7727                                         !
 ! A50   A(22,23,32)           119.9845                                         !
 ! A51   A(25,23,32)           119.2421                                         !
 ! A52   A(22,24,26)           121.0433                                         !
 ! A53   A(22,24,33)           119.4989                                         !
 ! A54   A(26,24,33)           119.4562                                         !
 ! A55   A(23,25,27)           120.2316                                         !
 ! A56   A(23,25,34)           119.6577                                         !
 ! A57   A(27,25,34)           120.1066                                         !
 ! A58   A(24,26,27)           119.9869                                         !
 ! A59   A(24,26,35)           119.6635                                         !
 ! A60   A(27,26,35)           120.3443                                         !
 ! A61   A(25,27,26)           119.5055                                         !
 ! A62   A(25,27,36)           120.0711                                         !
 ! A63   A(26,27,36)           120.4061                                         !
 ! A64   A(19,37,38)           130.6887                                         !
 ! A65   A(19,37,45)           114.5545                                         !
 ! A66   A(38,37,45)           113.5122                                         !
 ! A67   A(37,38,39)           114.0998                                         !
 ! A68   A(37,38,41)           109.4646                                         !
 ! A69   A(37,38,46)           110.349                                          !
 ! A70   A(39,38,41)           108.906                                          !
 ! A71   A(39,38,46)           105.7534                                         !
 ! A72   A(41,38,46)           108.056                                          !
 ! A73   A(38,39,40)           119.0218                                         !
 ! A74   A(38,39,51)           115.975                                          !
 ! A75   A(40,39,51)           124.9681                                         !
 ! A76   A(38,41,42)           112.9735                                         !
 ! A77   A(38,41,47)           108.9485                                         !
 ! A78   A(38,41,48)           107.9149                                         !
 ! A79   A(42,41,47)           107.8029                                         !
 ! A80   A(42,41,48)           111.3238                                         !
 ! A81   A(47,41,48)           107.7333                                         !
 ! A82   A(41,42,43)           116.2596                                         !
 ! A83   A(41,42,44)           121.8727                                         !
 ! A84   A(43,42,44)           121.8662                                         !
 ! A85   A(42,43,49)           118.7742                                         !
 ! A86   A(42,43,50)           122.6823                                         !
 ! A87   A(49,43,50)           118.2684                                         !
 ! A88   A(39,51,52)           126.0211                                         !
 ! A89   A(39,51,63)           115.9854                                         !
 ! A90   A(52,51,63)           117.5794                                         !
 ! A91   A(51,52,53)           106.6231                                         !
 ! A92   A(51,52,55)           113.0617                                         !
 ! A93   A(51,52,64)           105.0358                                         !
 ! A94   A(53,52,55)           117.7447                                         !
 ! A95   A(53,52,64)           106.0077                                         !
 ! A96   A(55,52,64)           107.4384                                         !
 ! A97   A(52,53,54)           120.3828                                         !
 ! A98   A(52,53,62)           114.4358                                         !
 ! A99   A(54,53,62)           125.1084                                         !
 ! A100  A(52,55,56)           118.5328                                         !
 ! A101  A(52,55,65)           107.7678                                         !
 ! A102  A(52,55,66)           106.4634                                         !
 ! A103  A(56,55,65)           110.4111                                         !
 ! A104  A(56,55,66)           106.6376                                         !
 ! A105  A(65,55,66)           106.3248                                         !
 ! A106  A(55,56,57)           115.596                                          !
 ! A107  A(55,56,67)           108.1588                                         !
 ! A108  A(55,56,68)           110.2084                                         !
 ! A109  A(57,56,67)           106.5473                                         !
 ! A110  A(57,56,68)           109.9365                                         !
 ! A111  A(67,56,68)           105.8673                                         !
 ! A112  A(56,57,58)           113.1951                                         !
 ! A113  A(56,57,69)           109.8765                                         !
 ! A114  A(56,57,70)           111.3602                                         !
 ! A115  A(58,57,69)           105.7612                                         !
 ! A116  A(58,57,70)           109.8441                                         !
 ! A117  A(69,57,70)           106.4389                                         !
 ! A118  A(57,58,59)           127.2821                                         !
 ! A119  A(57,58,71)           114.389                                          !
 ! A120  A(59,58,71)           113.2263                                         !
 ! A121  A(58,59,60)           122.8022                                         !
 ! A122  A(58,59,61)           118.3585                                         !
 ! A123  A(60,59,61)           118.8077                                         !
 ! A124  A(59,60,72)           116.4998                                         !
 ! A125  A(59,60,73)           120.1225                                         !
 ! A126  A(72,60,73)           115.9613                                         !
 ! A127  A(59,61,74)           118.39                                           !
 ! A128  A(59,61,75)           117.7995                                         !
 ! A129  A(74,61,75)           118.6508                                         !
 ! D1    D(9,1,2,3)             62.6018                                         !
 ! D2    D(9,1,2,5)            -60.579                                          !
 ! D3    D(9,1,2,10)           179.5989                                         !
 ! D4    D(15,1,2,3)          -178.845                                          !
 ! D5    D(15,1,2,5)            57.9742                                         !
 ! D6    D(15,1,2,10)          -61.8479                                         !
 ! D7    D(16,1,2,3)           -55.1109                                         !
 ! D8    D(16,1,2,5)          -178.2917                                         !
 ! D9    D(16,1,2,10)           61.8861                                         !
 ! D10   D(1,2,3,4)            129.3964                                         !
 ! D11   D(1,2,3,17)           -54.7444                                         !
 ! D12   D(5,2,3,4)           -107.9356                                         !
 ! D13   D(5,2,3,17)            67.9237                                         !
 ! D14   D(10,2,3,4)            11.8037                                         !
 ! D15   D(10,2,3,17)         -172.337                                          !
 ! D16   D(1,2,5,6)            -61.9501                                         !
 ! D17   D(1,2,5,11)            58.5832                                         !
 ! D18   D(1,2,5,12)           174.7228                                         !
 ! D19   D(3,2,5,6)            172.3134                                         !
 ! D20   D(3,2,5,11)           -67.1533                                         !
 ! D21   D(3,2,5,12)            48.9863                                         !
 ! D22   D(10,2,5,6)            55.5278                                         !
 ! D23   D(10,2,5,11)          176.0611                                         !
 ! D24   D(10,2,5,12)          -67.7993                                         !
 ! D25   D(2,3,17,18)         -157.9683                                         !
 ! D26   D(2,3,17,28)            4.3128                                         !
 ! D27   D(4,3,17,18)           17.7101                                         !
 ! D28   D(4,3,17,28)          179.9912                                         !
 ! D29   D(2,5,6,7)           -157.1322                                         !
 ! D30   D(2,5,6,8)             24.1013                                         !
 ! D31   D(11,5,6,7)            81.5218                                         !
 ! D32   D(11,5,6,8)           -97.2447                                         !
 ! D33   D(12,5,6,7)           -35.1262                                         !
 ! D34   D(12,5,6,8)           146.1074                                         !
 ! D35   D(5,6,7,13)          -176.4503                                         !
 ! D36   D(5,6,7,14)             1.2005                                         !
 ! D37   D(8,6,7,13)             2.299                                          !
 ! D38   D(8,6,7,14)           179.9498                                         !
 ! D39   D(3,17,18,19)        -126.198                                          !
 ! D40   D(3,17,18,21)         109.0384                                         !
 ! D41   D(3,17,18,29)         -10.0282                                         !
 ! D42   D(28,17,18,19)         71.2485                                         !
 ! D43   D(28,17,18,21)        -53.5151                                         !
 ! D44   D(28,17,18,29)       -172.5817                                         !
 ! D45   D(17,18,19,20)       -131.4813                                         !
 ! D46   D(17,18,19,37)         50.0272                                         !
 ! D47   D(21,18,19,20)         -6.7176                                         !
 ! D48   D(21,18,19,37)        174.7909                                         !
 ! D49   D(29,18,19,20)        113.0026                                         !
 ! D50   D(29,18,19,37)        -65.4889                                         !
 ! D51   D(17,18,21,22)        -49.494                                          !
 ! D52   D(17,18,21,30)         72.1656                                         !
 ! D53   D(17,18,21,31)       -173.1577                                         !
 ! D54   D(19,18,21,22)       -175.4548                                         !
 ! D55   D(19,18,21,30)        -53.7952                                         !
 ! D56   D(19,18,21,31)         60.8815                                         !
 ! D57   D(29,18,21,22)         66.8542                                         !
 ! D58   D(29,18,21,30)       -171.4862                                         !
 ! D59   D(29,18,21,31)        -56.8095                                         !
 ! D60   D(18,19,37,38)        -12.4605                                         !
 ! D61   D(18,19,37,45)       -178.6903                                         !
 ! D62   D(20,19,37,38)        169.0289                                         !
 ! D63   D(20,19,37,45)          2.7991                                         !
 ! D64   D(18,21,22,23)        -58.0122                                         !
 ! D65   D(18,21,22,24)        122.2532                                         !
 ! D66   D(30,21,22,23)       -179.3353                                         !
 ! D67   D(30,21,22,24)          0.9301                                         !
 ! D68   D(31,21,22,23)         63.9962                                         !
 ! D69   D(31,21,22,24)       -115.7383                                         !
 ! D70   D(21,22,23,25)       -179.4773                                         !
 ! D71   D(21,22,23,32)          0.8377                                         !
 ! D72   D(24,22,23,25)          0.2616                                         !
 ! D73   D(24,22,23,32)       -179.4234                                         !
 ! D74   D(21,22,24,26)        179.0552                                         !
 ! D75   D(21,22,24,33)         -0.4795                                         !
 ! D76   D(23,22,24,26)         -0.6871                                         !
 ! D77   D(23,22,24,33)        179.7783                                         !
 ! D78   D(22,23,25,27)          0.2943                                         !
 ! D79   D(22,23,25,34)        179.56                                           !
 ! D80   D(32,23,25,27)        179.9816                                         !
 ! D81   D(32,23,25,34)         -0.7527                                         !
 ! D82   D(22,24,26,27)          0.5562                                         !
 ! D83   D(22,24,26,35)       -178.6019                                         !
 ! D84   D(33,24,26,27)       -179.909                                          !
 ! D85   D(33,24,26,35)          0.9329                                         !
 ! D86   D(23,25,27,26)         -0.4319                                         !
 ! D87   D(23,25,27,36)        178.063                                          !
 ! D88   D(34,25,27,26)       -179.6943                                         !
 ! D89   D(34,25,27,36)         -1.1994                                         !
 ! D90   D(24,26,27,25)          0.0118                                         !
 ! D91   D(24,26,27,36)       -178.478                                          !
 ! D92   D(35,26,27,25)        179.1641                                         !
 ! D93   D(35,26,27,36)          0.6743                                         !
 ! D94   D(19,37,38,39)        -72.8231                                         !
 ! D95   D(19,37,38,41)        164.8625                                         !
 ! D96   D(19,37,38,46)         46.0663                                         !
 ! D97   D(45,37,38,39)         93.5202                                         !
 ! D98   D(45,37,38,41)        -28.7943                                         !
 ! D99   D(45,37,38,46)       -147.5904                                         !
 ! D100  D(37,38,39,40)        160.4937                                         !
 ! D101  D(37,38,39,51)        -21.5535                                         !
 ! D102  D(41,38,39,40)        -76.8864                                         !
 ! D103  D(41,38,39,51)        101.0664                                         !
 ! D104  D(46,38,39,40)         39.0276                                         !
 ! D105  D(46,38,39,51)       -143.0195                                         !
 ! D106  D(37,38,41,42)         60.6032                                         !
 ! D107  D(37,38,41,47)        -59.1755                                         !
 ! D108  D(37,38,41,48)       -175.883                                          !
 ! D109  D(39,38,41,42)        -64.7644                                         !
 ! D110  D(39,38,41,47)        175.4569                                         !
 ! D111  D(39,38,41,48)         58.7494                                         !
 ! D112  D(46,38,41,42)       -179.1891                                         !
 ! D113  D(46,38,41,47)         61.0322                                         !
 ! D114  D(46,38,41,48)        -55.6753                                         !
 ! D115  D(38,39,51,52)        173.106                                          !
 ! D116  D(38,39,51,63)          0.7105                                         !
 ! D117  D(40,39,51,52)         -9.0786                                         !
 ! D118  D(40,39,51,63)        178.5259                                         !
 ! D119  D(38,41,42,43)        141.5762                                         !
 ! D120  D(38,41,42,44)        -38.8622                                         !
 ! D121  D(47,41,42,43)        -97.9888                                         !
 ! D122  D(47,41,42,44)         81.5728                                         !
 ! D123  D(48,41,42,43)         19.9656                                         !
 ! D124  D(48,41,42,44)       -160.4728                                         !
 ! D125  D(41,42,43,49)        174.6497                                         !
 ! D126  D(41,42,43,50)          0.7823                                         !
 ! D127  D(44,42,43,49)         -4.912                                          !
 ! D128  D(44,42,43,50)       -178.7793                                         !
 ! D129  D(39,51,52,53)       -107.5867                                         !
 ! D130  D(39,51,52,55)        121.4828                                         !
 ! D131  D(39,51,52,64)          4.6351                                         !
 ! D132  D(63,51,52,53)         64.7005                                         !
 ! D133  D(63,51,52,55)        -66.2299                                         !
 ! D134  D(63,51,52,64)        176.9224                                         !
 ! D135  D(51,52,53,54)       -110.9949                                         !
 ! D136  D(51,52,53,62)         66.0533                                         !
 ! D137  D(55,52,53,54)         17.2448                                         !
 ! D138  D(55,52,53,62)       -165.707                                          !
 ! D139  D(64,52,53,54)        137.4552                                         !
 ! D140  D(64,52,53,62)        -45.4966                                         !
 ! D141  D(51,52,55,56)         21.5041                                         !
 ! D142  D(51,52,55,65)        147.7375                                         !
 ! D143  D(51,52,55,66)        -98.5294                                         !
 ! D144  D(53,52,55,56)       -103.6136                                         !
 ! D145  D(53,52,55,65)         22.6198                                         !
 ! D146  D(53,52,55,66)        136.353                                          !
 ! D147  D(64,52,55,56)        136.9255                                         !
 ! D148  D(64,52,55,65)        -96.8411                                         !
 ! D149  D(64,52,55,66)         16.8921                                         !
 ! D150  D(52,55,56,57)         87.138                                          !
 ! D151  D(52,55,56,67)       -153.5564                                         !
 ! D152  D(52,55,56,68)        -38.2572                                         !
 ! D153  D(65,55,56,57)        -37.8173                                         !
 ! D154  D(65,55,56,67)         81.4883                                         !
 ! D155  D(65,55,56,68)       -163.2125                                         !
 ! D156  D(66,55,56,57)       -152.9183                                         !
 ! D157  D(66,55,56,67)        -33.6127                                         !
 ! D158  D(66,55,56,68)         81.6865                                         !
 ! D159  D(55,56,57,58)        -46.7404                                         !
 ! D160  D(55,56,57,69)         71.2388                                         !
 ! D161  D(55,56,57,70)       -171.0828                                         !
 ! D162  D(67,56,57,58)       -166.9272                                         !
 ! D163  D(67,56,57,69)        -48.948                                          !
 ! D164  D(67,56,57,70)         68.7303                                         !
 ! D165  D(68,56,57,58)         78.7943                                         !
 ! D166  D(68,56,57,69)       -163.2265                                         !
 ! D167  D(68,56,57,70)        -45.5481                                         !
 ! D168  D(56,57,58,59)        -86.7072                                         !
 ! D169  D(56,57,58,71)         66.0873                                         !
 ! D170  D(69,57,58,59)        152.9427                                         !
 ! D171  D(69,57,58,71)        -54.2628                                         !
 ! D172  D(70,57,58,59)         38.4568                                         !
 ! D173  D(70,57,58,71)       -168.7488                                         !
 ! D174  D(57,58,59,60)         -9.6654                                         !
 ! D175  D(57,58,59,61)        172.4071                                         !
 ! D176  D(71,58,59,60)       -162.722                                          !
 ! D177  D(71,58,59,61)         19.3504                                         !
 ! D178  D(58,59,60,72)        170.688                                          !
 ! D179  D(58,59,60,73)         21.9496                                         !
 ! D180  D(61,59,60,72)        -11.3933                                         !
 ! D181  D(61,59,60,73)       -160.1317                                         !
 ! D182  D(58,59,61,74)       -166.0726                                         !
 ! D183  D(58,59,61,75)        -11.7717                                         !
 ! D184  D(60,59,61,74)         15.9154                                         !
 ! D185  D(60,59,61,75)        170.2162                                         !
 --------------------------------------------------------------------------------
 Symmetry turned off by external request.
 Stoichiometry    C23H36N9O7(1+)
 Framework group  C1[X(C23H36N9O7)]
 Deg. of freedom   219
 Full point group                 C1      NOp   1
                          Input orientation:                          
 ---------------------------------------------------------------------
 Center     Atomic      Atomic             Coordinates (Angstroms)
 Number     Number       Type             X           Y           Z
 ---------------------------------------------------------------------
      1          7           0       -8.724471   -3.080982   -5.704100
      2          6           0       -8.587820   -1.739392   -5.044334
      3          6           0       -8.383588   -0.573184   -6.024903
      4          8           0       -9.092070    0.422182   -5.935024
      5          6           0       -7.424004   -1.791942   -4.048571
      6          6           0       -7.667342   -2.810107   -2.938709
      7          7           0       -6.973459   -2.594108   -1.802470
      8          8           0       -8.428754   -3.770964   -3.091436
      9          1           0       -7.830918   -3.328369   -6.231614
     10          1           0       -9.528644   -1.538703   -4.529897
     11          1           0       -6.499217   -2.063368   -4.571251
     12          1           0       -7.264720   -0.791145   -3.638349
     13          1           0       -7.048055   -3.263003   -1.047317
     14          1           0       -6.355187   -1.801026   -1.699986
     15          1           0       -8.874237   -3.754098   -4.928679
     16          1           0       -9.482622   -3.076567   -6.404602
     17          7           0       -7.345743   -0.681840   -6.903208
     18          6           0       -6.780393    0.513396   -7.516450
     19          6           0       -6.742812    0.436206   -9.050443
     20          8           0       -5.708779    0.721113   -9.675219
     21          6           0       -5.373526    0.805888   -6.949021
     22          6           0       -5.322750    0.786039   -5.434204
     23          6           0       -6.132671    1.634950   -4.664155
     24          6           0       -4.451514   -0.087250   -4.771252
     25          6           0       -6.067380    1.613287   -3.270391
     26          6           0       -4.375097   -0.107523   -3.375539
     27          6           0       -5.183986    0.744118   -2.619658
     28          1           0       -6.791331   -1.543760   -6.927409
     29          1           0       -7.465782    1.328632   -7.259213
     30          1           0       -4.673957    0.061201   -7.344213
     31          1           0       -5.040779    1.772186   -7.342897
     32          1           0       -6.824451    2.315827   -5.152630
     33          1           0       -3.818839   -0.755047   -5.351222
     34          1           0       -6.697368    2.283277   -2.692313
     35          1           0       -3.674690   -0.778200   -2.884915
     36          1           0       -5.112528    0.751618   -1.534831
     37          7           0       -7.860687    0.082016   -9.734047
     38          6           0       -9.118081   -0.494182   -9.268496
     39          6           0       -9.016455   -1.980395   -8.854355
     40          8           0       -9.889363   -2.459964   -8.121925
     41          6           0      -10.188690   -0.354530  -10.373481
     42          6           0       -9.809720   -1.079305  -11.667711
     43          7           0      -10.812137   -1.700569  -12.318231
     44          8           0       -8.646292   -1.086859  -12.097554
     45          1           0       -7.742090    0.035669  -10.743486
     46          1           0       -9.474458    0.036945   -8.382576
     47          1           0      -10.319517    0.708401  -10.610339
     48          1           0      -11.136084   -0.725533   -9.972737
     49          1           0      -10.621490   -2.121486  -13.218699
     50          1           0      -11.766744   -1.687184  -11.989026
     51          7           0       -7.980182   -2.666775   -9.370861
     52          6           0       -7.592528   -4.033656   -9.019637
     53          6           0       -6.272799   -3.922965   -8.169346
     54          8           0       -5.187203   -4.323337   -8.634665
     55          6           0       -7.589097   -4.999891  -10.241305
     56          6           0       -7.472984   -4.395568  -11.661626
     57          6           0       -6.039220   -4.162000  -12.169604
     58          7           0       -5.180438   -3.506159  -11.186924
     59          6           0       -5.040521   -2.196839  -10.983444
     60          7           0       -5.558319   -1.269303  -11.813495
     61          7           0       -4.316095   -1.788053   -9.925004
     62          8           0       -6.420222   -3.352066   -7.038047
     63          1           0       -7.359135   -2.144493   -9.971919
     64          1           0       -8.366543   -4.379602   -8.330826
     65          1           0       -6.801447   -5.743993  -10.076971
     66          1           0       -8.538093   -5.544179  -10.208954
     67          1           0       -7.945363   -5.088850  -12.367633
     68          1           0       -8.047600   -3.465941  -11.725188
     69          1           0       -5.561171   -5.121658  -12.388700
     70          1           0       -6.035296   -3.593199  -13.105028
     71          1           0       -4.985778   -4.072579  -10.344742
     72          1           0       -5.522442   -0.303170  -11.494133
     73          1           0       -6.331960   -1.506606  -12.420639
     74          1           0       -4.382121   -0.815071   -9.641424
     75          1           0       -4.061922   -2.482199   -9.228374
 ---------------------------------------------------------------------
 Rotational constants (GHZ):           0.1525710           0.0712616           0.0695812
 Standard basis: 6-31G(d) (6D, 7F)
   657 basis functions,  1236 primitive gaussians,   657 cartesian basis functions
   146 alpha electrons      146 beta electrons
       nuclear repulsion energy      5210.5607011411 Hartrees.
 NAtoms=   75 NActive=   75 NUniq=   75 SFac= 1.00D+00 NAtFMM=   60 NAOKFM=T Big=T
 Integral buffers will be    131072 words long.
 Raffenetti 2 integral format.
 Two-electron integral symmetry is turned off.
 Nuclear repulsion after empirical dispersion term =     5210.4308442729 Hartrees.
 One-electron integrals computed using PRISM.
 NBasis=   657 RedAO= T EigKep=  4.64D-04  NBF=   657
 NBsUse=   657 1.00D-06 EigRej= -1.00D+00 NBFU=   657
 Initial guess from the checkpoint file:  "conf-365.chk"
 B after Tr=     0.000000    0.000000    0.000000
         Rot=    1.000000    0.000000    0.000000    0.000000 Ang=   0.00 deg.
 Requested convergence on RMS density matrix=1.00D-08 within 128 cycles.
 Requested convergence on MAX density matrix=1.00D-06.
 Requested convergence on             energy=1.00D-06.
 No special actions if energy rises.
 SCF Done:  E(RB3LYP) =  -1917.54511833     A.U. after    3 cycles
            NFock=  3  Conv=0.10D-08     -V/T= 2.0093

 **********************************************************************

            Population analysis using the SCF Density.

 **********************************************************************

 Alpha  occ. eigenvalues --  -19.24943 -19.24434 -19.23852 -19.22920 -19.22500
 Alpha  occ. eigenvalues --  -19.21356 -19.21162 -14.51576 -14.48708 -14.48372
 Alpha  occ. eigenvalues --  -14.48288 -14.47956 -14.47645 -14.47611 -14.46637
 Alpha  occ. eigenvalues --  -14.46122 -10.44642 -10.42548 -10.41512 -10.41023
 Alpha  occ. eigenvalues --  -10.40217 -10.40068 -10.39221 -10.36116 -10.36113
 Alpha  occ. eigenvalues --  -10.34680 -10.33765 -10.33733 -10.32738 -10.30851
 Alpha  occ. eigenvalues --  -10.29424 -10.29423 -10.29305 -10.29231 -10.28369
 Alpha  occ. eigenvalues --  -10.28299 -10.28233 -10.28181 -10.28107  -1.16684
 Alpha  occ. eigenvalues --   -1.16081  -1.15611  -1.14915  -1.14510  -1.14093
 Alpha  occ. eigenvalues --   -1.13255  -1.07881  -1.05976  -1.05429  -1.03932
 Alpha  occ. eigenvalues --   -1.03487  -1.03122  -1.02729  -1.01242  -1.01081
 Alpha  occ. eigenvalues --   -0.94906  -0.91056  -0.90157  -0.89696  -0.88203
 Alpha  occ. eigenvalues --   -0.85367  -0.83918  -0.83577  -0.80557  -0.79055
 Alpha  occ. eigenvalues --   -0.78537  -0.76624  -0.75062  -0.72821  -0.71356
 Alpha  occ. eigenvalues --   -0.71029  -0.70471  -0.70327  -0.69843  -0.69554
 Alpha  occ. eigenvalues --   -0.69065  -0.68793  -0.67209  -0.66816  -0.66346
 Alpha  occ. eigenvalues --   -0.66275  -0.65329  -0.63869  -0.63563  -0.62656
 Alpha  occ. eigenvalues --   -0.62013  -0.61302  -0.61248  -0.60573  -0.59866
 Alpha  occ. eigenvalues --   -0.58992  -0.58662  -0.58397  -0.58146  -0.57661
 Alpha  occ. eigenvalues --   -0.56841  -0.56516  -0.56401  -0.55315  -0.55022
 Alpha  occ. eigenvalues --   -0.54945  -0.54515  -0.54141  -0.53949  -0.53098
 Alpha  occ. eigenvalues --   -0.52902  -0.52680  -0.52337  -0.52161  -0.51651
 Alpha  occ. eigenvalues --   -0.51385  -0.51064  -0.50773  -0.50572  -0.49832
 Alpha  occ. eigenvalues --   -0.49641  -0.49444  -0.49002  -0.48509  -0.47882
 Alpha  occ. eigenvalues --   -0.47759  -0.46786  -0.46589  -0.46108  -0.44784
 Alpha  occ. eigenvalues --   -0.44542  -0.44390  -0.43304  -0.43005  -0.41005
 Alpha  occ. eigenvalues --   -0.40056  -0.39723  -0.39239  -0.39015  -0.38762
 Alpha  occ. eigenvalues --   -0.37503  -0.37364  -0.37292  -0.37016  -0.36318
 Alpha  occ. eigenvalues --   -0.36272  -0.35753  -0.35232  -0.34330  -0.34278
 Alpha  occ. eigenvalues --   -0.33865
 Alpha virt. eigenvalues --   -0.11689  -0.10851  -0.10772  -0.09958  -0.09795
 Alpha virt. eigenvalues --   -0.09554  -0.09367  -0.07479  -0.07066  -0.04398
 Alpha virt. eigenvalues --   -0.03335  -0.01967  -0.01725  -0.00887  -0.00332
 Alpha virt. eigenvalues --    0.00497   0.01140   0.01316   0.01666   0.01975
 Alpha virt. eigenvalues --    0.02089   0.02929   0.03089   0.03414   0.03585
 Alpha virt. eigenvalues --    0.04299   0.04579   0.04894   0.04985   0.05297
 Alpha virt. eigenvalues --    0.05560   0.05970   0.06160   0.06602   0.06705
 Alpha virt. eigenvalues --    0.07056   0.07364   0.07772   0.07894   0.08014
 Alpha virt. eigenvalues --    0.08443   0.08626   0.09242   0.09420   0.09977
 Alpha virt. eigenvalues --    0.10189   0.10475   0.10930   0.11683   0.12087
 Alpha virt. eigenvalues --    0.12665   0.12829   0.13177   0.13690   0.14136
 Alpha virt. eigenvalues --    0.14444   0.14663   0.15244   0.15466   0.16301
 Alpha virt. eigenvalues --    0.16692   0.17484   0.17737   0.18275   0.20203
 Alpha virt. eigenvalues --    0.21459   0.21766   0.22980   0.23376   0.23499
 Alpha virt. eigenvalues --    0.24188   0.24467   0.24956   0.26216   0.26662
 Alpha virt. eigenvalues --    0.27313   0.28937   0.29325   0.29801   0.31014
 Alpha virt. eigenvalues --    0.31946   0.32654   0.33389   0.36428   0.36816
 Alpha virt. eigenvalues --    0.37438   0.38084   0.39289   0.39377   0.39816
 Alpha virt. eigenvalues --    0.40737   0.41412   0.42113   0.42728   0.43196
 Alpha virt. eigenvalues --    0.43954   0.44344   0.44884   0.45175   0.46055
 Alpha virt. eigenvalues --    0.46364   0.46515   0.46678   0.46952   0.47361
 Alpha virt. eigenvalues --    0.47593   0.48180   0.48731   0.49170   0.49548
 Alpha virt. eigenvalues --    0.49883   0.50260   0.51294   0.51372   0.51630
 Alpha virt. eigenvalues --    0.52058   0.52428   0.52756   0.53038   0.53170
 Alpha virt. eigenvalues --    0.53473   0.53648   0.54273   0.54459   0.54719
 Alpha virt. eigenvalues --    0.55287   0.55359   0.55704   0.55929   0.56047
 Alpha virt. eigenvalues --    0.56564   0.56735   0.57728   0.57877   0.58465
 Alpha virt. eigenvalues --    0.59087   0.59592   0.60298   0.60941   0.61428
 Alpha virt. eigenvalues --    0.62536   0.62760   0.63257   0.64057   0.64479
 Alpha virt. eigenvalues --    0.64659   0.65987   0.66079   0.66709   0.67521
 Alpha virt. eigenvalues --    0.68192   0.69346   0.69824   0.70112   0.70836
 Alpha virt. eigenvalues --    0.71382   0.71853   0.71902   0.72497   0.72993
 Alpha virt. eigenvalues --    0.73779   0.73877   0.74488   0.74577   0.74883
 Alpha virt. eigenvalues --    0.75164   0.75614   0.75794   0.76154   0.76411
 Alpha virt. eigenvalues --    0.76876   0.77314   0.77521   0.77774   0.78369
 Alpha virt. eigenvalues --    0.78689   0.78805   0.79775   0.80618   0.81080
 Alpha virt. eigenvalues --    0.81369   0.81858   0.82027   0.82332   0.82851
 Alpha virt. eigenvalues --    0.83281   0.83417   0.83524   0.84199   0.84622
 Alpha virt. eigenvalues --    0.85022   0.85162   0.85706   0.85914   0.86676
 Alpha virt. eigenvalues --    0.87496   0.87983   0.88821   0.89322   0.90331
 Alpha virt. eigenvalues --    0.90600   0.91172   0.92339   0.92508   0.93657
 Alpha virt. eigenvalues --    0.94350   0.94707   0.96017   0.96138   0.96719
 Alpha virt. eigenvalues --    0.97398   0.98319   0.99194   0.99974   1.00782
 Alpha virt. eigenvalues --    1.01369   1.01422   1.01891   1.02448   1.03458
 Alpha virt. eigenvalues --    1.04396   1.05169   1.05840   1.07249   1.07393
 Alpha virt. eigenvalues --    1.08207   1.08969   1.09237   1.09699   1.10232
 Alpha virt. eigenvalues --    1.10886   1.11460   1.12571   1.12928   1.14064
 Alpha virt. eigenvalues --    1.14488   1.14989   1.15637   1.16408   1.17078
 Alpha virt. eigenvalues --    1.17657   1.17897   1.18239   1.19294   1.19707
 Alpha virt. eigenvalues --    1.20143   1.21720   1.22771   1.23730   1.24827
 Alpha virt. eigenvalues --    1.25678   1.25978   1.26517   1.27872   1.28592
 Alpha virt. eigenvalues --    1.29120   1.29270   1.30367   1.31269   1.32383
 Alpha virt. eigenvalues --    1.33330   1.33590   1.34091   1.34619   1.34799
 Alpha virt. eigenvalues --    1.35823   1.36760   1.37606   1.38363   1.38562
 Alpha virt. eigenvalues --    1.38962   1.39182   1.39581   1.40603   1.40986
 Alpha virt. eigenvalues --    1.42042   1.42441   1.42711   1.44637   1.45548
 Alpha virt. eigenvalues --    1.46406   1.48033   1.48936   1.49068   1.51035
 Alpha virt. eigenvalues --    1.52828   1.53719   1.53847   1.54235   1.55883
 Alpha virt. eigenvalues --    1.56049   1.56535   1.57184   1.58195   1.58674
 Alpha virt. eigenvalues --    1.60634   1.61382   1.61872   1.62532   1.62778
 Alpha virt. eigenvalues --    1.63135   1.64213   1.64607   1.65763   1.65807
 Alpha virt. eigenvalues --    1.66450   1.67238   1.67779   1.69336   1.69739
 Alpha virt. eigenvalues --    1.69957   1.70454   1.71152   1.71385   1.71901
 Alpha virt. eigenvalues --    1.72411   1.72894   1.73749   1.74040   1.74731
 Alpha virt. eigenvalues --    1.75019   1.75323   1.76028   1.76850   1.77293
 Alpha virt. eigenvalues --    1.77825   1.78233   1.78903   1.79332   1.79622
 Alpha virt. eigenvalues --    1.80159   1.80670   1.81232   1.81699   1.82665
 Alpha virt. eigenvalues --    1.83019   1.83283   1.83809   1.84443   1.84920
 Alpha virt. eigenvalues --    1.85386   1.85696   1.86997   1.88075   1.88506
 Alpha virt. eigenvalues --    1.89143   1.89569   1.90032   1.90316   1.91476
 Alpha virt. eigenvalues --    1.92315   1.93127   1.93373   1.93795   1.94593
 Alpha virt. eigenvalues --    1.95258   1.96287   1.96908   1.97653   1.98394
 Alpha virt. eigenvalues --    1.99245   1.99883   2.00418   2.01326   2.01687
 Alpha virt. eigenvalues --    2.02107   2.02544   2.03915   2.04505   2.05138
 Alpha virt. eigenvalues --    2.05515   2.06381   2.07394   2.08439   2.09510
 Alpha virt. eigenvalues --    2.10392   2.11117   2.11756   2.12139   2.13817
 Alpha virt. eigenvalues --    2.14592   2.14778   2.16058   2.16368   2.17659
 Alpha virt. eigenvalues --    2.18611   2.19084   2.19563   2.19982   2.20631
 Alpha virt. eigenvalues --    2.22461   2.22879   2.23054   2.23826   2.25132
 Alpha virt. eigenvalues --    2.26539   2.26853   2.27840   2.28429   2.28806
 Alpha virt. eigenvalues --    2.30576   2.31061   2.31417   2.32460   2.32521
 Alpha virt. eigenvalues --    2.34273   2.34981   2.36059   2.37536   2.38065
 Alpha virt. eigenvalues --    2.39319   2.39886   2.40356   2.41207   2.41715
 Alpha virt. eigenvalues --    2.44309   2.45241   2.45573   2.46968   2.47870
 Alpha virt. eigenvalues --    2.48721   2.49717   2.50127   2.50712   2.51060
 Alpha virt. eigenvalues --    2.51422   2.52202   2.52624   2.53777   2.54765
 Alpha virt. eigenvalues --    2.55358   2.55820   2.56498   2.56689   2.58156
 Alpha virt. eigenvalues --    2.58995   2.59967   2.60868   2.62647   2.63144
 Alpha virt. eigenvalues --    2.63694   2.64568   2.65794   2.66617   2.67155
 Alpha virt. eigenvalues --    2.67844   2.69841   2.72067   2.73045   2.76322
 Alpha virt. eigenvalues --    2.77397   2.81069   2.83791   2.85104   2.88352
 Alpha virt. eigenvalues --    2.88634   2.89740   2.90315   2.90649   2.91133
 Alpha virt. eigenvalues --    2.91825   2.93265   2.93987   2.96561   2.98340
 Alpha virt. eigenvalues --    2.98711   2.99136   3.03571   3.04061   3.05568
 Alpha virt. eigenvalues --    3.09670   3.31509   3.68462   3.73478   3.75180
 Alpha virt. eigenvalues --    3.80122   3.81806   3.86715   3.90211   3.95783
 Alpha virt. eigenvalues --    3.97264   3.98358   4.00233   4.01737   4.05118
 Alpha virt. eigenvalues --    4.06193   4.07995   4.09867   4.12193   4.12644
 Alpha virt. eigenvalues --    4.14151   4.16687   4.20985   4.22001   4.23670
 Alpha virt. eigenvalues --    4.28174   4.29475   4.31225   4.32330   4.35214
 Alpha virt. eigenvalues --    4.38032   4.39381   4.40336   4.42899   4.48666
 Alpha virt. eigenvalues --    4.51262   4.55104   4.58937   4.62530   4.65010
 Alpha virt. eigenvalues --    4.67988
          Condensed to atoms (all electrons):
 Mulliken charges:
               1
     1  N   -0.813654
     2  C   -0.109916
     3  C    0.630576
     4  O   -0.514620
     5  C   -0.415482
     6  C    0.637989
     7  N   -0.741713
     8  O   -0.534143
     9  H    0.430462
    10  H    0.217081
    11  H    0.218872
    12  H    0.212221
    13  H    0.365981
    14  H    0.357689
    15  H    0.418516
    16  H    0.427466
    17  N   -0.651579
    18  C   -0.081260
    19  C    0.625633
    20  O   -0.555534
    21  C   -0.356062
    22  C    0.173208
    23  C   -0.178975
    24  C   -0.197208
    25  C   -0.138122
    26  C   -0.136890
    27  C   -0.159136
    28  H    0.389850
    29  H    0.220029
    30  H    0.144270
    31  H    0.194919
    32  H    0.152319
    33  H    0.143366
    34  H    0.158255
    35  H    0.152035
    36  H    0.150133
    37  N   -0.632079
    38  C   -0.060643
    39  C    0.642144
    40  O   -0.583266
    41  C   -0.395650
    42  C    0.626600
    43  N   -0.725818
    44  O   -0.560780
    45  H    0.370211
    46  H    0.221297
    47  H    0.217627
    48  H    0.197572
    49  H    0.366327
    50  H    0.367946
    51  N   -0.605621
    52  C   -0.058986
    53  C    0.602477
    54  O   -0.553173
    55  C   -0.301099
    56  C   -0.302023
    57  C   -0.178644
    58  N   -0.592126
    59  C    0.718748
    60  N   -0.767580
    61  N   -0.781022
    62  O   -0.604558
    63  H    0.361116
    64  H    0.169761
    65  H    0.177843
    66  H    0.166062
    67  H    0.166727
    68  H    0.165357
    69  H    0.193993
    70  H    0.174173
    71  H    0.403659
    72  H    0.385835
    73  H    0.386732
    74  H    0.398399
    75  H    0.385886
 Sum of Mulliken charges =   1.00000
 Mulliken charges with hydrogens summed into heavy atoms:
               1
     1  N    0.462791
     2  C    0.107165
     3  C    0.630576
     4  O   -0.514620
     5  C    0.015610
     6  C    0.637989
     7  N   -0.018043
     8  O   -0.534143
    17  N   -0.261729
    18  C    0.138770
    19  C    0.625633
    20  O   -0.555534
    21  C   -0.016873
    22  C    0.173208
    23  C   -0.026656
    24  C   -0.053842
    25  C    0.020132
    26  C    0.015145
    27  C   -0.009004
    37  N   -0.261867
    38  C    0.160654
    39  C    0.642144
    40  O   -0.583266
    41  C    0.019549
    42  C    0.626600
    43  N    0.008455
    44  O   -0.560780
    51  N   -0.244505
    52  C    0.110776
    53  C    0.602477
    54  O   -0.553173
    55  C    0.042806
    56  C    0.030061
    57  C    0.189522
    58  N   -0.188467
    59  C    0.718748
    60  N    0.004987
    61  N    0.003263
    62  O   -0.604558
 Electronic spatial extent (au):  <R**2>=         137007.8605
 Charge=              1.0000 electrons
 Dipole moment (field-independent basis, Debye):
    X=            -38.0703    Y=             -8.4049    Z=            -41.2361  Tot=             56.7486
 Quadrupole moment (field-independent basis, Debye-Ang):
   XX=            100.9426   YY=           -200.3688   ZZ=            230.6993
   XY=             69.9334   XZ=            357.5402   YZ=             87.5393
 Traceless Quadrupole moment (field-independent basis, Debye-Ang):
   XX=             57.1849   YY=           -244.1265   ZZ=            186.9416
   XY=             69.9334   XZ=            357.5402   YZ=             87.5393
 Octapole moment (field-independent basis, Debye-Ang**2):
  XXX=           1808.7521  YYY=            960.3769  ZZZ=            -62.3696  XYY=           1387.1188
  XXY=           -267.6093  XXZ=          -1588.3213  XZZ=          -2434.9745  YZZ=           -724.9326
  YYZ=           1450.4913  XYZ=           -745.2451
 Hexadecapole moment (field-independent basis, Debye-Ang**3):
 XXXX=         -43393.6985 YYYY=          -7716.2537 ZZZZ=         -31486.9491 XXXY=          -2023.2621
 XXXZ=          -4962.5709 YYYX=          -6978.7976 YYYZ=          -8021.3857 ZZZX=           9406.7807
 ZZZY=           4059.1825 XXYY=         -11683.2813 XXZZ=          10592.5979 YYZZ=         -13330.3668
 XXYZ=           3620.3916 YYXZ=         -10183.0978 ZZXY=           6364.0109
 N-N= 5.210430844273D+03 E-N=-1.485991742902D+04  KE= 1.899812243375D+03
 Unable to Open any file for archive entry.
 1\1\GINC-AMR-160\SP\RB3LYP\6-31G(d)\C23H36N9O7(1+)\KENGMITH\03-Jun-202
 2\0\\# B3LYP/6-31G* empiricaldispersion=gd3 guess=read geom=check nosy
 mm integral(ultrafinegrid)\\Candidate Structure: Conf:365 Charge calc 
 in gas phase\\1,1\N,0,-8.7244708472,-3.0809816225,-5.7040995656\C,0,-8
 .5878203331,-1.7393923125,-5.0443336819\C,0,-8.3835875753,-0.573183701
 9,-6.0249028566\O,0,-9.0920702477,0.4221815302,-5.9350241005\C,0,-7.42
 40040839,-1.7919415623,-4.0485712445\C,0,-7.6673417581,-2.8101074099,-
 2.9387086043\N,0,-6.9734594521,-2.5941083698,-1.8024697099\O,0,-8.4287
 538524,-3.7709635128,-3.0914358811\H,0,-7.8309176047,-3.3283685587,-6.
 2316142959\H,0,-9.5286439867,-1.5387031848,-4.5298965104\H,0,-6.499217
 4423,-2.0633682017,-4.5712506422\H,0,-7.2647201433,-0.7911454929,-3.63
 83488266\H,0,-7.048054532,-3.2630033671,-1.0473166191\H,0,-6.355187354
 4,-1.8010257544,-1.6999861602\H,0,-8.8742370239,-3.7540983545,-4.92867
 88006\H,0,-9.4826219134,-3.0765666215,-6.4046020216\N,0,-7.34574292,-0
 .6818395594,-6.9032075246\C,0,-6.7803934539,0.5133961436,-7.5164500049
 \C,0,-6.7428123297,0.4362064408,-9.0504430623\O,0,-5.7087787232,0.7211
 129433,-9.6752191154\C,0,-5.3735262197,0.8058876384,-6.9490212499\C,0,
 -5.3227497498,0.7860392002,-5.4342037315\C,0,-6.1326709331,1.634950249
 2,-4.6641553336\C,0,-4.4515139576,-0.0872504266,-4.7712521216\C,0,-6.0
 673797754,1.6132868798,-3.2703905036\C,0,-4.3750968442,-0.1075232964,-
 3.3755394492\C,0,-5.1839856806,0.7441181741,-2.6196575458\H,0,-6.79133
 07136,-1.5437600061,-6.9274092791\H,0,-7.4657823778,1.3286321225,-7.25
 92134332\H,0,-4.6739573865,0.0612010997,-7.34421344\H,0,-5.0407785748,
 1.7721859694,-7.3428970894\H,0,-6.8244511921,2.3158265348,-5.152629924
 2\H,0,-3.8188385446,-0.7550465973,-5.3512220252\H,0,-6.6973682766,2.28
 32773029,-2.6923134196\H,0,-3.6746896535,-0.7781997971,-2.8849150005\H
 ,0,-5.1125281123,0.7516175064,-1.5348312149\N,0,-7.8606869832,0.082015
 6463,-9.734047084\C,0,-9.1180811729,-0.4941820991,-9.2684957491\C,0,-9
 .0164549592,-1.9803950345,-8.8543551509\O,0,-9.8893634148,-2.459964238
 ,-8.1219245965\C,0,-10.1886902681,-0.3545296153,-10.3734808448\C,0,-9.
 8097199922,-1.0793052702,-11.6677111733\N,0,-10.8121371188,-1.70056906
 73,-12.3182311429\O,0,-8.6462922118,-1.0868587369,-12.0975536915\H,0,-
 7.7420903411,0.0356685788,-10.743486107\H,0,-9.4744582708,0.0369446326
 ,-8.3825759918\H,0,-10.3195171364,0.7084010713,-10.6103388144\H,0,-11.
 1360839194,-0.7255325733,-9.9727368317\H,0,-10.6214898921,-2.121485821
 ,-13.2186988215\H,0,-11.7667439892,-1.6871843781,-11.9890264631\N,0,-7
 .9801823054,-2.6667747006,-9.3708612589\C,0,-7.5925284849,-4.033655894
 3,-9.0196368892\C,0,-6.2727985492,-3.9229654977,-8.1693461814\O,0,-5.1
 872026366,-4.3233365636,-8.6346653746\C,0,-7.5890967607,-4.9998906918,
 -10.2413047255\C,0,-7.4729835679,-4.3955679774,-11.6616257282\C,0,-6.0
 392197385,-4.1619998605,-12.169604117\N,0,-5.1804384873,-3.5061587492,
 -11.1869238105\C,0,-5.040520753,-2.1968385161,-10.9834442142\N,0,-5.55
 83189898,-1.2693027081,-11.8134953634\N,0,-4.3160953426,-1.7880531606,
 -9.9250044761\O,0,-6.4202217203,-3.3520658419,-7.0380469823\H,0,-7.359
 1349632,-2.1444932248,-9.971918674\H,0,-8.3665425999,-4.3796024132,-8.
 3308255516\H,0,-6.8014466879,-5.7439927817,-10.0769705779\H,0,-8.53809
 30001,-5.5441789145,-10.2089544596\H,0,-7.9453631247,-5.0888503881,-12
 .367632512\H,0,-8.0476002695,-3.4659412093,-11.7251877779\H,0,-5.56117
 14085,-5.1216583582,-12.3886995811\H,0,-6.0352961046,-3.5931991038,-13
 .1050281539\H,0,-4.9857782374,-4.072578619,-10.3447420553\H,0,-5.52244
 22903,-0.3031700216,-11.4941325334\H,0,-6.3319599636,-1.5066055556,-12
 .4206389661\H,0,-4.3821212752,-0.8150708933,-9.6414244812\H,0,-4.06192
 16691,-2.4821994558,-9.2283743025\\Version=ES64L-G16RevC.01\HF=-1917.5
 451183\RMSD=1.033e-09\Dipole=-1.4208437,-0.3231243,-1.5022317\Quadrupo
 le=42.5155932,-181.5020809,138.9864877,51.9937657,265.822345,65.083316
 3\PG=C01 [X(C23H36N9O7)]\\@
 The archive entry for this job was punched.


 NEVER LOSE YOUR IGNORANCE, IT CAN'T BE REPLACED.
   -- ANDY CAPP
 Job cpu time:       0 days  0 hours  4 minutes 38.0 seconds.
 Elapsed time:       0 days  0 hours  1 minutes 10.3 seconds.
 File lengths (MBytes):  RWF=    344 Int=      0 D2E=      0 Chk=     48 Scr=     16
 Normal termination of Gaussian 16 at Fri Jun  3 06:01:09 2022.
