 Entering Gaussian System, Link 0=/opt/software/Gaussian/g16-AVX2-C.01/g16/g16
 Input=charge-conf-883.com
 Output=charge-conf-883.log
 Initial command:
 /opt/software/Gaussian/g16-AVX2-C.01/g16/l1.exe "/mnt/gs18/scratch/users/kengmith/Gau-24831.inp" -scrdir="/mnt/gs18/scratch/users/kengmith/"
 Entering Link 1 = /opt/software/Gaussian/g16-AVX2-C.01/g16/l1.exe PID=     24879.
  
 Copyright (c) 1988-2019, Gaussian, Inc.  All Rights Reserved.
  
 This is part of the Gaussian(R) 16 program.  It is based on
 the Gaussian(R) 09 system (copyright 2009, Gaussian, Inc.),
 the Gaussian(R) 03 system (copyright 2003, Gaussian, Inc.),
 the Gaussian(R) 98 system (copyright 1998, Gaussian, Inc.),
 the Gaussian(R) 94 system (copyright 1995, Gaussian, Inc.),
 the Gaussian 92(TM) system (copyright 1992, Gaussian, Inc.),
 the Gaussian 90(TM) system (copyright 1990, Gaussian, Inc.),
 the Gaussian 88(TM) system (copyright 1988, Gaussian, Inc.),
 the Gaussian 86(TM) system (copyright 1986, Carnegie Mellon
 University), and the Gaussian 82(TM) system (copyright 1983,
 Carnegie Mellon University). Gaussian is a federally registered
 trademark of Gaussian, Inc.
  
 This software contains proprietary and confidential information,
 including trade secrets, belonging to Gaussian, Inc.
  
 This software is provided under written license and may be
 used, copied, transmitted, or stored only in accord with that
 written license.
  
 The following legend is applicable only to US Government
 contracts under FAR:
  
                    RESTRICTED RIGHTS LEGEND
  
 Use, reproduction and disclosure by the US Government is
 subject to restrictions as set forth in subparagraphs (a)
 and (c) of the Commercial Computer Software - Restricted
 Rights clause in FAR 52.227-19.
  
 Gaussian, Inc.
 340 Quinnipiac St., Bldg. 40, Wallingford CT 06492
  
  
 ---------------------------------------------------------------
 Warning -- This program may not be used in any manner that
 competes with the business of Gaussian, Inc. or will provide
 assistance to any competitor of Gaussian, Inc.  The licensee
 of this program is prohibited from giving any competitor of
 Gaussian, Inc. access to this program.  By using this program,
 the user acknowledges that Gaussian, Inc. is engaged in the
 business of creating and licensing software in the field of
 computational chemistry and represents and warrants to the
 licensee that it is not a competitor of Gaussian, Inc. and that
 it will not use this program in any manner prohibited above.
 ---------------------------------------------------------------
  

 Cite this work as:
 Gaussian 16, Revision C.01,
 M. J. Frisch, G. W. Trucks, H. B. Schlegel, G. E. Scuseria, 
 M. A. Robb, J. R. Cheeseman, G. Scalmani, V. Barone, 
 G. A. Petersson, H. Nakatsuji, X. Li, M. Caricato, A. V. Marenich, 
 J. Bloino, B. G. Janesko, R. Gomperts, B. Mennucci, H. P. Hratchian, 
 J. V. Ortiz, A. F. Izmaylov, J. L. Sonnenberg, D. Williams-Young, 
 F. Ding, F. Lipparini, F. Egidi, J. Goings, B. Peng, A. Petrone, 
 T. Henderson, D. Ranasinghe, V. G. Zakrzewski, J. Gao, N. Rega, 
 G. Zheng, W. Liang, M. Hada, M. Ehara, K. Toyota, R. Fukuda, 
 J. Hasegawa, M. Ishida, T. Nakajima, Y. Honda, O. Kitao, H. Nakai, 
 T. Vreven, K. Throssell, J. A. Montgomery, Jr., J. E. Peralta, 
 F. Ogliaro, M. J. Bearpark, J. J. Heyd, E. N. Brothers, K. N. Kudin, 
 V. N. Staroverov, T. A. Keith, R. Kobayashi, J. Normand, 
 K. Raghavachari, A. P. Rendell, J. C. Burant, S. S. Iyengar, 
 J. Tomasi, M. Cossi, J. M. Millam, M. Klene, C. Adamo, R. Cammi, 
 J. W. Ochterski, R. L. Martin, K. Morokuma, O. Farkas, 
 J. B. Foresman, and D. J. Fox, Gaussian, Inc., Wallingford CT, 2019.
 
 ******************************************
 Gaussian 16:  ES64L-G16RevC.01  3-Jul-2019
                 3-Jun-2022 
 ******************************************
 %mem=8gb
 %nproc=4
 Will use up to    4 processors via shared memory.
 %chk=conf-883.chk
 ----------------------------------------------------------------------
 # B3LYP/6-31G* empiricaldispersion=gd3 guess=read geom=check nosymm in
 tegral(ultrafinegrid)
 ----------------------------------------------------------------------
 1/29=2,38=1,172=1/1;
 2/12=2,15=1,40=1/2;
 3/5=1,6=6,7=1,11=2,14=-4,25=1,30=1,74=-5,75=-5,116=-2,124=31/1,2,3;
 4/5=1/1;
 5/5=2,38=6/2;
 6/7=2,8=2,9=2,10=2,28=1/1;
 99/5=1,9=1/99;
 ------------------------------------------------------
 Candidate Structure: Conf:883 Charge calc in gas phase
 ------------------------------------------------------
 Structure from the checkpoint file:  "conf-883.chk"
 Charge =  1 Multiplicity = 1
 Redundant internal coordinates found in file.  (old form).
 N,0,-9.3265422583,-2.546468,-9.5467917273
 C,0,-9.7847095877,-3.0601882989,-8.2131349649
 C,0,-9.2959869037,-2.2308665394,-7.0139168331
 O,0,-10.1053568993,-1.8461398491,-6.1791368161
 C,0,-9.334772262,-4.5171406261,-8.0626377539
 C,0,-9.9554858672,-5.4189035992,-9.1256444782
 N,0,-10.0003820781,-6.728952484,-8.807835386
 O,0,-10.3614847717,-4.9723163528,-10.2035507639
 H,0,-9.7590768077,-3.1786034796,-10.2465528418
 H,0,-10.8732288305,-2.9889859715,-8.2003544996
 H,0,-8.2437929306,-4.5814795999,-8.148458675
 H,0,-9.5864981661,-4.8635686706,-7.0567472346
 H,0,-10.3491011032,-7.3878235954,-9.4915517142
 H,0,-9.6577251136,-7.0723580245,-7.9209904439
 H,0,-9.5792143375,-1.5536143947,-9.6701430548
 H,0,-8.2619744723,-2.6004481153,-9.6210294216
 N,0,-7.9491573465,-2.0344455724,-6.8987360402
 C,0,-7.3732638617,-1.7301826952,-5.5931060915
 C,0,-6.5529489409,-0.4304157622,-5.5558533051
 O,0,-5.4844870782,-0.3819609274,-4.9301387629
 C,0,-6.5220341387,-2.9166459679,-5.0861038883
 C,0,-7.2449495224,-4.2465511942,-5.1537788986
 C,0,-8.4510347088,-4.4558899025,-4.4673625794
 C,0,-6.7106111532,-5.3022835924,-5.9026717475
 C,0,-9.0995224028,-5.6901707409,-4.5236918591
 C,0,-7.3511115365,-6.5437940587,-5.9561634787
 C,0,-8.5487446179,-6.741952721,-5.2653302096
 H,0,-7.3284786434,-2.4097681428,-7.6217147719
 H,0,-8.2283798539,-1.5726216119,-4.9256084852
 H,0,-5.6059546898,-2.9703588611,-5.685655874
 H,0,-6.2036211196,-2.6929357336,-4.0630337406
 H,0,-8.8902398751,-3.6508634787,-3.8840614176
 H,0,-5.7802407923,-5.1562756906,-6.4464301751
 H,0,-10.027652745,-5.8355346794,-3.9783433093
 H,0,-6.9055017938,-7.35468964,-6.526121294
 H,0,-9.0387253617,-7.7124350949,-5.2808174752
 N,0,-7.0078261004,0.6827255289,-6.1893985244
 C,0,-8.1895548266,0.9078205366,-7.0142836288
 C,0,-8.0678197841,0.3757601889,-8.4572557921
 O,0,-9.0995818933,0.1635166361,-9.1048874419
 C,0,-8.500937511,2.4212738262,-7.0723902499
 C,0,-7.3685499747,3.2294192776,-7.7090173311
 N,0,-7.7309033773,4.1716807804,-8.6002550117
 O,0,-6.1811407664,3.025150274,-7.4156846254
 H,0,-6.3839871947,1.4825748412,-6.13120212
 H,0,-9.0557783797,0.400138051,-6.5830942975
 H,0,-8.6491044807,2.7956211434,-6.0524356651
 H,0,-9.4408002907,2.5494322594,-7.6160287135
 H,0,-7.0182271561,4.7785940564,-8.9852906164
 H,0,-8.695746917,4.3621149814,-8.8296062876
 N,0,-6.8159830585,0.2279041379,-8.9321233745
 C,0,-6.4755085059,-0.4422066996,-10.1943230903
 C,0,-5.8308695675,-1.8131478826,-9.7837649663
 O,0,-4.5885997767,-1.9492667272,-9.7742728046
 C,0,-5.7759654674,0.5047899105,-11.1961842955
 C,0,-4.3242878311,1.0076215564,-11.0254801663
 C,0,-3.9036397116,1.5236558483,-9.6400325452
 N,0,-3.6873598886,0.3440767483,-8.8006709151
 C,0,-3.6852487248,0.2348213335,-7.4779393957
 N,0,-3.7727765114,1.3018512172,-6.6613117989
 N,0,-3.5530473295,-1.00032366,-6.9477043295
 O,0,-6.6645879795,-2.6875168067,-9.3773702914
 H,0,-6.0643505105,0.4289202934,-8.2893854326
 H,0,-7.4402278707,-0.6723845345,-10.6514441719
 H,0,-5.8243663206,0.013708748,-12.1755006833
 H,0,-6.4383104254,1.3779214411,-11.2617224016
 H,0,-3.6205567962,0.2209382294,-11.3199530004
 H,0,-4.1847181228,1.8218803442,-11.7448521013
 H,0,-2.9726141876,2.0971903014,-9.7173637556
 H,0,-4.6704739356,2.1786889285,-9.206865537
 H,0,-3.788392962,-0.5561587162,-9.3066426798
 H,0,-4.0212334211,1.1103295678,-5.695051271
 H,0,-4.1217887321,2.1763707583,-7.0354120178
 H,0,-3.889247313,-1.1431946764,-6.0003980854
 H,0,-3.6259846058,-1.7858808641,-7.5874480008
 Recover connectivity data from disk.
                           ----------------------------
                           !    Current Parameters    !
                           ! (Angstroms and Degrees)  !
 --------------------------                            --------------------------
 ! Name  Definition              Value                                          !
 --------------------------------------------------------------------------------
 ! R1    R(1,2)                  1.5008                                         !
 ! R2    R(1,9)                  1.0375                                         !
 ! R3    R(1,15)                 1.0319                                         !
 ! R4    R(1,16)                 1.0685                                         !
 ! R5    R(2,3)                  1.5378                                         !
 ! R6    R(2,5)                  1.5323                                         !
 ! R7    R(2,10)                 1.0909                                         !
 ! R8    R(3,4)                  1.2247                                         !
 ! R9    R(3,17)                 1.3659                                         !
 ! R10   R(5,6)                  1.5259                                         !
 ! R11   R(5,11)                 1.0962                                         !
 ! R12   R(5,12)                 1.0932                                         !
 ! R13   R(6,7)                  1.3488                                         !
 ! R14   R(6,8)                  1.2354                                         !
 ! R15   R(7,13)                 1.0115                                         !
 ! R16   R(7,14)                 1.0109                                         !
 ! R17   R(17,18)                1.4591                                         !
 ! R18   R(17,28)                1.0241                                         !
 ! R19   R(18,19)                1.5374                                         !
 ! R20   R(18,21)                1.5457                                         !
 ! R21   R(18,29)                1.0962                                         !
 ! R22   R(19,20)                1.2391                                         !
 ! R23   R(19,37)                1.3592                                         !
 ! R24   R(21,22)                1.5152                                         !
 ! R25   R(21,30)                1.0962                                         !
 ! R26   R(21,31)                1.0946                                         !
 ! R27   R(22,23)                1.4034                                         !
 ! R28   R(22,24)                1.4003                                         !
 ! R29   R(23,25)                1.3954                                         !
 ! R30   R(23,32)                1.0868                                         !
 ! R31   R(24,26)                1.398                                          !
 ! R32   R(24,33)                1.0875                                         !
 ! R33   R(25,27)                1.3999                                         !
 ! R34   R(25,34)                1.0863                                         !
 ! R35   R(26,27)                1.3967                                         !
 ! R36   R(26,35)                1.0867                                         !
 ! R37   R(27,36)                1.0873                                         !
 ! R38   R(37,38)                1.4586                                         !
 ! R39   R(37,45)                1.016                                          !
 ! R40   R(38,39)                1.5427                                         !
 ! R41   R(38,41)                1.5462                                         !
 ! R42   R(38,46)                1.0927                                         !
 ! R43   R(39,40)                1.2365                                         !
 ! R44   R(39,51)                1.347                                          !
 ! R45   R(41,42)                1.5299                                         !
 ! R46   R(41,47)                1.0965                                         !
 ! R47   R(41,48)                1.0933                                         !
 ! R48   R(42,43)                1.3466                                         !
 ! R49   R(42,44)                1.24                                           !
 ! R50   R(43,49)                1.0122                                         !
 ! R51   R(43,50)                1.0098                                         !
 ! R52   R(51,52)                1.4691                                         !
 ! R53   R(51,63)                1.0092                                         !
 ! R54   R(52,53)                1.5696                                         !
 ! R55   R(52,55)                1.5459                                         !
 ! R56   R(52,64)                1.0921                                         !
 ! R57   R(53,54)                1.2497                                         !
 ! R58   R(53,62)                1.2747                                         !
 ! R59   R(55,56)                1.5458                                         !
 ! R60   R(55,65)                1.0966                                         !
 ! R61   R(55,66)                1.0979                                         !
 ! R62   R(56,57)                1.5371                                         !
 ! R63   R(56,67)                1.0958                                         !
 ! R64   R(56,68)                1.0954                                         !
 ! R65   R(57,58)                1.4638                                         !
 ! R66   R(57,69)                1.0962                                         !
 ! R67   R(57,70)                1.0976                                         !
 ! R68   R(58,59)                1.3272                                         !
 ! R69   R(58,71)                1.0376                                         !
 ! R70   R(59,60)                1.3465                                         !
 ! R71   R(59,61)                1.3506                                         !
 ! R72   R(60,72)                1.0159                                         !
 ! R73   R(60,73)                1.0132                                         !
 ! R74   R(61,74)                1.0153                                         !
 ! R75   R(61,75)                1.0157                                         !
 ! A1    A(2,1,9)              105.2794                                         !
 ! A2    A(2,1,15)             111.1502                                         !
 ! A3    A(2,1,16)             110.4014                                         !
 ! A4    A(9,1,15)             113.7994                                         !
 ! A5    A(9,1,16)             109.7385                                         !
 ! A6    A(15,1,16)            106.5145                                         !
 ! A7    A(1,2,3)              114.2903                                         !
 ! A8    A(1,2,5)              108.851                                          !
 ! A9    A(1,2,10)             107.0182                                         !
 ! A10   A(3,2,5)              110.0523                                         !
 ! A11   A(3,2,10)             105.8296                                         !
 ! A12   A(5,2,10)             110.7265                                         !
 ! A13   A(2,3,4)              119.4015                                         !
 ! A14   A(2,3,17)             117.1727                                         !
 ! A15   A(4,3,17)             123.296                                          !
 ! A16   A(2,5,6)              111.9655                                         !
 ! A17   A(2,5,11)             109.8983                                         !
 ! A18   A(2,5,12)             108.9089                                         !
 ! A19   A(6,5,11)             108.3974                                         !
 ! A20   A(6,5,12)             111.1026                                         !
 ! A21   A(11,5,12)            106.4144                                         !
 ! A22   A(5,6,7)              115.0483                                         !
 ! A23   A(5,6,8)              121.8628                                         !
 ! A24   A(7,6,8)              123.0769                                         !
 ! A25   A(6,7,13)             119.0035                                         !
 ! A26   A(6,7,14)             121.6947                                         !
 ! A27   A(13,7,14)            119.2475                                         !
 ! A28   A(3,17,18)            119.6445                                         !
 ! A29   A(3,17,28)            119.0358                                         !
 ! A30   A(18,17,28)           117.9645                                         !
 ! A31   A(17,18,19)           114.1152                                         !
 ! A32   A(17,18,21)           110.5362                                         !
 ! A33   A(17,18,29)           105.4839                                         !
 ! A34   A(19,18,21)           110.3122                                         !
 ! A35   A(19,18,29)           106.2575                                         !
 ! A36   A(21,18,29)           109.8883                                         !
 ! A37   A(18,19,20)           120.3554                                         !
 ! A38   A(18,19,37)           120.1665                                         !
 ! A39   A(20,19,37)           119.4668                                         !
 ! A40   A(18,21,22)           113.3477                                         !
 ! A41   A(18,21,30)           108.5683                                         !
 ! A42   A(18,21,31)           108.0526                                         !
 ! A43   A(22,21,30)           109.3472                                         !
 ! A44   A(22,21,31)           111.0955                                         !
 ! A45   A(30,21,31)           106.1487                                         !
 ! A46   A(21,22,23)           121.2714                                         !
 ! A47   A(21,22,24)           120.2351                                         !
 ! A48   A(23,22,24)           118.4919                                         !
 ! A49   A(22,23,25)           120.7688                                         !
 ! A50   A(22,23,32)           119.9537                                         !
 ! A51   A(25,23,32)           119.2775                                         !
 ! A52   A(22,24,26)           121.008                                          !
 ! A53   A(22,24,33)           119.5145                                         !
 ! A54   A(26,24,33)           119.4765                                         !
 ! A55   A(23,25,27)           120.207                                          !
 ! A56   A(23,25,34)           119.6817                                         !
 ! A57   A(27,25,34)           120.1064                                         !
 ! A58   A(24,26,27)           119.994                                          !
 ! A59   A(24,26,35)           119.6601                                         !
 ! A60   A(27,26,35)           120.3409                                         !
 ! A61   A(25,27,26)           119.5255                                         !
 ! A62   A(25,27,36)           120.058                                          !
 ! A63   A(26,27,36)           120.398                                          !
 ! A64   A(19,37,38)           131.3858                                         !
 ! A65   A(19,37,45)           114.3644                                         !
 ! A66   A(38,37,45)           114.1009                                         !
 ! A67   A(37,38,39)           114.3178                                         !
 ! A68   A(37,38,41)           109.5999                                         !
 ! A69   A(37,38,46)           110.3276                                         !
 ! A70   A(39,38,41)           108.5605                                         !
 ! A71   A(39,38,46)           105.7478                                         !
 ! A72   A(41,38,46)           108.0559                                         !
 ! A73   A(38,39,40)           118.8967                                         !
 ! A74   A(38,39,51)           116.1626                                         !
 ! A75   A(40,39,51)           124.8872                                         !
 ! A76   A(38,41,42)           112.5572                                         !
 ! A77   A(38,41,47)           109.0508                                         !
 ! A78   A(38,41,48)           107.8508                                         !
 ! A79   A(42,41,47)           107.8625                                         !
 ! A80   A(42,41,48)           111.5583                                         !
 ! A81   A(47,41,48)           107.8388                                         !
 ! A82   A(41,42,43)           116.4768                                         !
 ! A83   A(41,42,44)           121.5534                                         !
 ! A84   A(43,42,44)           121.9697                                         !
 ! A85   A(42,43,49)           118.8065                                         !
 ! A86   A(42,43,50)           122.6391                                         !
 ! A87   A(49,43,50)           118.2458                                         !
 ! A88   A(39,51,52)           124.6353                                         !
 ! A89   A(39,51,63)           116.4728                                         !
 ! A90   A(52,51,63)           117.7393                                         !
 ! A91   A(51,52,53)           105.597                                          !
 ! A92   A(51,52,55)           112.4738                                         !
 ! A93   A(51,52,64)           104.5395                                         !
 ! A94   A(53,52,55)           121.2462                                         !
 ! A95   A(53,52,64)           106.7504                                         !
 ! A96   A(55,52,64)           104.9267                                         !
 ! A97   A(52,53,54)           120.356                                          !
 ! A98   A(52,53,62)           114.4508                                         !
 ! A99   A(54,53,62)           124.9614                                         !
 ! A100  A(52,55,56)           123.5503                                         !
 ! A101  A(52,55,65)           106.5261                                         !
 ! A102  A(52,55,66)           104.6471                                         !
 ! A103  A(56,55,65)           106.6035                                         !
 ! A104  A(56,55,66)           108.3283                                         !
 ! A105  A(65,55,66)           106.0338                                         !
 ! A106  A(55,56,57)           117.759                                          !
 ! A107  A(55,56,67)           109.8711                                         !
 ! A108  A(55,56,68)           106.7941                                         !
 ! A109  A(57,56,67)           107.9071                                         !
 ! A110  A(57,56,68)           107.9081                                         !
 ! A111  A(67,56,68)           105.9817                                         !
 ! A112  A(56,57,58)           106.6628                                         !
 ! A113  A(56,57,69)           110.15                                           !
 ! A114  A(56,57,70)           111.3995                                         !
 ! A115  A(58,57,69)           109.6678                                         !
 ! A116  A(58,57,70)           110.9675                                         !
 ! A117  A(69,57,70)           107.9968                                         !
 ! A118  A(57,58,59)           129.6455                                         !
 ! A119  A(57,58,71)           113.9001                                         !
 ! A120  A(59,58,71)           114.5011                                         !
 ! A121  A(58,59,60)           122.6212                                         !
 ! A122  A(58,59,61)           117.8193                                         !
 ! A123  A(60,59,61)           119.5348                                         !
 ! A124  A(59,60,72)           116.3173                                         !
 ! A125  A(59,60,73)           118.8453                                         !
 ! A126  A(72,60,73)           115.4461                                         !
 ! A127  A(59,61,74)           117.5528                                         !
 ! A128  A(59,61,75)           116.9346                                         !
 ! A129  A(74,61,75)           117.0683                                         !
 ! D1    D(9,1,2,3)           -177.9387                                         !
 ! D2    D(9,1,2,5)             58.5852                                         !
 ! D3    D(9,1,2,10)           -61.1236                                         !
 ! D4    D(15,1,2,3)           -54.2814                                         !
 ! D5    D(15,1,2,5)          -177.7574                                         !
 ! D6    D(15,1,2,10)           62.5337                                         !
 ! D7    D(16,1,2,3)            63.6929                                         !
 ! D8    D(16,1,2,5)           -59.7831                                         !
 ! D9    D(16,1,2,10)         -179.492                                          !
 ! D10   D(1,2,3,4)            128.8359                                         !
 ! D11   D(1,2,3,17)           -55.1677                                         !
 ! D12   D(5,2,3,4)           -108.3376                                         !
 ! D13   D(5,2,3,17)            67.6588                                         !
 ! D14   D(10,2,3,4)            11.3378                                         !
 ! D15   D(10,2,3,17)         -172.6658                                         !
 ! D16   D(1,2,5,6)            -61.8968                                         !
 ! D17   D(1,2,5,11)            58.6276                                         !
 ! D18   D(1,2,5,12)           174.8374                                         !
 ! D19   D(3,2,5,6)            172.1343                                         !
 ! D20   D(3,2,5,11)           -67.3413                                         !
 ! D21   D(3,2,5,12)            48.8685                                         !
 ! D22   D(10,2,5,6)            55.4811                                         !
 ! D23   D(10,2,5,11)          176.0055                                         !
 ! D24   D(10,2,5,12)          -67.7848                                         !
 ! D25   D(2,3,17,18)         -156.6467                                         !
 ! D26   D(2,3,17,28)            2.2656                                         !
 ! D27   D(4,3,17,18)           19.18                                           !
 ! D28   D(4,3,17,28)          178.0924                                         !
 ! D29   D(2,5,6,7)           -157.9157                                         !
 ! D30   D(2,5,6,8)             23.3062                                         !
 ! D31   D(11,5,6,7)            80.6911                                         !
 ! D32   D(11,5,6,8)           -98.0869                                         !
 ! D33   D(12,5,6,7)           -35.8968                                         !
 ! D34   D(12,5,6,8)           145.3252                                         !
 ! D35   D(5,6,7,13)          -176.38                                           !
 ! D36   D(5,6,7,14)             0.9194                                         !
 ! D37   D(8,6,7,13)             2.3815                                         !
 ! D38   D(8,6,7,14)           179.6808                                         !
 ! D39   D(3,17,18,19)        -124.3524                                         !
 ! D40   D(3,17,18,21)         110.6301                                         !
 ! D41   D(3,17,18,29)          -8.1029                                         !
 ! D42   D(28,17,18,19)         76.5122                                         !
 ! D43   D(28,17,18,21)        -48.5053                                         !
 ! D44   D(28,17,18,29)       -167.2382                                         !
 ! D45   D(17,18,19,20)       -138.9395                                         !
 ! D46   D(17,18,19,37)         42.292                                          !
 ! D47   D(21,18,19,20)        -13.8032                                         !
 ! D48   D(21,18,19,37)        167.4283                                         !
 ! D49   D(29,18,19,20)        105.2614                                         !
 ! D50   D(29,18,19,37)        -73.5071                                         !
 ! D51   D(17,18,21,22)        -50.2011                                         !
 ! D52   D(17,18,21,30)         71.5113                                         !
 ! D53   D(17,18,21,31)       -173.775                                          !
 ! D54   D(19,18,21,22)       -177.3502                                         !
 ! D55   D(19,18,21,30)        -55.6378                                         !
 ! D56   D(19,18,21,31)         59.0759                                         !
 ! D57   D(29,18,21,22)         65.8189                                         !
 ! D58   D(29,18,21,30)       -172.4687                                         !
 ! D59   D(29,18,21,31)        -57.755                                          !
 ! D60   D(18,19,37,38)         -3.0629                                         !
 ! D61   D(18,19,37,45)       -178.2901                                         !
 ! D62   D(20,19,37,38)        178.1576                                         !
 ! D63   D(20,19,37,45)          2.9305                                         !
 ! D64   D(18,21,22,23)        -59.009                                          !
 ! D65   D(18,21,22,24)        121.4476                                         !
 ! D66   D(30,21,22,23)        179.7153                                         !
 ! D67   D(30,21,22,24)          0.1719                                         !
 ! D68   D(31,21,22,23)         62.8814                                         !
 ! D69   D(31,21,22,24)       -116.662                                          !
 ! D70   D(21,22,23,25)       -179.2054                                         !
 ! D71   D(21,22,23,32)          0.8372                                         !
 ! D72   D(24,22,23,25)          0.3458                                         !
 ! D73   D(24,22,23,32)       -179.6116                                         !
 ! D74   D(21,22,24,26)        178.7988                                         !
 ! D75   D(21,22,24,33)         -0.8454                                         !
 ! D76   D(23,22,24,26)         -0.7571                                         !
 ! D77   D(23,22,24,33)        179.5987                                         !
 ! D78   D(22,23,25,27)          0.2649                                         !
 ! D79   D(22,23,25,34)        179.4553                                         !
 ! D80   D(32,23,25,27)       -179.7774                                         !
 ! D81   D(32,23,25,34)         -0.587                                          !
 ! D82   D(22,24,26,27)          0.557                                          !
 ! D83   D(22,24,26,35)       -178.6339                                         !
 ! D84   D(33,24,26,27)       -179.7986                                         !
 ! D85   D(33,24,26,35)          1.0104                                         !
 ! D86   D(23,25,27,26)         -0.473                                          !
 ! D87   D(23,25,27,36)        177.9701                                         !
 ! D88   D(34,25,27,26)       -179.66                                           !
 ! D89   D(34,25,27,36)         -1.2169                                         !
 ! D90   D(24,26,27,25)          0.0669                                         !
 ! D91   D(24,26,27,36)       -178.3708                                         !
 ! D92   D(35,26,27,25)        179.2523                                         !
 ! D93   D(35,26,27,36)          0.8146                                         !
 ! D94   D(19,37,38,39)        -77.7447                                         !
 ! D95   D(19,37,38,41)        160.1356                                         !
 ! D96   D(19,37,38,46)         41.2689                                         !
 ! D97   D(45,37,38,39)         97.4924                                         !
 ! D98   D(45,37,38,41)        -24.6274                                         !
 ! D99   D(45,37,38,46)       -143.4941                                         !
 ! D100  D(37,38,39,40)        159.382                                          !
 ! D101  D(37,38,39,51)        -23.148                                          !
 ! D102  D(41,38,39,40)        -77.9318                                         !
 ! D103  D(41,38,39,51)         99.5382                                         !
 ! D104  D(46,38,39,40)         37.8144                                         !
 ! D105  D(46,38,39,51)       -144.7157                                         !
 ! D106  D(37,38,41,42)         61.7717                                         !
 ! D107  D(37,38,41,47)        -57.8868                                         !
 ! D108  D(37,38,41,48)       -174.7389                                         !
 ! D109  D(39,38,41,42)        -63.726                                          !
 ! D110  D(39,38,41,47)        176.6155                                         !
 ! D111  D(39,38,41,48)         59.7635                                         !
 ! D112  D(46,38,41,42)       -177.9675                                         !
 ! D113  D(46,38,41,47)         62.374                                          !
 ! D114  D(46,38,41,48)        -54.4781                                         !
 ! D115  D(38,39,51,52)        170.6278                                         !
 ! D116  D(38,39,51,63)          3.2179                                         !
 ! D117  D(40,39,51,52)        -12.0726                                         !
 ! D118  D(40,39,51,63)       -179.4825                                         !
 ! D119  D(38,41,42,43)        135.8276                                         !
 ! D120  D(38,41,42,44)        -44.2508                                         !
 ! D121  D(47,41,42,43)       -103.827                                          !
 ! D122  D(47,41,42,44)         76.0945                                         !
 ! D123  D(48,41,42,43)         14.4274                                         !
 ! D124  D(48,41,42,44)       -165.651                                          !
 ! D125  D(41,42,43,49)        174.9795                                         !
 ! D126  D(41,42,43,50)          1.4758                                         !
 ! D127  D(44,42,43,49)         -4.9417                                         !
 ! D128  D(44,42,43,50)       -178.4454                                         !
 ! D129  D(39,51,52,53)       -107.0631                                         !
 ! D130  D(39,51,52,55)        118.6472                                         !
 ! D131  D(39,51,52,64)          5.3648                                         !
 ! D132  D(63,51,52,53)         60.2012                                         !
 ! D133  D(63,51,52,55)        -74.0885                                         !
 ! D134  D(63,51,52,64)        172.629                                          !
 ! D135  D(51,52,53,54)        -99.5337                                         !
 ! D136  D(51,52,53,62)         75.2044                                         !
 ! D137  D(55,52,53,54)         29.7808                                         !
 ! D138  D(55,52,53,62)       -155.4811                                         !
 ! D139  D(64,52,53,54)        149.5986                                         !
 ! D140  D(64,52,53,62)        -35.6633                                         !
 ! D141  D(51,52,55,56)         72.0862                                         !
 ! D142  D(51,52,55,65)       -164.2441                                         !
 ! D143  D(51,52,55,66)        -52.1994                                         !
 ! D144  D(53,52,55,56)        -54.1646                                         !
 ! D145  D(53,52,55,65)         69.5051                                         !
 ! D146  D(53,52,55,66)       -178.4502                                         !
 ! D147  D(64,52,55,56)       -174.8693                                         !
 ! D148  D(64,52,55,65)        -51.1995                                         !
 ! D149  D(64,52,55,66)         60.8452                                         !
 ! D150  D(52,55,56,57)        -46.0278                                         !
 ! D151  D(52,55,56,67)         78.0064                                         !
 ! D152  D(52,55,56,68)       -167.4815                                         !
 ! D153  D(65,55,56,57)       -169.663                                          !
 ! D154  D(65,55,56,67)        -45.6288                                         !
 ! D155  D(65,55,56,68)         68.8833                                         !
 ! D156  D(66,55,56,57)         76.6087                                         !
 ! D157  D(66,55,56,67)       -159.3571                                         !
 ! D158  D(66,55,56,68)        -44.8451                                         !
 ! D159  D(55,56,57,58)         76.7989                                         !
 ! D160  D(55,56,57,69)       -164.2509                                         !
 ! D161  D(55,56,57,70)        -44.4311                                         !
 ! D162  D(67,56,57,58)        -48.2123                                         !
 ! D163  D(67,56,57,69)         70.7379                                         !
 ! D164  D(67,56,57,70)       -169.4423                                         !
 ! D165  D(68,56,57,58)       -162.3228                                         !
 ! D166  D(68,56,57,69)        -43.3726                                         !
 ! D167  D(68,56,57,70)         76.4472                                         !
 ! D168  D(56,57,58,59)       -158.8804                                         !
 ! D169  D(56,57,58,71)          4.1156                                         !
 ! D170  D(69,57,58,59)         81.8557                                         !
 ! D171  D(69,57,58,71)       -115.1484                                         !
 ! D172  D(70,57,58,59)        -37.3758                                         !
 ! D173  D(70,57,58,71)        125.6201                                         !
 ! D174  D(57,58,59,60)         -6.501                                          !
 ! D175  D(57,58,59,61)        175.3198                                         !
 ! D176  D(71,58,59,60)       -169.4141                                         !
 ! D177  D(71,58,59,61)         12.4067                                         !
 ! D178  D(58,59,60,72)        163.5442                                         !
 ! D179  D(58,59,60,73)         18.4928                                         !
 ! D180  D(61,59,60,72)        -18.3066                                         !
 ! D181  D(61,59,60,73)       -163.3581                                         !
 ! D182  D(58,59,61,74)       -157.6185                                         !
 ! D183  D(58,59,61,75)        -10.3932                                         !
 ! D184  D(60,59,61,74)         24.1441                                         !
 ! D185  D(60,59,61,75)        171.3694                                         !
 --------------------------------------------------------------------------------
 Symmetry turned off by external request.
 Stoichiometry    C23H36N9O7(1+)
 Framework group  C1[X(C23H36N9O7)]
 Deg. of freedom   219
 Full point group                 C1      NOp   1
                          Input orientation:                          
 ---------------------------------------------------------------------
 Center     Atomic      Atomic             Coordinates (Angstroms)
 Number     Number       Type             X           Y           Z
 ---------------------------------------------------------------------
      1          7           0       -9.326542   -2.546468   -9.546792
      2          6           0       -9.784710   -3.060188   -8.213135
      3          6           0       -9.295987   -2.230867   -7.013917
      4          8           0      -10.105357   -1.846140   -6.179137
      5          6           0       -9.334772   -4.517141   -8.062638
      6          6           0       -9.955486   -5.418904   -9.125644
      7          7           0      -10.000382   -6.728952   -8.807835
      8          8           0      -10.361485   -4.972316  -10.203551
      9          1           0       -9.759077   -3.178603  -10.246553
     10          1           0      -10.873229   -2.988986   -8.200354
     11          1           0       -8.243793   -4.581480   -8.148459
     12          1           0       -9.586498   -4.863569   -7.056747
     13          1           0      -10.349101   -7.387824   -9.491552
     14          1           0       -9.657725   -7.072358   -7.920990
     15          1           0       -9.579214   -1.553614   -9.670143
     16          1           0       -8.261974   -2.600448   -9.621029
     17          7           0       -7.949157   -2.034446   -6.898736
     18          6           0       -7.373264   -1.730183   -5.593106
     19          6           0       -6.552949   -0.430416   -5.555853
     20          8           0       -5.484487   -0.381961   -4.930139
     21          6           0       -6.522034   -2.916646   -5.086104
     22          6           0       -7.244950   -4.246551   -5.153779
     23          6           0       -8.451035   -4.455890   -4.467363
     24          6           0       -6.710611   -5.302284   -5.902672
     25          6           0       -9.099522   -5.690171   -4.523692
     26          6           0       -7.351112   -6.543794   -5.956163
     27          6           0       -8.548745   -6.741953   -5.265330
     28          1           0       -7.328479   -2.409768   -7.621715
     29          1           0       -8.228380   -1.572622   -4.925608
     30          1           0       -5.605955   -2.970359   -5.685656
     31          1           0       -6.203621   -2.692936   -4.063034
     32          1           0       -8.890240   -3.650863   -3.884061
     33          1           0       -5.780241   -5.156276   -6.446430
     34          1           0      -10.027653   -5.835535   -3.978343
     35          1           0       -6.905502   -7.354690   -6.526121
     36          1           0       -9.038725   -7.712435   -5.280817
     37          7           0       -7.007826    0.682726   -6.189399
     38          6           0       -8.189555    0.907821   -7.014284
     39          6           0       -8.067820    0.375760   -8.457256
     40          8           0       -9.099582    0.163517   -9.104887
     41          6           0       -8.500938    2.421274   -7.072390
     42          6           0       -7.368550    3.229419   -7.709017
     43          7           0       -7.730903    4.171681   -8.600255
     44          8           0       -6.181141    3.025150   -7.415685
     45          1           0       -6.383987    1.482575   -6.131202
     46          1           0       -9.055778    0.400138   -6.583094
     47          1           0       -8.649104    2.795621   -6.052436
     48          1           0       -9.440800    2.549432   -7.616029
     49          1           0       -7.018227    4.778594   -8.985291
     50          1           0       -8.695747    4.362115   -8.829606
     51          7           0       -6.815983    0.227904   -8.932123
     52          6           0       -6.475509   -0.442207  -10.194323
     53          6           0       -5.830870   -1.813148   -9.783765
     54          8           0       -4.588600   -1.949267   -9.774273
     55          6           0       -5.775965    0.504790  -11.196184
     56          6           0       -4.324288    1.007622  -11.025480
     57          6           0       -3.903640    1.523656   -9.640033
     58          7           0       -3.687360    0.344077   -8.800671
     59          6           0       -3.685249    0.234821   -7.477939
     60          7           0       -3.772777    1.301851   -6.661312
     61          7           0       -3.553047   -1.000324   -6.947704
     62          8           0       -6.664588   -2.687517   -9.377370
     63          1           0       -6.064351    0.428920   -8.289385
     64          1           0       -7.440228   -0.672385  -10.651444
     65          1           0       -5.824366    0.013709  -12.175501
     66          1           0       -6.438310    1.377921  -11.261722
     67          1           0       -3.620557    0.220938  -11.319953
     68          1           0       -4.184718    1.821880  -11.744852
     69          1           0       -2.972614    2.097190   -9.717364
     70          1           0       -4.670474    2.178689   -9.206866
     71          1           0       -3.788393   -0.556159   -9.306643
     72          1           0       -4.021233    1.110330   -5.695051
     73          1           0       -4.121789    2.176371   -7.035412
     74          1           0       -3.889247   -1.143195   -6.000398
     75          1           0       -3.625985   -1.785881   -7.587448
 ---------------------------------------------------------------------
 Rotational constants (GHZ):           0.1514407           0.0727658           0.0693989
 Standard basis: 6-31G(d) (6D, 7F)
   657 basis functions,  1236 primitive gaussians,   657 cartesian basis functions
   146 alpha electrons      146 beta electrons
       nuclear repulsion energy      5212.6524337974 Hartrees.
 NAtoms=   75 NActive=   75 NUniq=   75 SFac= 1.00D+00 NAtFMM=   60 NAOKFM=T Big=T
 Integral buffers will be    131072 words long.
 Raffenetti 2 integral format.
 Two-electron integral symmetry is turned off.
 Nuclear repulsion after empirical dispersion term =     5212.5233356046 Hartrees.
 One-electron integrals computed using PRISM.
 NBasis=   657 RedAO= T EigKep=  4.64D-04  NBF=   657
 NBsUse=   657 1.00D-06 EigRej= -1.00D+00 NBFU=   657
 Initial guess from the checkpoint file:  "conf-883.chk"
 B after Tr=     0.000000    0.000000    0.000000
         Rot=    1.000000    0.000000    0.000000    0.000000 Ang=   0.00 deg.
 Requested convergence on RMS density matrix=1.00D-08 within 128 cycles.
 Requested convergence on MAX density matrix=1.00D-06.
 Requested convergence on             energy=1.00D-06.
 No special actions if energy rises.
 SCF Done:  E(RB3LYP) =  -1917.54202719     A.U. after    2 cycles
            NFock=  2  Conv=0.92D-08     -V/T= 2.0093

 **********************************************************************

            Population analysis using the SCF Density.

 **********************************************************************

 Alpha  occ. eigenvalues --  -19.25025 -19.24039 -19.23857 -19.23027 -19.22476
 Alpha  occ. eigenvalues --  -19.21426 -19.21175 -14.51505 -14.48837 -14.48332
 Alpha  occ. eigenvalues --  -14.48140 -14.47939 -14.47667 -14.47606 -14.46783
 Alpha  occ. eigenvalues --  -14.46085 -10.44581 -10.42626 -10.41338 -10.40984
 Alpha  occ. eigenvalues --  -10.40299 -10.40047 -10.39366 -10.36116 -10.36113
 Alpha  occ. eigenvalues --  -10.34713 -10.33760 -10.33744 -10.32768 -10.30826
 Alpha  occ. eigenvalues --  -10.29532 -10.29456 -10.29408 -10.29401 -10.28460
 Alpha  occ. eigenvalues --  -10.28398 -10.28344 -10.28260 -10.28228  -1.16681
 Alpha  occ. eigenvalues --   -1.16004  -1.15542  -1.14994  -1.14530  -1.14076
 Alpha  occ. eigenvalues --   -1.13305  -1.07849  -1.05839  -1.05444  -1.03908
 Alpha  occ. eigenvalues --   -1.03588  -1.03167  -1.02628  -1.01366  -1.01054
 Alpha  occ. eigenvalues --   -0.95007  -0.91085  -0.90183  -0.89815  -0.88249
 Alpha  occ. eigenvalues --   -0.85487  -0.83943  -0.83672  -0.80636  -0.79066
 Alpha  occ. eigenvalues --   -0.78389  -0.76609  -0.74813  -0.72516  -0.71429
 Alpha  occ. eigenvalues --   -0.71150  -0.70606  -0.70450  -0.69775  -0.69516
 Alpha  occ. eigenvalues --   -0.69114  -0.68738  -0.67279  -0.66857  -0.66695
 Alpha  occ. eigenvalues --   -0.66273  -0.65446  -0.63867  -0.63489  -0.62709
 Alpha  occ. eigenvalues --   -0.61861  -0.61365  -0.61027  -0.60382  -0.60003
 Alpha  occ. eigenvalues --   -0.58927  -0.58872  -0.58430  -0.58043  -0.57656
 Alpha  occ. eigenvalues --   -0.56576  -0.56493  -0.56373  -0.55411  -0.55014
 Alpha  occ. eigenvalues --   -0.54859  -0.54462  -0.54280  -0.54025  -0.53212
 Alpha  occ. eigenvalues --   -0.53015  -0.52502  -0.52302  -0.52070  -0.51483
 Alpha  occ. eigenvalues --   -0.51298  -0.51064  -0.50684  -0.50639  -0.49837
 Alpha  occ. eigenvalues --   -0.49734  -0.49392  -0.49088  -0.48552  -0.48380
 Alpha  occ. eigenvalues --   -0.47849  -0.46746  -0.46580  -0.45512  -0.44919
 Alpha  occ. eigenvalues --   -0.44604  -0.44475  -0.43397  -0.43113  -0.40937
 Alpha  occ. eigenvalues --   -0.40094  -0.39816  -0.39105  -0.38951  -0.38782
 Alpha  occ. eigenvalues --   -0.37716  -0.37405  -0.37280  -0.36912  -0.36290
 Alpha  occ. eigenvalues --   -0.36229  -0.35746  -0.35327  -0.34404  -0.34364
 Alpha  occ. eigenvalues --   -0.33937
 Alpha virt. eigenvalues --   -0.11460  -0.10950  -0.10831  -0.10124  -0.09842
 Alpha virt. eigenvalues --   -0.09627  -0.09362  -0.07483  -0.06828  -0.04448
 Alpha virt. eigenvalues --   -0.03307  -0.01865  -0.01570  -0.00899  -0.00275
 Alpha virt. eigenvalues --    0.00221   0.01099   0.01208   0.01711   0.02287
 Alpha virt. eigenvalues --    0.02466   0.02945   0.03122   0.03263   0.03674
 Alpha virt. eigenvalues --    0.04119   0.04255   0.04643   0.05082   0.05299
 Alpha virt. eigenvalues --    0.05532   0.05889   0.06133   0.06434   0.07027
 Alpha virt. eigenvalues --    0.07057   0.07196   0.07560   0.07944   0.08122
 Alpha virt. eigenvalues --    0.08471   0.08727   0.08865   0.09550   0.09777
 Alpha virt. eigenvalues --    0.09934   0.10254   0.10591   0.11262   0.11565
 Alpha virt. eigenvalues --    0.12030   0.12349   0.12770   0.13377   0.13893
 Alpha virt. eigenvalues --    0.14458   0.14753   0.15055   0.15742   0.16442
 Alpha virt. eigenvalues --    0.17040   0.17628   0.17919   0.18571   0.19469
 Alpha virt. eigenvalues --    0.21337   0.21750   0.22851   0.23005   0.23297
 Alpha virt. eigenvalues --    0.24164   0.24372   0.25325   0.25908   0.26811
 Alpha virt. eigenvalues --    0.27414   0.27969   0.29198   0.29498   0.31570
 Alpha virt. eigenvalues --    0.31667   0.31950   0.33187   0.35999   0.36690
 Alpha virt. eigenvalues --    0.37398   0.38078   0.39063   0.39547   0.40070
 Alpha virt. eigenvalues --    0.40587   0.41262   0.41779   0.42861   0.43352
 Alpha virt. eigenvalues --    0.43792   0.43813   0.44566   0.45233   0.45690
 Alpha virt. eigenvalues --    0.46200   0.46437   0.46769   0.47079   0.47150
 Alpha virt. eigenvalues --    0.47425   0.48140   0.48457   0.48834   0.49365
 Alpha virt. eigenvalues --    0.49829   0.50387   0.50960   0.51316   0.51772
 Alpha virt. eigenvalues --    0.51973   0.52345   0.52569   0.53069   0.53201
 Alpha virt. eigenvalues --    0.53452   0.54322   0.54350   0.54747   0.54878
 Alpha virt. eigenvalues --    0.55425   0.55490   0.56176   0.56412   0.56492
 Alpha virt. eigenvalues --    0.56978   0.57699   0.57919   0.58341   0.58974
 Alpha virt. eigenvalues --    0.59463   0.60176   0.60824   0.61271   0.61775
 Alpha virt. eigenvalues --    0.62230   0.62483   0.63115   0.63960   0.64348
 Alpha virt. eigenvalues --    0.64823   0.65381   0.66686   0.67207   0.67619
 Alpha virt. eigenvalues --    0.68796   0.69190   0.69819   0.70507   0.70969
 Alpha virt. eigenvalues --    0.71554   0.72244   0.72763   0.73171   0.73450
 Alpha virt. eigenvalues --    0.73841   0.74214   0.74498   0.74667   0.74836
 Alpha virt. eigenvalues --    0.75545   0.75799   0.76021   0.76338   0.76480
 Alpha virt. eigenvalues --    0.76840   0.77132   0.77208   0.77780   0.78054
 Alpha virt. eigenvalues --    0.78634   0.78937   0.79145   0.79708   0.80154
 Alpha virt. eigenvalues --    0.81028   0.81507   0.81857   0.82303   0.82561
 Alpha virt. eigenvalues --    0.82871   0.83356   0.83784   0.84007   0.84520
 Alpha virt. eigenvalues --    0.84800   0.85125   0.85919   0.86068   0.86468
 Alpha virt. eigenvalues --    0.87261   0.87616   0.88581   0.89125   0.89647
 Alpha virt. eigenvalues --    0.90534   0.90768   0.92163   0.92881   0.93449
 Alpha virt. eigenvalues --    0.93958   0.94479   0.94829   0.95627   0.96431
 Alpha virt. eigenvalues --    0.96892   0.97716   0.98325   0.99675   1.00032
 Alpha virt. eigenvalues --    1.00962   1.01680   1.01721   1.01981   1.03214
 Alpha virt. eigenvalues --    1.04528   1.04908   1.05143   1.06166   1.06571
 Alpha virt. eigenvalues --    1.07056   1.07241   1.08656   1.09042   1.09683
 Alpha virt. eigenvalues --    1.10544   1.11081   1.11648   1.12879   1.13486
 Alpha virt. eigenvalues --    1.13735   1.14029   1.15316   1.15654   1.16961
 Alpha virt. eigenvalues --    1.17337   1.18284   1.18963   1.19050   1.19723
 Alpha virt. eigenvalues --    1.20952   1.22258   1.22529   1.23750   1.24416
 Alpha virt. eigenvalues --    1.25082   1.25637   1.25933   1.26936   1.27713
 Alpha virt. eigenvalues --    1.28821   1.29212   1.30553   1.30838   1.31229
 Alpha virt. eigenvalues --    1.31828   1.33113   1.33930   1.34312   1.34920
 Alpha virt. eigenvalues --    1.35641   1.35697   1.36544   1.37587   1.38547
 Alpha virt. eigenvalues --    1.38752   1.39134   1.39703   1.40617   1.40936
 Alpha virt. eigenvalues --    1.41297   1.42720   1.43136   1.43928   1.45370
 Alpha virt. eigenvalues --    1.47702   1.48442   1.48957   1.49091   1.50481
 Alpha virt. eigenvalues --    1.52256   1.53275   1.54448   1.54671   1.55744
 Alpha virt. eigenvalues --    1.56651   1.56923   1.57384   1.57939   1.60405
 Alpha virt. eigenvalues --    1.60612   1.61416   1.62003   1.62622   1.63540
 Alpha virt. eigenvalues --    1.63676   1.63958   1.64872   1.65538   1.65811
 Alpha virt. eigenvalues --    1.66562   1.68245   1.68792   1.69118   1.69410
 Alpha virt. eigenvalues --    1.70338   1.70703   1.70780   1.71445   1.71684
 Alpha virt. eigenvalues --    1.72276   1.73006   1.73592   1.74159   1.74612
 Alpha virt. eigenvalues --    1.75072   1.75950   1.76375   1.76968   1.77686
 Alpha virt. eigenvalues --    1.78090   1.78848   1.78866   1.79310   1.79512
 Alpha virt. eigenvalues --    1.80479   1.80807   1.81867   1.81961   1.82459
 Alpha virt. eigenvalues --    1.83241   1.83671   1.83786   1.84734   1.85098
 Alpha virt. eigenvalues --    1.86172   1.86435   1.86707   1.87589   1.88870
 Alpha virt. eigenvalues --    1.89122   1.89389   1.90259   1.90673   1.90785
 Alpha virt. eigenvalues --    1.92078   1.92780   1.93031   1.94160   1.94868
 Alpha virt. eigenvalues --    1.95412   1.96613   1.96870   1.97715   1.98761
 Alpha virt. eigenvalues --    1.99488   1.99807   2.01148   2.01399   2.01509
 Alpha virt. eigenvalues --    2.02317   2.03442   2.03758   2.04594   2.05193
 Alpha virt. eigenvalues --    2.05529   2.06463   2.07309   2.08243   2.09606
 Alpha virt. eigenvalues --    2.09908   2.10964   2.11653   2.12607   2.13675
 Alpha virt. eigenvalues --    2.14163   2.14763   2.15721   2.16592   2.17262
 Alpha virt. eigenvalues --    2.18189   2.19169   2.19510   2.20076   2.20550
 Alpha virt. eigenvalues --    2.21195   2.22439   2.23079   2.23187   2.24740
 Alpha virt. eigenvalues --    2.25694   2.26019   2.27836   2.28331   2.28852
 Alpha virt. eigenvalues --    2.29537   2.30639   2.30883   2.31707   2.33208
 Alpha virt. eigenvalues --    2.34531   2.35360   2.36153   2.37312   2.38005
 Alpha virt. eigenvalues --    2.39586   2.40216   2.40993   2.41997   2.42840
 Alpha virt. eigenvalues --    2.44297   2.44958   2.45860   2.46837   2.47324
 Alpha virt. eigenvalues --    2.48671   2.49574   2.49839   2.50484   2.51375
 Alpha virt. eigenvalues --    2.51645   2.52010   2.53115   2.53775   2.54559
 Alpha virt. eigenvalues --    2.54906   2.55626   2.55907   2.56694   2.58117
 Alpha virt. eigenvalues --    2.58609   2.59634   2.61440   2.62967   2.63330
 Alpha virt. eigenvalues --    2.64828   2.65489   2.66182   2.66531   2.67276
 Alpha virt. eigenvalues --    2.67628   2.69801   2.72227   2.72695   2.76582
 Alpha virt. eigenvalues --    2.77767   2.81007   2.83240   2.84334   2.88336
 Alpha virt. eigenvalues --    2.88792   2.89593   2.89906   2.90639   2.91234
 Alpha virt. eigenvalues --    2.91752   2.93332   2.94076   2.96393   2.98337
 Alpha virt. eigenvalues --    2.98851   3.01688   3.03300   3.03954   3.04947
 Alpha virt. eigenvalues --    3.09948   3.31396   3.68106   3.72679   3.73711
 Alpha virt. eigenvalues --    3.80574   3.82209   3.87619   3.91477   3.96151
 Alpha virt. eigenvalues --    3.96476   3.97471   4.00691   4.01952   4.05060
 Alpha virt. eigenvalues --    4.06868   4.08284   4.09865   4.10299   4.13287
 Alpha virt. eigenvalues --    4.14706   4.16470   4.19786   4.21955   4.23514
 Alpha virt. eigenvalues --    4.26368   4.28826   4.30893   4.33749   4.35748
 Alpha virt. eigenvalues --    4.38034   4.40217   4.42489   4.44794   4.45646
 Alpha virt. eigenvalues --    4.50829   4.54766   4.58459   4.62070   4.64882
 Alpha virt. eigenvalues --    4.67282
          Condensed to atoms (all electrons):
 Mulliken charges:
               1
     1  N   -0.814680
     2  C   -0.109274
     3  C    0.628731
     4  O   -0.511024
     5  C   -0.416620
     6  C    0.637494
     7  N   -0.742306
     8  O   -0.534132
     9  H    0.418184
    10  H    0.217300
    11  H    0.220015
    12  H    0.211281
    13  H    0.365724
    14  H    0.357795
    15  H    0.427530
    16  H    0.431717
    17  N   -0.652847
    18  C   -0.085133
    19  C    0.633827
    20  O   -0.556875
    21  C   -0.359599
    22  C    0.174375
    23  C   -0.180030
    24  C   -0.198509
    25  C   -0.137818
    26  C   -0.135881
    27  C   -0.160020
    28  H    0.386378
    29  H    0.222558
    30  H    0.140345
    31  H    0.197789
    32  H    0.151744
    33  H    0.145666
    34  H    0.158640
    35  H    0.153148
    36  H    0.150599
    37  N   -0.639569
    38  C   -0.056694
    39  C    0.643956
    40  O   -0.583551
    41  C   -0.395126
    42  C    0.619803
    43  N   -0.724896
    44  O   -0.557795
    45  H    0.367140
    46  H    0.221514
    47  H    0.216676
    48  H    0.195888
    49  H    0.365873
    50  H    0.368849
    51  N   -0.610643
    52  C   -0.075811
    53  C    0.604756
    54  O   -0.554329
    55  C   -0.267437
    56  C   -0.316710
    57  C   -0.159697
    58  N   -0.629695
    59  C    0.718120
    60  N   -0.753720
    61  N   -0.769716
    62  O   -0.599204
    63  H    0.366279
    64  H    0.164739
    65  H    0.172656
    66  H    0.152444
    67  H    0.185264
    68  H    0.170406
    69  H    0.188073
    70  H    0.175500
    71  H    0.418074
    72  H    0.378147
    73  H    0.392551
    74  H    0.392144
    75  H    0.379648
 Sum of Mulliken charges =   1.00000
 Mulliken charges with hydrogens summed into heavy atoms:
               1
     1  N    0.462751
     2  C    0.108026
     3  C    0.628731
     4  O   -0.511024
     5  C    0.014677
     6  C    0.637494
     7  N   -0.018786
     8  O   -0.534132
    17  N   -0.266469
    18  C    0.137424
    19  C    0.633827
    20  O   -0.556875
    21  C   -0.021466
    22  C    0.174375
    23  C   -0.028286
    24  C   -0.052844
    25  C    0.020823
    26  C    0.017267
    27  C   -0.009421
    37  N   -0.272429
    38  C    0.164820
    39  C    0.643956
    40  O   -0.583551
    41  C    0.017438
    42  C    0.619803
    43  N    0.009826
    44  O   -0.557795
    51  N   -0.244364
    52  C    0.088929
    53  C    0.604756
    54  O   -0.554329
    55  C    0.057664
    56  C    0.038961
    57  C    0.203876
    58  N   -0.211621
    59  C    0.718120
    60  N    0.016978
    61  N    0.002076
    62  O   -0.599204
 Electronic spatial extent (au):  <R**2>=         135192.8204
 Charge=              1.0000 electrons
 Dipole moment (field-independent basis, Debye):
    X=            -35.3331    Y=             -2.1737    Z=            -38.3243  Tot=             52.1719
 Quadrupole moment (field-independent basis, Debye-Ang):
   XX=             52.8741   YY=           -120.9224   ZZ=             94.0025
   XY=             39.5767   XZ=            279.3224   YZ=             -1.4131
 Traceless Quadrupole moment (field-independent basis, Debye-Ang):
   XX=             44.2227   YY=           -129.5738   ZZ=             85.3511
   XY=             39.5767   XZ=            279.3224   YZ=             -1.4131
 Octapole moment (field-independent basis, Debye-Ang**2):
  XXX=           2580.8994  YYY=            596.2562  ZZZ=           2399.3671  XYY=            661.5003
  XXY=           -131.9874  XXZ=           -459.3598  XZZ=           -683.6765  YZZ=            517.4942
  YYZ=            923.5068  XYZ=           -183.6315
 Hexadecapole moment (field-independent basis, Debye-Ang**3):
 XXXX=         -56689.2841 YYYY=          -9673.5047 ZZZZ=         -59148.6248 XXXY=          -4175.1848
 XXXZ=         -19079.1714 YYYX=          -4799.7200 YYYZ=          -3805.3257 ZZZX=         -17223.9440
 ZZZY=          -9769.4809 XXYY=          -6127.7649 XXZZ=          -8797.0088 YYZZ=         -10277.4330
 XXYZ=            430.7372 YYXZ=          -4980.0625 ZZXY=          -2644.8574
 N-N= 5.212523335605D+03 E-N=-1.486406779257D+04  KE= 1.899816240928D+03
 Unable to Open any file for archive entry.
 1\1\GINC-AMR-134\SP\RB3LYP\6-31G(d)\C23H36N9O7(1+)\KENGMITH\03-Jun-202
 2\0\\# B3LYP/6-31G* empiricaldispersion=gd3 guess=read geom=check nosy
 mm integral(ultrafinegrid)\\Candidate Structure: Conf:883 Charge calc 
 in gas phase\\1,1\N,0,-9.3265422583,-2.546468,-9.5467917273\C,0,-9.784
 7095877,-3.0601882989,-8.2131349649\C,0,-9.2959869037,-2.2308665394,-7
 .0139168331\O,0,-10.1053568993,-1.8461398491,-6.1791368161\C,0,-9.3347
 72262,-4.5171406261,-8.0626377539\C,0,-9.9554858672,-5.4189035992,-9.1
 256444782\N,0,-10.0003820781,-6.728952484,-8.807835386\O,0,-10.3614847
 717,-4.9723163528,-10.2035507639\H,0,-9.7590768077,-3.1786034796,-10.2
 465528418\H,0,-10.8732288305,-2.9889859715,-8.2003544996\H,0,-8.243792
 9306,-4.5814795999,-8.148458675\H,0,-9.5864981661,-4.8635686706,-7.056
 7472346\H,0,-10.3491011032,-7.3878235954,-9.4915517142\H,0,-9.65772511
 36,-7.0723580245,-7.9209904439\H,0,-9.5792143375,-1.5536143947,-9.6701
 430548\H,0,-8.2619744723,-2.6004481153,-9.6210294216\N,0,-7.9491573465
 ,-2.0344455724,-6.8987360402\C,0,-7.3732638617,-1.7301826952,-5.593106
 0915\C,0,-6.5529489409,-0.4304157622,-5.5558533051\O,0,-5.4844870782,-
 0.3819609274,-4.9301387629\C,0,-6.5220341387,-2.9166459679,-5.08610388
 83\C,0,-7.2449495224,-4.2465511942,-5.1537788986\C,0,-8.4510347088,-4.
 4558899025,-4.4673625794\C,0,-6.7106111532,-5.3022835924,-5.9026717475
 \C,0,-9.0995224028,-5.6901707409,-4.5236918591\C,0,-7.3511115365,-6.54
 37940587,-5.9561634787\C,0,-8.5487446179,-6.741952721,-5.2653302096\H,
 0,-7.3284786434,-2.4097681428,-7.6217147719\H,0,-8.2283798539,-1.57262
 16119,-4.9256084852\H,0,-5.6059546898,-2.9703588611,-5.685655874\H,0,-
 6.2036211196,-2.6929357336,-4.0630337406\H,0,-8.8902398751,-3.65086347
 87,-3.8840614176\H,0,-5.7802407923,-5.1562756906,-6.4464301751\H,0,-10
 .027652745,-5.8355346794,-3.9783433093\H,0,-6.9055017938,-7.35468964,-
 6.526121294\H,0,-9.0387253617,-7.7124350949,-5.2808174752\N,0,-7.00782
 61004,0.6827255289,-6.1893985244\C,0,-8.1895548266,0.9078205366,-7.014
 2836288\C,0,-8.0678197841,0.3757601889,-8.4572557921\O,0,-9.0995818933
 ,0.1635166361,-9.1048874419\C,0,-8.500937511,2.4212738262,-7.072390249
 9\C,0,-7.3685499747,3.2294192776,-7.7090173311\N,0,-7.7309033773,4.171
 6807804,-8.6002550117\O,0,-6.1811407664,3.025150274,-7.4156846254\H,0,
 -6.3839871947,1.4825748412,-6.13120212\H,0,-9.0557783797,0.400138051,-
 6.5830942975\H,0,-8.6491044807,2.7956211434,-6.0524356651\H,0,-9.44080
 02907,2.5494322594,-7.6160287135\H,0,-7.0182271561,4.7785940564,-8.985
 2906164\H,0,-8.695746917,4.3621149814,-8.8296062876\N,0,-6.8159830585,
 0.2279041379,-8.9321233745\C,0,-6.4755085059,-0.4422066996,-10.1943230
 903\C,0,-5.8308695675,-1.8131478826,-9.7837649663\O,0,-4.5885997767,-1
 .9492667272,-9.7742728046\C,0,-5.7759654674,0.5047899105,-11.196184295
 5\C,0,-4.3242878311,1.0076215564,-11.0254801663\C,0,-3.9036397116,1.52
 36558483,-9.6400325452\N,0,-3.6873598886,0.3440767483,-8.8006709151\C,
 0,-3.6852487248,0.2348213335,-7.4779393957\N,0,-3.7727765114,1.3018512
 172,-6.6613117989\N,0,-3.5530473295,-1.00032366,-6.9477043295\O,0,-6.6
 645879795,-2.6875168067,-9.3773702914\H,0,-6.0643505105,0.4289202934,-
 8.2893854326\H,0,-7.4402278707,-0.6723845345,-10.6514441719\H,0,-5.824
 3663206,0.013708748,-12.1755006833\H,0,-6.4383104254,1.3779214411,-11.
 2617224016\H,0,-3.6205567962,0.2209382294,-11.3199530004\H,0,-4.184718
 1228,1.8218803442,-11.7448521013\H,0,-2.9726141876,2.0971903014,-9.717
 3637556\H,0,-4.6704739356,2.1786889285,-9.206865537\H,0,-3.788392962,-
 0.5561587162,-9.3066426798\H,0,-4.0212334211,1.1103295678,-5.695051271
 \H,0,-4.1217887321,2.1763707583,-7.0354120178\H,0,-3.889247313,-1.1431
 946764,-6.0003980854\H,0,-3.6259846058,-1.7858808641,-7.5874480008\\Ve
 rsion=ES64L-G16RevC.01\HF=-1917.5420272\RMSD=9.166e-09\Dipole=-0.33698
 36,1.9195317,-0.5311197\Quadrupole=32.8784942,-96.334969,63.4564748,29
 .4243015,207.6693615,-1.0505935\PG=C01 [X(C23H36N9O7)]\\@
 The archive entry for this job was punched.


 Sometimes the fool who rushes in gets the job done.
                                    -- Al Bernstein
 Job cpu time:       0 days  0 hours  3 minutes 17.2 seconds.
 Elapsed time:       0 days  0 hours  0 minutes 50.1 seconds.
 File lengths (MBytes):  RWF=    344 Int=      0 D2E=      0 Chk=     48 Scr=     16
 Normal termination of Gaussian 16 at Fri Jun  3 06:00:52 2022.
