 Entering Gaussian System, Link 0=/opt/software/Gaussian/g16-AVX2-C.01/g16/g16
 Input=charge-conf-33.com
 Output=charge-conf-33.log
 Initial command:
 /opt/software/Gaussian/g16-AVX2-C.01/g16/l1.exe "/mnt/gs18/scratch/users/kengmith/Gau-20308.inp" -scrdir="/mnt/gs18/scratch/users/kengmith/"
 Entering Link 1 = /opt/software/Gaussian/g16-AVX2-C.01/g16/l1.exe PID=     20319.
  
 Copyright (c) 1988-2019, Gaussian, Inc.  All Rights Reserved.
  
 This is part of the Gaussian(R) 16 program.  It is based on
 the Gaussian(R) 09 system (copyright 2009, Gaussian, Inc.),
 the Gaussian(R) 03 system (copyright 2003, Gaussian, Inc.),
 the Gaussian(R) 98 system (copyright 1998, Gaussian, Inc.),
 the Gaussian(R) 94 system (copyright 1995, Gaussian, Inc.),
 the Gaussian 92(TM) system (copyright 1992, Gaussian, Inc.),
 the Gaussian 90(TM) system (copyright 1990, Gaussian, Inc.),
 the Gaussian 88(TM) system (copyright 1988, Gaussian, Inc.),
 the Gaussian 86(TM) system (copyright 1986, Carnegie Mellon
 University), and the Gaussian 82(TM) system (copyright 1983,
 Carnegie Mellon University). Gaussian is a federally registered
 trademark of Gaussian, Inc.
  
 This software contains proprietary and confidential information,
 including trade secrets, belonging to Gaussian, Inc.
  
 This software is provided under written license and may be
 used, copied, transmitted, or stored only in accord with that
 written license.
  
 The following legend is applicable only to US Government
 contracts under FAR:
  
                    RESTRICTED RIGHTS LEGEND
  
 Use, reproduction and disclosure by the US Government is
 subject to restrictions as set forth in subparagraphs (a)
 and (c) of the Commercial Computer Software - Restricted
 Rights clause in FAR 52.227-19.
  
 Gaussian, Inc.
 340 Quinnipiac St., Bldg. 40, Wallingford CT 06492
  
  
 ---------------------------------------------------------------
 Warning -- This program may not be used in any manner that
 competes with the business of Gaussian, Inc. or will provide
 assistance to any competitor of Gaussian, Inc.  The licensee
 of this program is prohibited from giving any competitor of
 Gaussian, Inc. access to this program.  By using this program,
 the user acknowledges that Gaussian, Inc. is engaged in the
 business of creating and licensing software in the field of
 computational chemistry and represents and warrants to the
 licensee that it is not a competitor of Gaussian, Inc. and that
 it will not use this program in any manner prohibited above.
 ---------------------------------------------------------------
  

 Cite this work as:
 Gaussian 16, Revision C.01,
 M. J. Frisch, G. W. Trucks, H. B. Schlegel, G. E. Scuseria, 
 M. A. Robb, J. R. Cheeseman, G. Scalmani, V. Barone, 
 G. A. Petersson, H. Nakatsuji, X. Li, M. Caricato, A. V. Marenich, 
 J. Bloino, B. G. Janesko, R. Gomperts, B. Mennucci, H. P. Hratchian, 
 J. V. Ortiz, A. F. Izmaylov, J. L. Sonnenberg, D. Williams-Young, 
 F. Ding, F. Lipparini, F. Egidi, J. Goings, B. Peng, A. Petrone, 
 T. Henderson, D. Ranasinghe, V. G. Zakrzewski, J. Gao, N. Rega, 
 G. Zheng, W. Liang, M. Hada, M. Ehara, K. Toyota, R. Fukuda, 
 J. Hasegawa, M. Ishida, T. Nakajima, Y. Honda, O. Kitao, H. Nakai, 
 T. Vreven, K. Throssell, J. A. Montgomery, Jr., J. E. Peralta, 
 F. Ogliaro, M. J. Bearpark, J. J. Heyd, E. N. Brothers, K. N. Kudin, 
 V. N. Staroverov, T. A. Keith, R. Kobayashi, J. Normand, 
 K. Raghavachari, A. P. Rendell, J. C. Burant, S. S. Iyengar, 
 J. Tomasi, M. Cossi, J. M. Millam, M. Klene, C. Adamo, R. Cammi, 
 J. W. Ochterski, R. L. Martin, K. Morokuma, O. Farkas, 
 J. B. Foresman, and D. J. Fox, Gaussian, Inc., Wallingford CT, 2019.
 
 ******************************************
 Gaussian 16:  ES64L-G16RevC.01  3-Jul-2019
                 3-Jun-2022 
 ******************************************
 %mem=8gb
 %nproc=4
 Will use up to    4 processors via shared memory.
 %chk=conf-33.chk
 ----------------------------------------------------------------------
 # B3LYP/6-31G* empiricaldispersion=gd3 guess=read geom=check nosymm in
 tegral(ultrafinegrid)
 ----------------------------------------------------------------------
 1/29=2,38=1,172=1/1;
 2/12=2,15=1,40=1/2;
 3/5=1,6=6,7=1,11=2,14=-4,25=1,30=1,74=-5,75=-5,116=-2,124=31/1,2,3;
 4/5=1/1;
 5/5=2,38=6/2;
 6/7=2,8=2,9=2,10=2,28=1/1;
 99/5=1,9=1/99;
 -----------------------------------------------------
 Candidate Structure: Conf:33 Charge calc in gas phase
 -----------------------------------------------------
 Structure from the checkpoint file:  "conf-33.chk"
 Charge =  1 Multiplicity = 1
 Redundant internal coordinates found in file.  (old form).
 N,0,-8.3959666504,-3.4066595594,-9.7020350166
 C,0,-7.9700724964,-4.3358278393,-8.6023470721
 C,0,-7.8647130038,-3.6702320292,-7.2206054669
 O,0,-8.4188357056,-4.1868893285,-6.2579495063
 C,0,-6.6255038935,-4.9677429187,-8.9782239892
 C,0,-6.7209935923,-5.7996428053,-10.2535522529
 N,0,-5.7690248818,-6.7449947633,-10.3922016124
 O,0,-7.5969890709,-5.595781205,-11.1005521252
 H,0,-7.67740516,-2.6291040578,-9.8320263381
 H,0,-8.7442457728,-5.0989444535,-8.5108450141
 H,0,-5.8753552545,-4.1830231299,-9.1315462088
 H,0,-6.272606671,-5.5719441364,-8.1381831855
 H,0,-5.7428318629,-7.2939720358,-11.2414236
 H,0,-5.0599911711,-6.8926740241,-9.6870821574
 H,0,-8.4386413709,-3.9941123596,-10.5564219723
 H,0,-9.2878915089,-2.9409232649,-9.4716366414
 N,0,-7.0720754458,-2.564055585,-7.1291235631
 C,0,-6.5310814226,-2.1580399226,-5.8380153656
 C,0,-6.8533191879,-0.6970113697,-5.4884842211
 O,0,-5.9639395799,0.0704831819,-5.0875319369
 C,0,-5.0080360485,-2.4108215079,-5.7796189694
 C,0,-4.6150303375,-3.8062577034,-6.2220152308
 C,0,-5.1228447304,-4.9468773113,-5.5812277151
 C,0,-3.7231691317,-3.9808126452,-7.2875228862
 C,0,-4.7436368781,-6.2252564255,-5.9926931744
 C,0,-3.3326568245,-5.2585348492,-7.6987910131
 C,0,-3.8424188261,-6.3864015685,-7.0515454698
 H,0,-6.636527886,-2.182074388,-7.9749351519
 H,0,-7.0436381776,-2.7794699926,-5.0952130995
 H,0,-4.5057906003,-1.6746416258,-6.4167364566
 H,0,-4.6675235819,-2.2093321609,-4.758348873
 H,0,-5.8233879211,-4.8402142394,-4.7574481247
 H,0,-3.3223039831,-3.1086295745,-7.7985929992
 H,0,-5.1421142083,-7.0955430364,-5.4791085771
 H,0,-2.6217688053,-5.3674767481,-8.5135575455
 H,0,-3.5243620895,-7.3824898653,-7.3493381271
 N,0,-8.1297204008,-0.2462446885,-5.5889353919
 C,0,-9.3037589803,-0.8441586242,-6.2165304988
 C,0,-9.2739839426,-0.8215606777,-7.7622250596
 O,0,-10.0048090536,-1.5983910897,-8.3874711595
 C,0,-10.5754739844,-0.1143722227,-5.7299870963
 C,0,-10.5821520843,1.3750596569,-6.084340103
 N,0,-11.7682552678,1.8937505032,-6.4559901235
 O,0,-9.5546790266,2.067210054,-6.0243438794
 H,0,-8.2496458156,0.7373982117,-5.3583343635
 H,0,-9.3894535509,-1.8969484749,-5.9368799939
 H,0,-10.6396623463,-0.1997718702,-4.6383700602
 H,0,-11.4417839461,-0.6281972174,-6.1557555502
 H,0,-11.8344627365,2.8903593979,-6.6195301024
 H,0,-12.6157093671,1.3457394274,-6.4925121334
 N,0,-8.4637612339,0.0952781664,-8.3232167643
 C,0,-8.1581779867,0.2157926013,-9.7494995183
 C,0,-6.6757722877,-0.2788667693,-9.9357119357
 O,0,-5.7749642049,0.5286183977,-10.2387700867
 C,0,-8.537663409,1.6064261884,-10.3397329692
 C,0,-8.6834633381,2.8053288484,-9.3715201577
 C,0,-7.3865514111,3.5763642436,-9.0683931736
 N,0,-6.2594223637,2.7038010883,-8.749625908
 C,0,-5.9338724472,2.2098873041,-7.5556524492
 N,0,-6.5220873587,2.6153709262,-6.4125011631
 N,0,-4.9468990095,1.2968810911,-7.4887926972
 O,0,-6.4986760547,-1.518924879,-9.6942366035
 H,0,-7.9428638585,0.6767593949,-7.6826018683
 H,0,-8.7884024759,-0.5305191425,-10.2384542073
 H,0,-7.8183981238,1.8407559984,-11.1327026864
 H,0,-9.5073983606,1.4807253694,-10.8313486876
 H,0,-9.3771290549,3.5255688559,-9.8212925236
 H,0,-9.1524627043,2.4816109683,-8.4368239693
 H,0,-7.0794907553,4.1486532295,-9.949121774
 H,0,-7.5335679458,4.3029404803,-8.2627648626
 H,0,-5.9417528907,2.1127083669,-9.5354845997
 H,0,-6.3098612182,2.0749074739,-5.5760184852
 H,0,-7.4339365995,3.0527205783,-6.4379916861
 H,0,-4.8381182976,0.7653115739,-6.6303211185
 H,0,-4.619811864,0.8882911881,-8.3593520198
 Recover connectivity data from disk.
                           ----------------------------
                           !    Current Parameters    !
                           ! (Angstroms and Degrees)  !
 --------------------------                            --------------------------
 ! Name  Definition              Value                                          !
 --------------------------------------------------------------------------------
 ! R1    R(1,2)                  1.5014                                         !
 ! R2    R(1,9)                  1.0667                                         !
 ! R3    R(1,15)                 1.0377                                         !
 ! R4    R(1,16)                 1.0322                                         !
 ! R5    R(2,3)                  1.5373                                         !
 ! R6    R(2,5)                  1.5325                                         !
 ! R7    R(2,10)                 1.0909                                         !
 ! R8    R(3,4)                  1.225                                          !
 ! R9    R(3,17)                 1.3639                                         !
 ! R10   R(5,6)                  1.5257                                         !
 ! R11   R(5,11)                 1.0964                                         !
 ! R12   R(5,12)                 1.0933                                         !
 ! R13   R(6,7)                  1.3488                                         !
 ! R14   R(6,8)                  1.2354                                         !
 ! R15   R(7,13)                 1.0116                                         !
 ! R16   R(7,14)                 1.0108                                         !
 ! R17   R(17,18)                1.4576                                         !
 ! R18   R(17,28)                1.0252                                         !
 ! R19   R(18,19)                1.5364                                         !
 ! R20   R(18,21)                1.545                                          !
 ! R21   R(18,29)                1.0957                                         !
 ! R22   R(19,20)                1.2413                                         !
 ! R23   R(19,37)                1.3574                                         !
 ! R24   R(21,22)                1.5157                                         !
 ! R25   R(21,30)                1.0955                                         !
 ! R26   R(21,31)                1.0952                                         !
 ! R27   R(22,23)                1.4034                                         !
 ! R28   R(22,24)                1.4004                                         !
 ! R29   R(23,25)                1.3955                                         !
 ! R30   R(23,32)                1.0866                                         !
 ! R31   R(24,26)                1.3979                                         !
 ! R32   R(24,33)                1.0875                                         !
 ! R33   R(25,27)                1.3998                                         !
 ! R34   R(25,34)                1.0863                                         !
 ! R35   R(26,27)                1.3967                                         !
 ! R36   R(26,35)                1.0868                                         !
 ! R37   R(27,36)                1.0872                                         !
 ! R38   R(37,38)                1.4594                                         !
 ! R39   R(37,45)                1.0174                                         !
 ! R40   R(38,39)                1.5461                                         !
 ! R41   R(38,41)                1.5449                                         !
 ! R42   R(38,46)                1.0927                                         !
 ! R43   R(39,40)                1.2363                                         !
 ! R44   R(39,51)                1.346                                          !
 ! R45   R(41,42)                1.531                                          !
 ! R46   R(41,47)                1.0968                                         !
 ! R47   R(41,48)                1.0935                                         !
 ! R48   R(42,43)                1.3468                                         !
 ! R49   R(42,44)                1.2403                                         !
 ! R50   R(43,49)                1.0121                                         !
 ! R51   R(43,50)                1.0099                                         !
 ! R52   R(51,52)                1.4636                                         !
 ! R53   R(51,63)                1.0099                                         !
 ! R54   R(52,53)                1.5738                                         !
 ! R55   R(52,55)                1.5576                                         !
 ! R56   R(52,64)                1.0924                                         !
 ! R57   R(53,54)                1.2471                                         !
 ! R58   R(53,62)                1.2757                                         !
 ! R59   R(54,71)                1.7412                                         !
 ! R60   R(55,56)                1.5479                                         !
 ! R61   R(55,65)                1.0959                                         !
 ! R62   R(55,66)                1.0945                                         !
 ! R63   R(56,57)                1.5389                                         !
 ! R64   R(56,67)                1.0965                                         !
 ! R65   R(56,68)                1.0947                                         !
 ! R66   R(57,58)                1.4606                                         !
 ! R67   R(57,69)                1.0943                                         !
 ! R68   R(57,70)                1.0948                                         !
 ! R69   R(58,59)                1.3325                                         !
 ! R70   R(59,60)                1.348                                          !
 ! R71   R(59,61)                1.3462                                         !
 ! R72   R(60,72)                1.0183                                         !
 ! R73   R(60,73)                1.0116                                         !
 ! R74   R(61,74)                1.0156                                         !
 ! R75   R(61,75)                1.0158                                         !
 ! A1    A(2,1,9)              110.4447                                         !
 ! A2    A(2,1,15)             105.3296                                         !
 ! A3    A(2,1,16)             111.1531                                         !
 ! A4    A(9,1,15)             109.8779                                         !
 ! A5    A(9,1,16)             106.2827                                         !
 ! A6    A(15,1,16)            113.8063                                         !
 ! A7    A(1,2,3)              114.1942                                         !
 ! A8    A(1,2,5)              108.9314                                         !
 ! A9    A(1,2,10)             107.0409                                         !
 ! A10   A(3,2,5)              109.8071                                         !
 ! A11   A(3,2,10)             106.0285                                         !
 ! A12   A(5,2,10)             110.7795                                         !
 ! A13   A(2,3,4)              119.5181                                         !
 ! A14   A(2,3,17)             116.8244                                         !
 ! A15   A(4,3,17)             123.5194                                         !
 ! A16   A(2,5,6)              112.0218                                         !
 ! A17   A(2,5,11)             109.8453                                         !
 ! A18   A(2,5,12)             108.8222                                         !
 ! A19   A(6,5,11)             108.4334                                         !
 ! A20   A(6,5,12)             111.1709                                         !
 ! A21   A(11,5,12)            106.3888                                         !
 ! A22   A(5,6,7)              115.0834                                         !
 ! A23   A(5,6,8)              121.8362                                         !
 ! A24   A(7,6,8)              123.068                                          !
 ! A25   A(6,7,13)             119.01                                           !
 ! A26   A(6,7,14)             121.7211                                         !
 ! A27   A(13,7,14)            119.2211                                         !
 ! A28   A(3,17,18)            120.0684                                         !
 ! A29   A(3,17,28)            119.5872                                         !
 ! A30   A(18,17,28)           117.9912                                         !
 ! A31   A(17,18,19)           112.8649                                         !
 ! A32   A(17,18,21)           110.7198                                         !
 ! A33   A(17,18,29)           105.5979                                         !
 ! A34   A(19,18,21)           110.7162                                         !
 ! A35   A(19,18,29)           106.6769                                         !
 ! A36   A(21,18,29)           110.0424                                         !
 ! A37   A(18,19,20)           120.7419                                         !
 ! A38   A(18,19,37)           119.7471                                         !
 ! A39   A(20,19,37)           119.4935                                         !
 ! A40   A(18,21,22)           113.2786                                         !
 ! A41   A(18,21,30)           108.6641                                         !
 ! A42   A(18,21,31)           108.1577                                         !
 ! A43   A(22,21,30)           109.2721                                         !
 ! A44   A(22,21,31)           111.1565                                         !
 ! A45   A(30,21,31)           106.0296                                         !
 ! A46   A(21,22,23)           121.4108                                         !
 ! A47   A(21,22,24)           120.129                                          !
 ! A48   A(23,22,24)           118.4597                                         !
 ! A49   A(22,23,25)           120.7705                                         !
 ! A50   A(22,23,32)           119.9772                                         !
 ! A51   A(25,23,32)           119.2517                                         !
 ! A52   A(22,24,26)           121.0422                                         !
 ! A53   A(22,24,33)           119.4957                                         !
 ! A54   A(26,24,33)           119.4607                                         !
 ! A55   A(23,25,27)           120.2295                                         !
 ! A56   A(23,25,34)           119.6604                                         !
 ! A57   A(27,25,34)           120.1059                                         !
 ! A58   A(24,26,27)           119.9854                                         !
 ! A59   A(24,26,35)           119.6643                                         !
 ! A60   A(27,26,35)           120.3449                                         !
 ! A61   A(25,27,26)           119.5087                                         !
 ! A62   A(25,27,36)           120.0675                                         !
 ! A63   A(26,27,36)           120.4061                                         !
 ! A64   A(19,37,38)           130.7121                                         !
 ! A65   A(19,37,45)           114.5278                                         !
 ! A66   A(38,37,45)           113.5005                                         !
 ! A67   A(37,38,39)           114.1069                                         !
 ! A68   A(37,38,41)           109.4669                                         !
 ! A69   A(37,38,46)           110.352                                          !
 ! A70   A(39,38,41)           108.8929                                         !
 ! A71   A(39,38,46)           105.7507                                         !
 ! A72   A(41,38,46)           108.0588                                         !
 ! A73   A(38,39,40)           119.0134                                         !
 ! A74   A(38,39,51)           115.9894                                         !
 ! A75   A(40,39,51)           124.9623                                         !
 ! A76   A(38,41,42)           112.9709                                         !
 ! A77   A(38,41,47)           108.9559                                         !
 ! A78   A(38,41,48)           107.912                                          !
 ! A79   A(42,41,47)           107.8086                                         !
 ! A80   A(42,41,48)           111.3182                                         !
 ! A81   A(47,41,48)           107.7315                                         !
 ! A82   A(41,42,43)           116.2546                                         !
 ! A83   A(41,42,44)           121.8757                                         !
 ! A84   A(43,42,44)           121.8681                                         !
 ! A85   A(42,43,49)           118.7777                                         !
 ! A86   A(42,43,50)           122.6846                                         !
 ! A87   A(49,43,50)           118.2689                                         !
 ! A88   A(39,51,52)           126.0087                                         !
 ! A89   A(39,51,63)           115.9956                                         !
 ! A90   A(52,51,63)           117.5851                                         !
 ! A91   A(51,52,53)           106.6234                                         !
 ! A92   A(51,52,55)           113.0732                                         !
 ! A93   A(51,52,64)           105.0394                                         !
 ! A94   A(53,52,55)           117.7264                                         !
 ! A95   A(53,52,64)           106.0056                                         !
 ! A96   A(55,52,64)           107.4448                                         !
 ! A97   A(52,53,54)           120.3712                                         !
 ! A98   A(52,53,62)           114.4493                                         !
 ! A99   A(54,53,62)           125.1073                                         !
 ! A100  A(53,54,71)           114.9427                                         !
 ! A101  A(52,55,56)           118.5165                                         !
 ! A102  A(52,55,65)           107.7687                                         !
 ! A103  A(52,55,66)           106.4711                                         !
 ! A104  A(56,55,65)           110.4135                                         !
 ! A105  A(56,55,66)           106.646                                          !
 ! A106  A(65,55,66)           106.3232                                         !
 ! A107  A(55,56,57)           115.5866                                         !
 ! A108  A(55,56,67)           108.1664                                         !
 ! A109  A(55,56,68)           110.2049                                         !
 ! A110  A(57,56,67)           106.5491                                         !
 ! A111  A(57,56,68)           109.9389                                         !
 ! A112  A(67,56,68)           105.8697                                         !
 ! A113  A(56,57,58)           113.2036                                         !
 ! A114  A(56,57,69)           109.8744                                         !
 ! A115  A(56,57,70)           111.3636                                         !
 ! A116  A(58,57,69)           105.7557                                         !
 ! A117  A(58,57,70)           109.8464                                         !
 ! A118  A(69,57,70)           106.4309                                         !
 ! A119  A(57,58,59)           127.2669                                         !
 ! A120  A(58,59,60)           122.8034                                         !
 ! A121  A(58,59,61)           118.3614                                         !
 ! A122  A(60,59,61)           118.8036                                         !
 ! A123  A(59,60,72)           116.4893                                         !
 ! A124  A(59,60,73)           120.1313                                         !
 ! A125  A(72,60,73)           115.9782                                         !
 ! A126  A(59,61,74)           118.3929                                         !
 ! A127  A(59,61,75)           117.7965                                         !
 ! A128  A(74,61,75)           118.6482                                         !
 ! D1    D(9,1,2,3)             62.4444                                         !
 ! D2    D(9,1,2,5)            -60.7055                                         !
 ! D3    D(9,1,2,10)           179.4655                                         !
 ! D4    D(15,1,2,3)          -178.9714                                         !
 ! D5    D(15,1,2,5)            57.8787                                         !
 ! D6    D(15,1,2,10)          -61.9502                                         !
 ! D7    D(16,1,2,3)           -55.2714                                         !
 ! D8    D(16,1,2,5)          -178.4213                                         !
 ! D9    D(16,1,2,10)           61.7497                                         !
 ! D10   D(1,2,3,4)            129.6379                                         !
 ! D11   D(1,2,3,17)           -54.4832                                         !
 ! D12   D(5,2,3,4)           -107.6879                                         !
 ! D13   D(5,2,3,17)            68.191                                          !
 ! D14   D(10,2,3,4)            12.0347                                         !
 ! D15   D(10,2,3,17)         -172.0864                                         !
 ! D16   D(1,2,5,6)            -61.8114                                         !
 ! D17   D(1,2,5,11)            58.7593                                         !
 ! D18   D(1,2,5,12)           174.8593                                         !
 ! D19   D(3,2,5,6)            172.4533                                         !
 ! D20   D(3,2,5,11)           -66.976                                          !
 ! D21   D(3,2,5,12)            49.1239                                         !
 ! D22   D(10,2,5,6)            55.6736                                         !
 ! D23   D(10,2,5,11)          176.2443                                         !
 ! D24   D(10,2,5,12)          -67.6558                                         !
 ! D25   D(2,3,17,18)         -158.0083                                         !
 ! D26   D(2,3,17,28)            4.2331                                         !
 ! D27   D(4,3,17,18)           17.6899                                         !
 ! D28   D(4,3,17,28)          179.9313                                         !
 ! D29   D(2,5,6,7)           -157.2938                                         !
 ! D30   D(2,5,6,8)             23.9467                                         !
 ! D31   D(11,5,6,7)            81.3193                                         !
 ! D32   D(11,5,6,8)           -97.4403                                         !
 ! D33   D(12,5,6,7)           -35.2978                                         !
 ! D34   D(12,5,6,8)           145.9427                                         !
 ! D35   D(5,6,7,13)          -176.3838                                         !
 ! D36   D(5,6,7,14)             1.0821                                         !
 ! D37   D(8,6,7,13)             2.3587                                         !
 ! D38   D(8,6,7,14)           179.8245                                         !
 ! D39   D(3,17,18,19)        -126.1071                                         !
 ! D40   D(3,17,18,21)         109.1451                                         !
 ! D41   D(3,17,18,29)          -9.9344                                         !
 ! D42   D(28,17,18,19)         71.3729                                         !
 ! D43   D(28,17,18,21)        -53.3748                                         !
 ! D44   D(28,17,18,29)       -172.4544                                         !
 ! D45   D(17,18,19,20)       -131.5886                                         !
 ! D46   D(17,18,19,37)         49.9412                                         !
 ! D47   D(21,18,19,20)         -6.8389                                         !
 ! D48   D(21,18,19,37)        174.6909                                         !
 ! D49   D(29,18,19,20)        112.8831                                         !
 ! D50   D(29,18,19,37)        -65.5871                                         !
 ! D51   D(17,18,21,22)        -49.4488                                         !
 ! D52   D(17,18,21,30)         72.1906                                         !
 ! D53   D(17,18,21,31)       -173.1314                                         !
 ! D54   D(19,18,21,22)       -175.4075                                         !
 ! D55   D(19,18,21,30)        -53.7681                                         !
 ! D56   D(19,18,21,31)         60.9099                                         !
 ! D57   D(29,18,21,22)         66.9109                                         !
 ! D58   D(29,18,21,30)       -171.4498                                         !
 ! D59   D(29,18,21,31)        -56.7718                                         !
 ! D60   D(18,19,37,38)        -12.5674                                         !
 ! D61   D(18,19,37,45)       -178.7129                                         !
 ! D62   D(20,19,37,38)        168.9431                                         !
 ! D63   D(20,19,37,45)          2.7976                                         !
 ! D64   D(18,21,22,23)        -58.2584                                         !
 ! D65   D(18,21,22,24)        122.0047                                         !
 ! D66   D(30,21,22,23)       -179.5564                                         !
 ! D67   D(30,21,22,24)          0.7068                                         !
 ! D68   D(31,21,22,23)         63.7651                                         !
 ! D69   D(31,21,22,24)       -115.9717                                         !
 ! D70   D(21,22,23,25)       -179.4824                                         !
 ! D71   D(21,22,23,32)          0.8043                                         !
 ! D72   D(24,22,23,25)          0.2587                                         !
 ! D73   D(24,22,23,32)       -179.4546                                         !
 ! D74   D(21,22,24,26)        179.0635                                         !
 ! D75   D(21,22,24,33)         -0.4884                                         !
 ! D76   D(23,22,24,26)         -0.681                                          !
 ! D77   D(23,22,24,33)        179.767                                          !
 ! D78   D(22,23,25,27)          0.2916                                         !
 ! D79   D(22,23,25,34)        179.5496                                         !
 ! D80   D(32,23,25,27)       -179.993                                          !
 ! D81   D(32,23,25,34)         -0.735                                          !
 ! D82   D(22,24,26,27)          0.5523                                         !
 ! D83   D(22,24,26,35)       -178.6077                                         !
 ! D84   D(33,24,26,27)       -179.8956                                         !
 ! D85   D(33,24,26,35)          0.9444                                         !
 ! D86   D(23,25,27,26)         -0.4269                                         !
 ! D87   D(23,25,27,36)        178.0526                                         !
 ! D88   D(34,25,27,26)       -179.6816                                         !
 ! D89   D(34,25,27,36)         -1.2021                                         !
 ! D90   D(24,26,27,25)          0.0101                                         !
 ! D91   D(24,26,27,36)       -178.4642                                         !
 ! D92   D(35,26,27,25)        179.1643                                         !
 ! D93   D(35,26,27,36)          0.6901                                         !
 ! D94   D(19,37,38,39)        -72.7059                                         !
 ! D95   D(19,37,38,41)        164.99                                           !
 ! D96   D(19,37,38,46)         46.1871                                         !
 ! D97   D(45,37,38,39)         93.552                                          !
 ! D98   D(45,37,38,41)        -28.7522                                         !
 ! D99   D(45,37,38,46)       -147.555                                          !
 ! D100  D(37,38,39,40)        160.484                                          !
 ! D101  D(37,38,39,51)        -21.5605                                         !
 ! D102  D(41,38,39,40)        -76.898                                          !
 ! D103  D(41,38,39,51)        101.0575                                         !
 ! D104  D(46,38,39,40)         39.0117                                         !
 ! D105  D(46,38,39,51)       -143.0328                                         !
 ! D106  D(37,38,41,42)         60.6411                                         !
 ! D107  D(37,38,41,47)        -59.1484                                         !
 ! D108  D(37,38,41,48)       -175.8562                                         !
 ! D109  D(39,38,41,42)        -64.7282                                         !
 ! D110  D(39,38,41,47)        175.4823                                         !
 ! D111  D(39,38,41,48)         58.7745                                         !
 ! D112  D(46,38,41,42)       -179.1445                                         !
 ! D113  D(46,38,41,47)         61.066                                          !
 ! D114  D(46,38,41,48)        -55.6418                                         !
 ! D115  D(38,39,51,52)        173.0644                                         !
 ! D116  D(38,39,51,63)          0.6356                                         !
 ! D117  D(40,39,51,52)         -9.1173                                         !
 ! D118  D(40,39,51,63)        178.454                                          !
 ! D119  D(38,41,42,43)        141.6244                                         !
 ! D120  D(38,41,42,44)        -38.8189                                         !
 ! D121  D(47,41,42,43)        -97.9289                                         !
 ! D122  D(47,41,42,44)         81.6279                                         !
 ! D123  D(48,41,42,43)         20.0237                                         !
 ! D124  D(48,41,42,44)       -160.4196                                         !
 ! D125  D(41,42,43,49)        174.6651                                         !
 ! D126  D(41,42,43,50)          0.7284                                         !
 ! D127  D(44,42,43,49)         -4.8917                                         !
 ! D128  D(44,42,43,50)       -178.8284                                         !
 ! D129  D(39,51,52,53)       -107.5722                                         !
 ! D130  D(39,51,52,55)        121.5125                                         !
 ! D131  D(39,51,52,64)          4.649                                          !
 ! D132  D(63,51,52,53)         64.7491                                         !
 ! D133  D(63,51,52,55)        -66.1661                                         !
 ! D134  D(63,51,52,64)        176.9703                                         !
 ! D135  D(51,52,53,54)       -111.0013                                         !
 ! D136  D(51,52,53,62)         66.0625                                         !
 ! D137  D(55,52,53,54)         17.2401                                         !
 ! D138  D(55,52,53,62)       -165.6961                                         !
 ! D139  D(64,52,53,54)        137.4456                                         !
 ! D140  D(64,52,53,62)        -45.4906                                         !
 ! D141  D(51,52,55,56)         21.4249                                         !
 ! D142  D(51,52,55,65)        147.6495                                         !
 ! D143  D(51,52,55,66)        -98.615                                          !
 ! D144  D(53,52,55,56)       -103.6878                                         !
 ! D145  D(53,52,55,65)         22.5368                                         !
 ! D146  D(53,52,55,66)        136.2723                                         !
 ! D147  D(64,52,55,56)        136.861                                          !
 ! D148  D(64,52,55,65)        -96.9144                                         !
 ! D149  D(64,52,55,66)         16.8211                                         !
 ! D150  D(52,53,54,71)         35.4621                                         !
 ! D151  D(62,53,54,71)       -141.2702                                         !
 ! D152  D(52,55,56,57)         87.1913                                         !
 ! D153  D(52,55,56,67)       -153.5013                                         !
 ! D154  D(52,55,56,68)        -38.1967                                         !
 ! D155  D(65,55,56,57)        -37.7539                                         !
 ! D156  D(65,55,56,67)         81.5535                                         !
 ! D157  D(65,55,56,68)       -163.1419                                         !
 ! D158  D(66,55,56,57)       -152.8589                                         !
 ! D159  D(66,55,56,67)        -33.5514                                         !
 ! D160  D(66,55,56,68)         81.7531                                         !
 ! D161  D(55,56,57,58)        -46.6522                                         !
 ! D162  D(55,56,57,69)         71.324                                          !
 ! D163  D(55,56,57,70)       -171.0068                                         !
 ! D164  D(67,56,57,58)       -166.8442                                         !
 ! D165  D(67,56,57,69)        -48.8679                                         !
 ! D166  D(67,56,57,70)         68.8012                                         !
 ! D167  D(68,56,57,58)         78.8723                                         !
 ! D168  D(68,56,57,69)       -163.1514                                         !
 ! D169  D(68,56,57,70)        -45.4823                                         !
 ! D170  D(56,57,58,59)        -86.716                                          !
 ! D171  D(69,57,58,59)        152.9352                                         !
 ! D172  D(70,57,58,59)         38.4604                                         !
 ! D173  D(57,58,59,60)         -9.6794                                         !
 ! D174  D(57,58,59,61)        172.3937                                         !
 ! D175  D(58,59,60,72)        170.5661                                         !
 ! D176  D(58,59,60,73)         21.7935                                         !
 ! D177  D(61,59,60,72)        -11.5158                                         !
 ! D178  D(61,59,60,73)       -160.2883                                         !
 ! D179  D(58,59,61,74)       -166.1936                                         !
 ! D180  D(58,59,61,75)        -11.8999                                         !
 ! D181  D(60,59,61,74)         15.7949                                         !
 ! D182  D(60,59,61,75)        170.0886                                         !
 --------------------------------------------------------------------------------
 Symmetry turned off by external request.
 Stoichiometry    C23H36N9O7(1+)
 Framework group  C1[X(C23H36N9O7)]
 Deg. of freedom   219
 Full point group                 C1      NOp   1
                          Input orientation:                          
 ---------------------------------------------------------------------
 Center     Atomic      Atomic             Coordinates (Angstroms)
 Number     Number       Type             X           Y           Z
 ---------------------------------------------------------------------
      1          7           0       -8.395967   -3.406660   -9.702035
      2          6           0       -7.970072   -4.335828   -8.602347
      3          6           0       -7.864713   -3.670232   -7.220605
      4          8           0       -8.418836   -4.186889   -6.257950
      5          6           0       -6.625504   -4.967743   -8.978224
      6          6           0       -6.720994   -5.799643  -10.253552
      7          7           0       -5.769025   -6.744995  -10.392202
      8          8           0       -7.596989   -5.595781  -11.100552
      9          1           0       -7.677405   -2.629104   -9.832026
     10          1           0       -8.744246   -5.098944   -8.510845
     11          1           0       -5.875355   -4.183023   -9.131546
     12          1           0       -6.272607   -5.571944   -8.138183
     13          1           0       -5.742832   -7.293972  -11.241424
     14          1           0       -5.059991   -6.892674   -9.687082
     15          1           0       -8.438641   -3.994112  -10.556422
     16          1           0       -9.287892   -2.940923   -9.471637
     17          7           0       -7.072075   -2.564056   -7.129124
     18          6           0       -6.531081   -2.158040   -5.838015
     19          6           0       -6.853319   -0.697011   -5.488484
     20          8           0       -5.963940    0.070483   -5.087532
     21          6           0       -5.008036   -2.410822   -5.779619
     22          6           0       -4.615030   -3.806258   -6.222015
     23          6           0       -5.122845   -4.946877   -5.581228
     24          6           0       -3.723169   -3.980813   -7.287523
     25          6           0       -4.743637   -6.225256   -5.992693
     26          6           0       -3.332657   -5.258535   -7.698791
     27          6           0       -3.842419   -6.386402   -7.051545
     28          1           0       -6.636528   -2.182074   -7.974935
     29          1           0       -7.043638   -2.779470   -5.095213
     30          1           0       -4.505791   -1.674642   -6.416736
     31          1           0       -4.667524   -2.209332   -4.758349
     32          1           0       -5.823388   -4.840214   -4.757448
     33          1           0       -3.322304   -3.108630   -7.798593
     34          1           0       -5.142114   -7.095543   -5.479109
     35          1           0       -2.621769   -5.367477   -8.513558
     36          1           0       -3.524362   -7.382490   -7.349338
     37          7           0       -8.129720   -0.246245   -5.588935
     38          6           0       -9.303759   -0.844159   -6.216530
     39          6           0       -9.273984   -0.821561   -7.762225
     40          8           0      -10.004809   -1.598391   -8.387471
     41          6           0      -10.575474   -0.114372   -5.729987
     42          6           0      -10.582152    1.375060   -6.084340
     43          7           0      -11.768255    1.893751   -6.455990
     44          8           0       -9.554679    2.067210   -6.024344
     45          1           0       -8.249646    0.737398   -5.358334
     46          1           0       -9.389454   -1.896948   -5.936880
     47          1           0      -10.639662   -0.199772   -4.638370
     48          1           0      -11.441784   -0.628197   -6.155756
     49          1           0      -11.834463    2.890359   -6.619530
     50          1           0      -12.615709    1.345739   -6.492512
     51          7           0       -8.463761    0.095278   -8.323217
     52          6           0       -8.158178    0.215793   -9.749500
     53          6           0       -6.675772   -0.278867   -9.935712
     54          8           0       -5.774964    0.528618  -10.238770
     55          6           0       -8.537663    1.606426  -10.339733
     56          6           0       -8.683463    2.805329   -9.371520
     57          6           0       -7.386551    3.576364   -9.068393
     58          7           0       -6.259422    2.703801   -8.749626
     59          6           0       -5.933872    2.209887   -7.555652
     60          7           0       -6.522087    2.615371   -6.412501
     61          7           0       -4.946899    1.296881   -7.488793
     62          8           0       -6.498676   -1.518925   -9.694237
     63          1           0       -7.942864    0.676759   -7.682602
     64          1           0       -8.788402   -0.530519  -10.238454
     65          1           0       -7.818398    1.840756  -11.132703
     66          1           0       -9.507398    1.480725  -10.831349
     67          1           0       -9.377129    3.525569   -9.821293
     68          1           0       -9.152463    2.481611   -8.436824
     69          1           0       -7.079491    4.148653   -9.949122
     70          1           0       -7.533568    4.302940   -8.262765
     71          1           0       -5.941753    2.112708   -9.535485
     72          1           0       -6.309861    2.074907   -5.576018
     73          1           0       -7.433937    3.052721   -6.437992
     74          1           0       -4.838118    0.765312   -6.630321
     75          1           0       -4.619812    0.888291   -8.359352
 ---------------------------------------------------------------------
 Rotational constants (GHZ):           0.1525775           0.0712653           0.0696014
 Standard basis: 6-31G(d) (6D, 7F)
   657 basis functions,  1236 primitive gaussians,   657 cartesian basis functions
   146 alpha electrons      146 beta electrons
       nuclear repulsion energy      5210.7399717056 Hartrees.
 NAtoms=   75 NActive=   75 NUniq=   75 SFac= 1.00D+00 NAtFMM=   60 NAOKFM=T Big=T
 Integral buffers will be    131072 words long.
 Raffenetti 2 integral format.
 Two-electron integral symmetry is turned off.
 Nuclear repulsion after empirical dispersion term =     5210.6101101794 Hartrees.
 One-electron integrals computed using PRISM.
 NBasis=   657 RedAO= T EigKep=  4.64D-04  NBF=   657
 NBsUse=   657 1.00D-06 EigRej= -1.00D+00 NBFU=   657
 Initial guess from the checkpoint file:  "conf-33.chk"
 B after Tr=     0.000000    0.000000    0.000000
         Rot=    1.000000    0.000000    0.000000    0.000000 Ang=   0.00 deg.
 Requested convergence on RMS density matrix=1.00D-08 within 128 cycles.
 Requested convergence on MAX density matrix=1.00D-06.
 Requested convergence on             energy=1.00D-06.
 No special actions if energy rises.
 SCF Done:  E(RB3LYP) =  -1917.54513367     A.U. after    2 cycles
            NFock=  2  Conv=0.99D-08     -V/T= 2.0093

 **********************************************************************

            Population analysis using the SCF Density.

 **********************************************************************

 Alpha  occ. eigenvalues --  -19.24941 -19.24436 -19.23853 -19.22917 -19.22506
 Alpha  occ. eigenvalues --  -19.21356 -19.21160 -14.51570 -14.48707 -14.48365
 Alpha  occ. eigenvalues --  -14.48289 -14.47957 -14.47644 -14.47607 -14.46633
 Alpha  occ. eigenvalues --  -14.46125 -10.44638 -10.42547 -10.41514 -10.41024
 Alpha  occ. eigenvalues --  -10.40214 -10.40074 -10.39219 -10.36116 -10.36113
 Alpha  occ. eigenvalues --  -10.34682 -10.33764 -10.33732 -10.32737 -10.30856
 Alpha  occ. eigenvalues --  -10.29426 -10.29421 -10.29308 -10.29230 -10.28372
 Alpha  occ. eigenvalues --  -10.28303 -10.28237 -10.28183 -10.28112  -1.16683
 Alpha  occ. eigenvalues --   -1.16080  -1.15612  -1.14914  -1.14509  -1.14099
 Alpha  occ. eigenvalues --   -1.13252  -1.07877  -1.05974  -1.05427  -1.03929
 Alpha  occ. eigenvalues --   -1.03485  -1.03120  -1.02727  -1.01237  -1.01085
 Alpha  occ. eigenvalues --   -0.94909  -0.91057  -0.90159  -0.89695  -0.88207
 Alpha  occ. eigenvalues --   -0.85364  -0.83920  -0.83581  -0.80556  -0.79056
 Alpha  occ. eigenvalues --   -0.78535  -0.76624  -0.75059  -0.72820  -0.71356
 Alpha  occ. eigenvalues --   -0.71028  -0.70470  -0.70325  -0.69843  -0.69554
 Alpha  occ. eigenvalues --   -0.69067  -0.68795  -0.67210  -0.66815  -0.66344
 Alpha  occ. eigenvalues --   -0.66272  -0.65328  -0.63873  -0.63561  -0.62652
 Alpha  occ. eigenvalues --   -0.62011  -0.61297  -0.61248  -0.60569  -0.59866
 Alpha  occ. eigenvalues --   -0.58993  -0.58661  -0.58397  -0.58148  -0.57661
 Alpha  occ. eigenvalues --   -0.56841  -0.56515  -0.56403  -0.55314  -0.55021
 Alpha  occ. eigenvalues --   -0.54947  -0.54517  -0.54149  -0.53946  -0.53097
 Alpha  occ. eigenvalues --   -0.52903  -0.52683  -0.52338  -0.52162  -0.51652
 Alpha  occ. eigenvalues --   -0.51388  -0.51066  -0.50772  -0.50574  -0.49833
 Alpha  occ. eigenvalues --   -0.49643  -0.49444  -0.49003  -0.48510  -0.47880
 Alpha  occ. eigenvalues --   -0.47756  -0.46786  -0.46586  -0.46107  -0.44782
 Alpha  occ. eigenvalues --   -0.44547  -0.44389  -0.43308  -0.43009  -0.41005
 Alpha  occ. eigenvalues --   -0.40055  -0.39720  -0.39238  -0.39017  -0.38760
 Alpha  occ. eigenvalues --   -0.37505  -0.37366  -0.37292  -0.37015  -0.36319
 Alpha  occ. eigenvalues --   -0.36270  -0.35754  -0.35231  -0.34329  -0.34279
 Alpha  occ. eigenvalues --   -0.33869
 Alpha virt. eigenvalues --   -0.11692  -0.10851  -0.10767  -0.09958  -0.09801
 Alpha virt. eigenvalues --   -0.09553  -0.09362  -0.07486  -0.07063  -0.04394
 Alpha virt. eigenvalues --   -0.03332  -0.01971  -0.01729  -0.00888  -0.00336
 Alpha virt. eigenvalues --    0.00498   0.01133   0.01312   0.01664   0.01975
 Alpha virt. eigenvalues --    0.02093   0.02932   0.03098   0.03411   0.03588
 Alpha virt. eigenvalues --    0.04298   0.04578   0.04899   0.04989   0.05301
 Alpha virt. eigenvalues --    0.05560   0.05970   0.06157   0.06599   0.06709
 Alpha virt. eigenvalues --    0.07053   0.07363   0.07775   0.07896   0.08011
 Alpha virt. eigenvalues --    0.08447   0.08635   0.09243   0.09420   0.09979
 Alpha virt. eigenvalues --    0.10190   0.10476   0.10937   0.11683   0.12096
 Alpha virt. eigenvalues --    0.12663   0.12828   0.13166   0.13673   0.14137
 Alpha virt. eigenvalues --    0.14444   0.14666   0.15244   0.15468   0.16295
 Alpha virt. eigenvalues --    0.16694   0.17485   0.17739   0.18273   0.20207
 Alpha virt. eigenvalues --    0.21457   0.21770   0.22976   0.23373   0.23497
 Alpha virt. eigenvalues --    0.24189   0.24474   0.24953   0.26211   0.26659
 Alpha virt. eigenvalues --    0.27314   0.28938   0.29324   0.29801   0.31012
 Alpha virt. eigenvalues --    0.31951   0.32651   0.33389   0.36424   0.36807
 Alpha virt. eigenvalues --    0.37441   0.38080   0.39276   0.39380   0.39813
 Alpha virt. eigenvalues --    0.40741   0.41402   0.42122   0.42732   0.43199
 Alpha virt. eigenvalues --    0.43960   0.44347   0.44883   0.45179   0.46056
 Alpha virt. eigenvalues --    0.46363   0.46519   0.46670   0.46946   0.47349
 Alpha virt. eigenvalues --    0.47587   0.48192   0.48737   0.49176   0.49554
 Alpha virt. eigenvalues --    0.49876   0.50259   0.51291   0.51374   0.51651
 Alpha virt. eigenvalues --    0.52054   0.52425   0.52759   0.53037   0.53171
 Alpha virt. eigenvalues --    0.53480   0.53646   0.54275   0.54460   0.54704
 Alpha virt. eigenvalues --    0.55281   0.55355   0.55695   0.55919   0.56046
 Alpha virt. eigenvalues --    0.56567   0.56724   0.57727   0.57875   0.58462
 Alpha virt. eigenvalues --    0.59085   0.59589   0.60309   0.60950   0.61429
 Alpha virt. eigenvalues --    0.62569   0.62764   0.63265   0.64056   0.64482
 Alpha virt. eigenvalues --    0.64676   0.65994   0.66077   0.66712   0.67518
 Alpha virt. eigenvalues --    0.68187   0.69353   0.69824   0.70116   0.70839
 Alpha virt. eigenvalues --    0.71379   0.71845   0.71905   0.72506   0.72994
 Alpha virt. eigenvalues --    0.73788   0.73874   0.74489   0.74589   0.74889
 Alpha virt. eigenvalues --    0.75165   0.75619   0.75794   0.76160   0.76410
 Alpha virt. eigenvalues --    0.76859   0.77304   0.77511   0.77781   0.78376
 Alpha virt. eigenvalues --    0.78695   0.78809   0.79785   0.80608   0.81082
 Alpha virt. eigenvalues --    0.81357   0.81859   0.82027   0.82341   0.82860
 Alpha virt. eigenvalues --    0.83284   0.83416   0.83520   0.84184   0.84603
 Alpha virt. eigenvalues --    0.85015   0.85158   0.85706   0.85903   0.86686
 Alpha virt. eigenvalues --    0.87505   0.87981   0.88838   0.89341   0.90335
 Alpha virt. eigenvalues --    0.90583   0.91149   0.92340   0.92498   0.93640
 Alpha virt. eigenvalues --    0.94358   0.94712   0.96013   0.96149   0.96711
 Alpha virt. eigenvalues --    0.97390   0.98327   0.99194   1.00006   1.00816
 Alpha virt. eigenvalues --    1.01365   1.01429   1.01879   1.02438   1.03449
 Alpha virt. eigenvalues --    1.04418   1.05180   1.05827   1.07195   1.07392
 Alpha virt. eigenvalues --    1.08208   1.08966   1.09217   1.09684   1.10178
 Alpha virt. eigenvalues --    1.10907   1.11450   1.12564   1.12919   1.14074
 Alpha virt. eigenvalues --    1.14497   1.14982   1.15654   1.16410   1.17090
 Alpha virt. eigenvalues --    1.17673   1.17898   1.18243   1.19311   1.19709
 Alpha virt. eigenvalues --    1.20161   1.21722   1.22767   1.23759   1.24820
 Alpha virt. eigenvalues --    1.25657   1.25967   1.26506   1.27890   1.28607
 Alpha virt. eigenvalues --    1.29129   1.29249   1.30374   1.31289   1.32382
 Alpha virt. eigenvalues --    1.33315   1.33578   1.34074   1.34617   1.34780
 Alpha virt. eigenvalues --    1.35781   1.36774   1.37606   1.38383   1.38541
 Alpha virt. eigenvalues --    1.38961   1.39185   1.39589   1.40614   1.41003
 Alpha virt. eigenvalues --    1.42053   1.42451   1.42705   1.44646   1.45529
 Alpha virt. eigenvalues --    1.46392   1.48022   1.48941   1.49081   1.51027
 Alpha virt. eigenvalues --    1.52817   1.53699   1.53843   1.54218   1.55900
 Alpha virt. eigenvalues --    1.56056   1.56528   1.57188   1.58196   1.58688
 Alpha virt. eigenvalues --    1.60618   1.61386   1.61875   1.62539   1.62784
 Alpha virt. eigenvalues --    1.63150   1.64203   1.64603   1.65776   1.65801
 Alpha virt. eigenvalues --    1.66445   1.67245   1.67776   1.69336   1.69738
 Alpha virt. eigenvalues --    1.69953   1.70450   1.71162   1.71380   1.71906
 Alpha virt. eigenvalues --    1.72415   1.72895   1.73748   1.74043   1.74724
 Alpha virt. eigenvalues --    1.75023   1.75327   1.76039   1.76853   1.77305
 Alpha virt. eigenvalues --    1.77827   1.78229   1.78897   1.79345   1.79626
 Alpha virt. eigenvalues --    1.80180   1.80673   1.81228   1.81703   1.82656
 Alpha virt. eigenvalues --    1.83014   1.83290   1.83795   1.84445   1.84909
 Alpha virt. eigenvalues --    1.85373   1.85714   1.86993   1.88081   1.88515
 Alpha virt. eigenvalues --    1.89147   1.89570   1.90028   1.90323   1.91473
 Alpha virt. eigenvalues --    1.92305   1.93109   1.93367   1.93796   1.94587
 Alpha virt. eigenvalues --    1.95254   1.96284   1.96895   1.97657   1.98388
 Alpha virt. eigenvalues --    1.99245   1.99873   2.00429   2.01322   2.01681
 Alpha virt. eigenvalues --    2.02112   2.02529   2.03909   2.04507   2.05139
 Alpha virt. eigenvalues --    2.05514   2.06365   2.07382   2.08427   2.09502
 Alpha virt. eigenvalues --    2.10386   2.11111   2.11741   2.12155   2.13805
 Alpha virt. eigenvalues --    2.14590   2.14773   2.16061   2.16366   2.17660
 Alpha virt. eigenvalues --    2.18602   2.19071   2.19558   2.19970   2.20627
 Alpha virt. eigenvalues --    2.22458   2.22878   2.23074   2.23828   2.25135
 Alpha virt. eigenvalues --    2.26540   2.26869   2.27842   2.28432   2.28816
 Alpha virt. eigenvalues --    2.30576   2.31049   2.31410   2.32463   2.32519
 Alpha virt. eigenvalues --    2.34275   2.34975   2.36060   2.37543   2.38063
 Alpha virt. eigenvalues --    2.39318   2.39886   2.40343   2.41204   2.41719
 Alpha virt. eigenvalues --    2.44303   2.45241   2.45575   2.46963   2.47870
 Alpha virt. eigenvalues --    2.48711   2.49705   2.50136   2.50712   2.51067
 Alpha virt. eigenvalues --    2.51422   2.52213   2.52633   2.53788   2.54771
 Alpha virt. eigenvalues --    2.55359   2.55808   2.56495   2.56697   2.58156
 Alpha virt. eigenvalues --    2.58993   2.59964   2.60877   2.62646   2.63138
 Alpha virt. eigenvalues --    2.63689   2.64557   2.65783   2.66610   2.67169
 Alpha virt. eigenvalues --    2.67819   2.69824   2.72065   2.73049   2.76333
 Alpha virt. eigenvalues --    2.77400   2.81072   2.83789   2.85118   2.88351
 Alpha virt. eigenvalues --    2.88638   2.89743   2.90320   2.90652   2.91138
 Alpha virt. eigenvalues --    2.91816   2.93268   2.93992   2.96557   2.98333
 Alpha virt. eigenvalues --    2.98707   2.99127   3.03569   3.04062   3.05569
 Alpha virt. eigenvalues --    3.09661   3.31510   3.68463   3.73479   3.75197
 Alpha virt. eigenvalues --    3.80135   3.81814   3.86726   3.90191   3.95802
 Alpha virt. eigenvalues --    3.97268   3.98379   4.00214   4.01749   4.05109
 Alpha virt. eigenvalues --    4.06211   4.08013   4.09818   4.12183   4.12637
 Alpha virt. eigenvalues --    4.14151   4.16670   4.20960   4.22013   4.23663
 Alpha virt. eigenvalues --    4.28181   4.29460   4.31243   4.32342   4.35226
 Alpha virt. eigenvalues --    4.38068   4.39372   4.40329   4.42812   4.48672
 Alpha virt. eigenvalues --    4.51276   4.55086   4.58949   4.62533   4.65046
 Alpha virt. eigenvalues --    4.67978
          Condensed to atoms (all electrons):
 Mulliken charges:
               1
     1  N   -0.813925
     2  C   -0.109816
     3  C    0.630458
     4  O   -0.514548
     5  C   -0.415274
     6  C    0.637887
     7  N   -0.741654
     8  O   -0.534143
     9  H    0.430490
    10  H    0.217062
    11  H    0.218819
    12  H    0.212163
    13  H    0.365994
    14  H    0.357705
    15  H    0.418556
    16  H    0.427486
    17  N   -0.651954
    18  C   -0.080964
    19  C    0.625701
    20  O   -0.555563
    21  C   -0.356355
    22  C    0.173468
    23  C   -0.178849
    24  C   -0.197509
    25  C   -0.138108
    26  C   -0.136661
    27  C   -0.159196
    28  H    0.390069
    29  H    0.220057
    30  H    0.144221
    31  H    0.194915
    32  H    0.152207
    33  H    0.143504
    34  H    0.158258
    35  H    0.152066
    36  H    0.150088
    37  N   -0.631975
    38  C   -0.060511
    39  C    0.642027
    40  O   -0.583280
    41  C   -0.395733
    42  C    0.626539
    43  N   -0.725824
    44  O   -0.560744
    45  H    0.370126
    46  H    0.221288
    47  H    0.217640
    48  H    0.197590
    49  H    0.366327
    50  H    0.367942
    51  N   -0.605629
    52  C   -0.058892
    53  C    0.602489
    54  O   -0.553228
    55  C   -0.301247
    56  C   -0.302008
    57  C   -0.178690
    58  N   -0.592076
    59  C    0.718816
    60  N   -0.767711
    61  N   -0.780986
    62  O   -0.604559
    63  H    0.361166
    64  H    0.169766
    65  H    0.177853
    66  H    0.166087
    67  H    0.166714
    68  H    0.165442
    69  H    0.193993
    70  H    0.174127
    71  H    0.403554
    72  H    0.385985
    73  H    0.386679
    74  H    0.398299
    75  H    0.385989
 Sum of Mulliken charges =   1.00000
 Mulliken charges with hydrogens summed into heavy atoms:
               1
     1  N    0.462606
     2  C    0.107247
     3  C    0.630458
     4  O   -0.514548
     5  C    0.015708
     6  C    0.637887
     7  N   -0.017955
     8  O   -0.534143
    17  N   -0.261886
    18  C    0.139093
    19  C    0.625701
    20  O   -0.555563
    21  C   -0.017219
    22  C    0.173468
    23  C   -0.026642
    24  C   -0.054004
    25  C    0.020150
    26  C    0.015405
    27  C   -0.009108
    37  N   -0.261849
    38  C    0.160778
    39  C    0.642027
    40  O   -0.583280
    41  C    0.019497
    42  C    0.626539
    43  N    0.008445
    44  O   -0.560744
    51  N   -0.244463
    52  C    0.110874
    53  C    0.602489
    54  O   -0.553228
    55  C    0.042692
    56  C    0.030147
    57  C    0.189430
    58  N   -0.188522
    59  C    0.718816
    60  N    0.004954
    61  N    0.003301
    62  O   -0.604559
 Electronic spatial extent (au):  <R**2>=         136543.2103
 Charge=              1.0000 electrons
 Dipole moment (field-independent basis, Debye):
    X=            -39.0614    Y=             -4.1468    Z=            -36.8151  Tot=             53.8362
 Quadrupole moment (field-independent basis, Debye-Ang):
   XX=            135.6180   YY=           -137.8346   ZZ=             66.4817
   XY=            -11.5508   XZ=            290.4321   YZ=             42.6539
 Traceless Quadrupole moment (field-independent basis, Debye-Ang):
   XX=            114.1963   YY=           -159.2563   ZZ=             45.0600
   XY=            -11.5508   XZ=            290.4321   YZ=             42.6539
 Octapole moment (field-independent basis, Debye-Ang**2):
  XXX=           1155.7019  YYY=            588.9738  ZZZ=           2853.1522  XYY=           1148.3609
  XXY=            723.2051  XXZ=           -866.7824  XZZ=           -640.5346  YZZ=            -96.9831
  YYZ=            942.1493  XYZ=             42.3298
 Hexadecapole moment (field-independent basis, Debye-Ang**3):
 XXXX=         -34588.1751 YYYY=         -11677.8852 ZZZZ=         -65491.1307 XXXY=         -10943.3349
 XXXZ=         -11571.5978 YYYX=          -3994.5272 YYYZ=          -4020.4176 ZZZX=         -19317.0911
 ZZZY=          -3712.1106 XXYY=         -12385.9209 XXZZ=          -6941.6426 YYZZ=          -9310.4274
 XXYZ=          -5310.5568 YYXZ=          -8307.8530 ZZXY=          -1779.5112
 N-N= 5.210610110179D+03 E-N=-1.486027574551D+04  KE= 1.899812223020D+03
 Unable to Open any file for archive entry.
 1\1\GINC-LAC-317\SP\RB3LYP\6-31G(d)\C23H36N9O7(1+)\KENGMITH\03-Jun-202
 2\0\\# B3LYP/6-31G* empiricaldispersion=gd3 guess=read geom=check nosy
 mm integral(ultrafinegrid)\\Candidate Structure: Conf:33 Charge calc i
 n gas phase\\1,1\N,0,-8.3959666504,-3.4066595594,-9.7020350166\C,0,-7.
 9700724964,-4.3358278393,-8.6023470721\C,0,-7.8647130038,-3.6702320292
 ,-7.2206054669\O,0,-8.4188357056,-4.1868893285,-6.2579495063\C,0,-6.62
 55038935,-4.9677429187,-8.9782239892\C,0,-6.7209935923,-5.7996428053,-
 10.2535522529\N,0,-5.7690248818,-6.7449947633,-10.3922016124\O,0,-7.59
 69890709,-5.595781205,-11.1005521252\H,0,-7.67740516,-2.6291040578,-9.
 8320263381\H,0,-8.7442457728,-5.0989444535,-8.5108450141\H,0,-5.875355
 2545,-4.1830231299,-9.1315462088\H,0,-6.272606671,-5.5719441364,-8.138
 1831855\H,0,-5.7428318629,-7.2939720358,-11.2414236\H,0,-5.0599911711,
 -6.8926740241,-9.6870821574\H,0,-8.4386413709,-3.9941123596,-10.556421
 9723\H,0,-9.2878915089,-2.9409232649,-9.4716366414\N,0,-7.0720754458,-
 2.564055585,-7.1291235631\C,0,-6.5310814226,-2.1580399226,-5.838015365
 6\C,0,-6.8533191879,-0.6970113697,-5.4884842211\O,0,-5.9639395799,0.07
 04831819,-5.0875319369\C,0,-5.0080360485,-2.4108215079,-5.7796189694\C
 ,0,-4.6150303375,-3.8062577034,-6.2220152308\C,0,-5.1228447304,-4.9468
 773113,-5.5812277151\C,0,-3.7231691317,-3.9808126452,-7.2875228862\C,0
 ,-4.7436368781,-6.2252564255,-5.9926931744\C,0,-3.3326568245,-5.258534
 8492,-7.6987910131\C,0,-3.8424188261,-6.3864015685,-7.0515454698\H,0,-
 6.636527886,-2.182074388,-7.9749351519\H,0,-7.0436381776,-2.7794699926
 ,-5.0952130995\H,0,-4.5057906003,-1.6746416258,-6.4167364566\H,0,-4.66
 75235819,-2.2093321609,-4.758348873\H,0,-5.8233879211,-4.8402142394,-4
 .7574481247\H,0,-3.3223039831,-3.1086295745,-7.7985929992\H,0,-5.14211
 42083,-7.0955430364,-5.4791085771\H,0,-2.6217688053,-5.3674767481,-8.5
 135575455\H,0,-3.5243620895,-7.3824898653,-7.3493381271\N,0,-8.1297204
 008,-0.2462446885,-5.5889353919\C,0,-9.3037589803,-0.8441586242,-6.216
 5304988\C,0,-9.2739839426,-0.8215606777,-7.7622250596\O,0,-10.00480905
 36,-1.5983910897,-8.3874711595\C,0,-10.5754739844,-0.1143722227,-5.729
 9870963\C,0,-10.5821520843,1.3750596569,-6.084340103\N,0,-11.768255267
 8,1.8937505032,-6.4559901235\O,0,-9.5546790266,2.067210054,-6.02434387
 94\H,0,-8.2496458156,0.7373982117,-5.3583343635\H,0,-9.3894535509,-1.8
 969484749,-5.9368799939\H,0,-10.6396623463,-0.1997718702,-4.6383700602
 \H,0,-11.4417839461,-0.6281972174,-6.1557555502\H,0,-11.8344627365,2.8
 903593979,-6.6195301024\H,0,-12.6157093671,1.3457394274,-6.4925121334\
 N,0,-8.4637612339,0.0952781664,-8.3232167643\C,0,-8.1581779867,0.21579
 26013,-9.7494995183\C,0,-6.6757722877,-0.2788667693,-9.9357119357\O,0,
 -5.7749642049,0.5286183977,-10.2387700867\C,0,-8.537663409,1.606426188
 4,-10.3397329692\C,0,-8.6834633381,2.8053288484,-9.3715201577\C,0,-7.3
 865514111,3.5763642436,-9.0683931736\N,0,-6.2594223637,2.7038010883,-8
 .749625908\C,0,-5.9338724472,2.2098873041,-7.5556524492\N,0,-6.5220873
 587,2.6153709262,-6.4125011631\N,0,-4.9468990095,1.2968810911,-7.48879
 26972\O,0,-6.4986760547,-1.518924879,-9.6942366035\H,0,-7.9428638585,0
 .6767593949,-7.6826018683\H,0,-8.7884024759,-0.5305191425,-10.23845420
 73\H,0,-7.8183981238,1.8407559984,-11.1327026864\H,0,-9.5073983606,1.4
 807253694,-10.8313486876\H,0,-9.3771290549,3.5255688559,-9.8212925236\
 H,0,-9.1524627043,2.4816109683,-8.4368239693\H,0,-7.0794907553,4.14865
 32295,-9.949121774\H,0,-7.5335679458,4.3029404803,-8.2627648626\H,0,-5
 .9417528907,2.1127083669,-9.5354845997\H,0,-6.3098612182,2.0749074739,
 -5.5760184852\H,0,-7.4339365995,3.0527205783,-6.4379916861\H,0,-4.8381
 182976,0.7653115739,-6.6303211185\H,0,-4.619811864,0.8882911881,-8.359
 3520198\\Version=ES64L-G16RevC.01\HF=-1917.5451337\RMSD=9.930e-09\Dipo
 le=-1.7523658,1.1291144,0.1672202\Quadrupole=84.9021246,-118.4031383,3
 3.5010138,-8.5877398,215.9291788,31.7121144\PG=C01 [X(C23H36N9O7)]\\@
 The archive entry for this job was punched.


 There ain't no surer way to find out whether you
 like people or hate them than to travel with them.
                                     -- Mark Twain
 Job cpu time:       0 days  0 hours  4 minutes 43.4 seconds.
 Elapsed time:       0 days  0 hours  1 minutes 11.6 seconds.
 File lengths (MBytes):  RWF=    344 Int=      0 D2E=      0 Chk=     48 Scr=     16
 Normal termination of Gaussian 16 at Fri Jun  3 06:01:15 2022.
