 Entering Gaussian System, Link 0=/opt/software/Gaussian/g16-AVX2-C.01/g16/g16
 Input=charge-conf-112.com
 Output=charge-conf-112.log
 Initial command:
 /opt/software/Gaussian/g16-AVX2-C.01/g16/l1.exe "/mnt/gs18/scratch/users/kengmith/Gau-86191.inp" -scrdir="/mnt/gs18/scratch/users/kengmith/"
 Entering Link 1 = /opt/software/Gaussian/g16-AVX2-C.01/g16/l1.exe PID=     86201.
  
 Copyright (c) 1988-2019, Gaussian, Inc.  All Rights Reserved.
  
 This is part of the Gaussian(R) 16 program.  It is based on
 the Gaussian(R) 09 system (copyright 2009, Gaussian, Inc.),
 the Gaussian(R) 03 system (copyright 2003, Gaussian, Inc.),
 the Gaussian(R) 98 system (copyright 1998, Gaussian, Inc.),
 the Gaussian(R) 94 system (copyright 1995, Gaussian, Inc.),
 the Gaussian 92(TM) system (copyright 1992, Gaussian, Inc.),
 the Gaussian 90(TM) system (copyright 1990, Gaussian, Inc.),
 the Gaussian 88(TM) system (copyright 1988, Gaussian, Inc.),
 the Gaussian 86(TM) system (copyright 1986, Carnegie Mellon
 University), and the Gaussian 82(TM) system (copyright 1983,
 Carnegie Mellon University). Gaussian is a federally registered
 trademark of Gaussian, Inc.
  
 This software contains proprietary and confidential information,
 including trade secrets, belonging to Gaussian, Inc.
  
 This software is provided under written license and may be
 used, copied, transmitted, or stored only in accord with that
 written license.
  
 The following legend is applicable only to US Government
 contracts under FAR:
  
                    RESTRICTED RIGHTS LEGEND
  
 Use, reproduction and disclosure by the US Government is
 subject to restrictions as set forth in subparagraphs (a)
 and (c) of the Commercial Computer Software - Restricted
 Rights clause in FAR 52.227-19.
  
 Gaussian, Inc.
 340 Quinnipiac St., Bldg. 40, Wallingford CT 06492
  
  
 ---------------------------------------------------------------
 Warning -- This program may not be used in any manner that
 competes with the business of Gaussian, Inc. or will provide
 assistance to any competitor of Gaussian, Inc.  The licensee
 of this program is prohibited from giving any competitor of
 Gaussian, Inc. access to this program.  By using this program,
 the user acknowledges that Gaussian, Inc. is engaged in the
 business of creating and licensing software in the field of
 computational chemistry and represents and warrants to the
 licensee that it is not a competitor of Gaussian, Inc. and that
 it will not use this program in any manner prohibited above.
 ---------------------------------------------------------------
  

 Cite this work as:
 Gaussian 16, Revision C.01,
 M. J. Frisch, G. W. Trucks, H. B. Schlegel, G. E. Scuseria, 
 M. A. Robb, J. R. Cheeseman, G. Scalmani, V. Barone, 
 G. A. Petersson, H. Nakatsuji, X. Li, M. Caricato, A. V. Marenich, 
 J. Bloino, B. G. Janesko, R. Gomperts, B. Mennucci, H. P. Hratchian, 
 J. V. Ortiz, A. F. Izmaylov, J. L. Sonnenberg, D. Williams-Young, 
 F. Ding, F. Lipparini, F. Egidi, J. Goings, B. Peng, A. Petrone, 
 T. Henderson, D. Ranasinghe, V. G. Zakrzewski, J. Gao, N. Rega, 
 G. Zheng, W. Liang, M. Hada, M. Ehara, K. Toyota, R. Fukuda, 
 J. Hasegawa, M. Ishida, T. Nakajima, Y. Honda, O. Kitao, H. Nakai, 
 T. Vreven, K. Throssell, J. A. Montgomery, Jr., J. E. Peralta, 
 F. Ogliaro, M. J. Bearpark, J. J. Heyd, E. N. Brothers, K. N. Kudin, 
 V. N. Staroverov, T. A. Keith, R. Kobayashi, J. Normand, 
 K. Raghavachari, A. P. Rendell, J. C. Burant, S. S. Iyengar, 
 J. Tomasi, M. Cossi, J. M. Millam, M. Klene, C. Adamo, R. Cammi, 
 J. W. Ochterski, R. L. Martin, K. Morokuma, O. Farkas, 
 J. B. Foresman, and D. J. Fox, Gaussian, Inc., Wallingford CT, 2019.
 
 ******************************************
 Gaussian 16:  ES64L-G16RevC.01  3-Jul-2019
                 3-Jun-2022 
 ******************************************
 %mem=8gb
 %nproc=4
 Will use up to    4 processors via shared memory.
 %chk=conf-112.chk
 ----------------------------------------------------------------------
 # B3LYP/6-31G* empiricaldispersion=gd3 guess=read geom=check nosymm in
 tegral(ultrafinegrid)
 ----------------------------------------------------------------------
 1/29=2,38=1,172=1/1;
 2/12=2,15=1,40=1/2;
 3/5=1,6=6,7=1,11=2,14=-4,25=1,30=1,74=-5,75=-5,116=-2,124=31/1,2,3;
 4/5=1/1;
 5/5=2,38=6/2;
 6/7=2,8=2,9=2,10=2,28=1/1;
 99/5=1,9=1/99;
 ------------------------------------------------------
 Candidate Structure: Conf:112 Charge calc in gas phase
 ------------------------------------------------------
 Structure from the checkpoint file:  "conf-112.chk"
 Charge =  1 Multiplicity = 1
 Redundant internal coordinates found in file.  (old form).
 N,0,-9.7106772206,-0.8006535442,-9.0827505913
 C,0,-9.659185378,0.1937761419,-7.9592204845
 C,0,-8.2450988322,0.4590419474,-7.4175342537
 O,0,-7.8494022656,1.6126597171,-7.3019787666
 C,0,-10.5682742457,-0.2909370409,-6.8246715903
 C,0,-12.0259358008,-0.3921781201,-7.2636096961
 N,0,-12.929272576,-0.3362201819,-6.2636031016
 O,0,-12.3408512838,-0.5384379577,-8.4492604163
 H,0,-9.3674770416,-1.754554555,-8.7505867305
 H,0,-10.0121507288,1.1457451707,-8.3582618229
 H,0,-10.2401361483,-1.2791283995,-6.4813801291
 H,0,-10.4590150405,0.3842653295,-5.9717882805
 H,0,-13.9101896632,-0.4527725668,-6.4814330826
 H,0,-12.6483987859,-0.2177451551,-5.2998469077
 H,0,-10.7112725099,-0.8596696983,-9.3513194007
 H,0,-9.0870719728,-0.5216670155,-9.8565598249
 N,0,-7.5290274128,-0.6272506942,-7.0081384189
 C,0,-6.427074409,-0.4633918714,-6.0683284633
 C,0,-5.111913168,-1.0722031538,-6.5786263757
 O,0,-4.4328097374,-1.8157606858,-5.8529101653
 C,0,-6.7970411266,-1.0432914321,-4.6849218537
 C,0,-8.142511827,-0.5662209334,-4.1754772438
 C,0,-8.4168542925,0.7991335962,-4.0019825909
 C,0,-9.1438238221,-1.4933245453,-3.860756204
 C,0,-9.6567072136,1.2227813958,-3.5217186612
 C,0,-10.3847405014,-1.0757888149,-3.3708643426
 C,0,-10.6453243475,0.2856927008,-3.1994612138
 H,0,-7.9185894775,-1.5670229748,-7.134589327
 H,0,-6.2643465811,0.6174165069,-5.991078829
 H,0,-6.803118333,-2.1366411705,-4.7531492246
 H,0,-5.9958063252,-0.7887328799,-3.9829171513
 H,0,-7.6609913707,1.5402659411,-4.2472782477
 H,0,-8.9506990637,-2.55537746,-3.992407191
 H,0,-9.847188978,2.2837482323,-3.3875114528
 H,0,-11.1375670447,-1.8157088355,-3.1122964932
 H,0,-11.5989279481,0.6168724554,-2.795751689
 N,0,-4.6704436489,-0.770932983,-7.8263264465
 C,0,-5.3452600548,-0.1154272465,-8.9419362591
 C,0,-6.413131038,-0.9917397193,-9.6365941221
 O,0,-7.2799070699,-0.4453269348,-10.3283633036
 C,0,-4.2991232111,0.3239569299,-9.990304824
 C,0,-3.5031761439,-0.8490873519,-10.5685972976
 N,0,-3.2149476426,-0.7833299237,-11.8825760457
 O,0,-3.1368597361,-1.8023899921,-9.8647449485
 H,0,-3.8033549342,-1.2326474389,-8.091045841
 H,0,-5.8729716593,0.7765680916,-8.5956956173
 H,0,-3.5873572324,1.0112617489,-9.5169513142
 H,0,-4.8220097084,0.8755284074,-10.7765357584
 H,0,-2.6214354374,-1.4961897927,-12.2874557734
 H,0,-3.4918988531,-0.004955372,-12.4633223373
 N,0,-6.2887117771,-2.3207924936,-9.4636749476
 C,0,-7.2472915168,-3.3386145916,-9.8964315986
 C,0,-7.951291774,-3.8760853805,-8.5954689268
 O,0,-7.7360179346,-5.0377719633,-8.1961126282
 C,0,-6.6284850241,-4.38501942,-10.8702597985
 C,0,-5.0917467449,-4.5704588802,-10.8763739725
 C,0,-4.5398240873,-5.5788455523,-9.8531718528
 N,0,-5.1007670251,-5.4065956727,-8.5155743754
 C,0,-4.6619007629,-4.5946997565,-7.554574561
 N,0,-3.4892692045,-3.9344668578,-7.6352674574
 N,0,-5.4050303961,-4.463090741,-6.4398533456
 O,0,-8.6777845958,-3.0164902092,-7.9947323277
 H,0,-5.5161318445,-2.6213503829,-8.8870539379
 H,0,-8.0133302731,-2.7898459183,-10.4489375177
 H,0,-7.1285495102,-5.3438832761,-10.6925494123
 H,0,-6.9107326958,-4.0735544062,-11.8808048842
 H,0,-4.7954978671,-4.9364224571,-11.8665831722
 H,0,-4.593774132,-3.603394563,-10.7532602815
 H,0,-4.8012876918,-6.5973123411,-10.1562468608
 H,0,-3.4467416877,-5.5407739735,-9.8054972865
 H,0,-6.1116010473,-5.6102950931,-8.447130907
 H,0,-3.3148209233,-3.2300462468,-6.9210740285
 H,0,-3.0627513594,-3.765769623,-8.5370046266
 H,0,-5.1945335569,-3.6974169371,-5.8066987458
 H,0,-6.3484119537,-4.8394459749,-6.4521613699
 Recover connectivity data from disk.
                           ----------------------------
                           !    Current Parameters    !
                           ! (Angstroms and Degrees)  !
 --------------------------                            --------------------------
 ! Name  Definition              Value                                          !
 --------------------------------------------------------------------------------
 ! R1    R(1,2)                  1.5013                                         !
 ! R2    R(1,9)                  1.0668                                         !
 ! R3    R(1,15)                 1.0377                                         !
 ! R4    R(1,16)                 1.0322                                         !
 ! R5    R(2,3)                  1.5373                                         !
 ! R6    R(2,5)                  1.5325                                         !
 ! R7    R(2,10)                 1.0909                                         !
 ! R8    R(3,4)                  1.2251                                         !
 ! R9    R(3,17)                 1.364                                          !
 ! R10   R(5,6)                  1.5257                                         !
 ! R11   R(5,11)                 1.0964                                         !
 ! R12   R(5,12)                 1.0933                                         !
 ! R13   R(6,7)                  1.3488                                         !
 ! R14   R(6,8)                  1.2354                                         !
 ! R15   R(7,13)                 1.0115                                         !
 ! R16   R(7,14)                 1.0108                                         !
 ! R17   R(17,18)                1.4575                                         !
 ! R18   R(17,28)                1.0251                                         !
 ! R19   R(18,19)                1.5365                                         !
 ! R20   R(18,21)                1.545                                          !
 ! R21   R(18,29)                1.0957                                         !
 ! R22   R(19,20)                1.2413                                         !
 ! R23   R(19,37)                1.3574                                         !
 ! R24   R(21,22)                1.5157                                         !
 ! R25   R(21,30)                1.0955                                         !
 ! R26   R(21,31)                1.0953                                         !
 ! R27   R(22,23)                1.4034                                         !
 ! R28   R(22,24)                1.4004                                         !
 ! R29   R(23,25)                1.3955                                         !
 ! R30   R(23,32)                1.0866                                         !
 ! R31   R(24,26)                1.3979                                         !
 ! R32   R(24,33)                1.0875                                         !
 ! R33   R(25,27)                1.3998                                         !
 ! R34   R(25,34)                1.0863                                         !
 ! R35   R(26,27)                1.3968                                         !
 ! R36   R(26,35)                1.0868                                         !
 ! R37   R(27,36)                1.0872                                         !
 ! R38   R(37,38)                1.4593                                         !
 ! R39   R(37,45)                1.0174                                         !
 ! R40   R(38,39)                1.5462                                         !
 ! R41   R(38,41)                1.5448                                         !
 ! R42   R(38,46)                1.0927                                         !
 ! R43   R(39,40)                1.2363                                         !
 ! R44   R(39,51)                1.346                                          !
 ! R45   R(41,42)                1.531                                          !
 ! R46   R(41,47)                1.0968                                         !
 ! R47   R(41,48)                1.0935                                         !
 ! R48   R(42,43)                1.3468                                         !
 ! R49   R(42,44)                1.2403                                         !
 ! R50   R(43,49)                1.0121                                         !
 ! R51   R(43,50)                1.0099                                         !
 ! R52   R(51,52)                1.4636                                         !
 ! R53   R(51,63)                1.0098                                         !
 ! R54   R(52,53)                1.5738                                         !
 ! R55   R(52,55)                1.5576                                         !
 ! R56   R(52,64)                1.0923                                         !
 ! R57   R(53,54)                1.2471                                         !
 ! R58   R(53,62)                1.2758                                         !
 ! R59   R(55,56)                1.5479                                         !
 ! R60   R(55,65)                1.0959                                         !
 ! R61   R(55,66)                1.0945                                         !
 ! R62   R(56,57)                1.539                                          !
 ! R63   R(56,67)                1.0965                                         !
 ! R64   R(56,68)                1.0947                                         !
 ! R65   R(57,58)                1.4606                                         !
 ! R66   R(57,69)                1.0943                                         !
 ! R67   R(57,70)                1.0948                                         !
 ! R68   R(58,59)                1.3324                                         !
 ! R69   R(58,71)                1.0334                                         !
 ! R70   R(59,60)                1.3481                                         !
 ! R71   R(59,61)                1.3462                                         !
 ! R72   R(60,72)                1.0182                                         !
 ! R73   R(60,73)                1.0117                                         !
 ! R74   R(61,74)                1.0156                                         !
 ! R75   R(61,75)                1.0158                                         !
 ! A1    A(2,1,9)              110.3794                                         !
 ! A2    A(2,1,15)             105.3334                                         !
 ! A3    A(2,1,16)             111.1784                                         !
 ! A4    A(9,1,15)             109.8734                                         !
 ! A5    A(9,1,16)             106.3039                                         !
 ! A6    A(15,1,16)            113.8215                                         !
 ! A7    A(1,2,3)              114.1756                                         !
 ! A8    A(1,2,5)              108.9165                                         !
 ! A9    A(1,2,10)             107.0484                                         !
 ! A10   A(3,2,5)              109.8381                                         !
 ! A11   A(3,2,10)             106.0172                                         !
 ! A12   A(5,2,10)             110.7858                                         !
 ! A13   A(2,3,4)              119.5266                                         !
 ! A14   A(2,3,17)             116.8232                                         !
 ! A15   A(4,3,17)             123.5108                                         !
 ! A16   A(2,5,6)              112.0091                                         !
 ! A17   A(2,5,11)             109.8367                                         !
 ! A18   A(2,5,12)             108.8394                                         !
 ! A19   A(6,5,11)             108.4346                                         !
 ! A20   A(6,5,12)             111.1558                                         !
 ! A21   A(11,5,12)            106.4081                                         !
 ! A22   A(5,6,7)              115.0768                                         !
 ! A23   A(5,6,8)              121.8364                                         !
 ! A24   A(7,6,8)              123.0747                                         !
 ! A25   A(6,7,13)             119.0144                                         !
 ! A26   A(6,7,14)             121.7131                                         !
 ! A27   A(13,7,14)            119.2273                                         !
 ! A28   A(3,17,18)            120.0607                                         !
 ! A29   A(3,17,28)            119.5758                                         !
 ! A30   A(18,17,28)           118.0276                                         !
 ! A31   A(17,18,19)           112.858                                          !
 ! A32   A(17,18,21)           110.7396                                         !
 ! A33   A(17,18,29)           105.583                                          !
 ! A34   A(19,18,21)           110.71                                           !
 ! A35   A(19,18,29)           106.6871                                         !
 ! A36   A(21,18,29)           110.0397                                         !
 ! A37   A(18,19,20)           120.7632                                         !
 ! A38   A(18,19,37)           119.7189                                         !
 ! A39   A(20,19,37)           119.5014                                         !
 ! A40   A(18,21,22)           113.2899                                         !
 ! A41   A(18,21,30)           108.6733                                         !
 ! A42   A(18,21,31)           108.1498                                         !
 ! A43   A(22,21,30)           109.2773                                         !
 ! A44   A(22,21,31)           111.1492                                         !
 ! A45   A(30,21,31)           106.0181                                         !
 ! A46   A(21,22,23)           121.4187                                         !
 ! A47   A(21,22,24)           120.123                                          !
 ! A48   A(23,22,24)           118.4577                                         !
 ! A49   A(22,23,25)           120.7692                                         !
 ! A50   A(22,23,32)           119.9778                                         !
 ! A51   A(25,23,32)           119.2522                                         !
 ! A52   A(22,24,26)           121.0456                                         !
 ! A53   A(22,24,33)           119.4957                                         !
 ! A54   A(26,24,33)           119.4571                                         !
 ! A55   A(23,25,27)           120.2319                                         !
 ! A56   A(23,25,34)           119.6592                                         !
 ! A57   A(27,25,34)           120.1048                                         !
 ! A58   A(24,26,27)           119.9837                                         !
 ! A59   A(24,26,35)           119.6654                                         !
 ! A60   A(27,26,35)           120.3455                                         !
 ! A61   A(25,27,26)           119.5076                                         !
 ! A62   A(25,27,36)           120.0689                                         !
 ! A63   A(26,27,36)           120.4063                                         !
 ! A64   A(19,37,38)           130.6932                                         !
 ! A65   A(19,37,45)           114.5594                                         !
 ! A66   A(38,37,45)           113.518                                          !
 ! A67   A(37,38,39)           114.0937                                         !
 ! A68   A(37,38,41)           109.4755                                         !
 ! A69   A(37,38,46)           110.3503                                         !
 ! A70   A(39,38,41)           108.9047                                         !
 ! A71   A(39,38,46)           105.7513                                         !
 ! A72   A(41,38,46)           108.0527                                         !
 ! A73   A(38,39,40)           119.0193                                         !
 ! A74   A(38,39,51)           115.9792                                         !
 ! A75   A(40,39,51)           124.9666                                         !
 ! A76   A(38,41,42)           112.9835                                         !
 ! A77   A(38,41,47)           108.9531                                         !
 ! A78   A(38,41,48)           107.9134                                         !
 ! A79   A(42,41,47)           107.8036                                         !
 ! A80   A(42,41,48)           111.314                                          !
 ! A81   A(47,41,48)           107.7288                                         !
 ! A82   A(41,42,43)           116.2544                                         !
 ! A83   A(41,42,44)           121.8763                                         !
 ! A84   A(43,42,44)           121.8677                                         !
 ! A85   A(42,43,49)           118.7762                                         !
 ! A86   A(42,43,50)           122.6828                                         !
 ! A87   A(49,43,50)           118.2715                                         !
 ! A88   A(39,51,52)           126.0248                                         !
 ! A89   A(39,51,63)           115.9742                                         !
 ! A90   A(52,51,63)           117.577                                          !
 ! A91   A(51,52,53)           106.6211                                         !
 ! A92   A(51,52,55)           113.0694                                         !
 ! A93   A(51,52,64)           105.0398                                         !
 ! A94   A(53,52,55)           117.7156                                         !
 ! A95   A(53,52,64)           106.0198                                         !
 ! A96   A(55,52,64)           107.4496                                         !
 ! A97   A(52,53,54)           120.3704                                         !
 ! A98   A(52,53,62)           114.4477                                         !
 ! A99   A(54,53,62)           125.109                                          !
 ! A100  A(52,55,56)           118.5131                                         !
 ! A101  A(52,55,65)           107.7653                                         !
 ! A102  A(52,55,66)           106.4767                                         !
 ! A103  A(56,55,65)           110.4155                                         !
 ! A104  A(56,55,66)           106.6468                                         !
 ! A105  A(65,55,66)           106.3221                                         !
 ! A106  A(55,56,57)           115.5894                                         !
 ! A107  A(55,56,67)           108.1674                                         !
 ! A108  A(55,56,68)           110.2026                                         !
 ! A109  A(57,56,67)           106.5495                                         !
 ! A110  A(57,56,68)           109.9336                                         !
 ! A111  A(67,56,68)           105.8736                                         !
 ! A112  A(56,57,58)           113.1946                                         !
 ! A113  A(56,57,69)           109.877                                          !
 ! A114  A(56,57,70)           111.361                                          !
 ! A115  A(58,57,69)           105.7608                                         !
 ! A116  A(58,57,70)           109.844                                          !
 ! A117  A(69,57,70)           106.4386                                         !
 ! A118  A(57,58,59)           127.2905                                         !
 ! A119  A(57,58,71)           114.3965                                         !
 ! A120  A(59,58,71)           113.2361                                         !
 ! A121  A(58,59,60)           122.8027                                         !
 ! A122  A(58,59,61)           118.3589                                         !
 ! A123  A(60,59,61)           118.8064                                         !
 ! A124  A(59,60,72)           116.4783                                         !
 ! A125  A(59,60,73)           120.1138                                         !
 ! A126  A(72,60,73)           115.9514                                         !
 ! A127  A(59,61,74)           118.394                                          !
 ! A128  A(59,61,75)           117.8036                                         !
 ! A129  A(74,61,75)           118.6453                                         !
 ! D1    D(9,1,2,3)             62.5701                                         !
 ! D2    D(9,1,2,5)            -60.5957                                         !
 ! D3    D(9,1,2,10)           179.5716                                         !
 ! D4    D(15,1,2,3)          -178.8824                                         !
 ! D5    D(15,1,2,5)            57.9518                                         !
 ! D6    D(15,1,2,10)          -61.8809                                         !
 ! D7    D(16,1,2,3)           -55.1465                                         !
 ! D8    D(16,1,2,5)          -178.3123                                         !
 ! D9    D(16,1,2,10)           61.855                                          !
 ! D10   D(1,2,3,4)            129.3759                                         !
 ! D11   D(1,2,3,17)           -54.7647                                         !
 ! D12   D(5,2,3,4)           -107.9589                                         !
 ! D13   D(5,2,3,17)            67.9004                                         !
 ! D14   D(10,2,3,4)            11.7813                                         !
 ! D15   D(10,2,3,17)         -172.3593                                         !
 ! D16   D(1,2,5,6)            -61.8687                                         !
 ! D17   D(1,2,5,11)            58.6894                                         !
 ! D18   D(1,2,5,12)           174.8175                                         !
 ! D19   D(3,2,5,6)            172.4086                                         !
 ! D20   D(3,2,5,11)           -67.0333                                         !
 ! D21   D(3,2,5,12)            49.0948                                         !
 ! D22   D(10,2,5,6)            55.6201                                         !
 ! D23   D(10,2,5,11)          176.1782                                         !
 ! D24   D(10,2,5,12)          -67.6937                                         !
 ! D25   D(2,3,17,18)         -157.9714                                         !
 ! D26   D(2,3,17,28)            4.3401                                         !
 ! D27   D(4,3,17,18)           17.7072                                         !
 ! D28   D(4,3,17,28)         -179.9814                                         !
 ! D29   D(2,5,6,7)           -157.2203                                         !
 ! D30   D(2,5,6,8)             24.007                                          !
 ! D31   D(11,5,6,7)            81.4108                                         !
 ! D32   D(11,5,6,8)           -97.3619                                         !
 ! D33   D(12,5,6,7)           -35.2219                                         !
 ! D34   D(12,5,6,8)           146.0054                                         !
 ! D35   D(5,6,7,13)          -176.4112                                         !
 ! D36   D(5,6,7,14)             1.1221                                         !
 ! D37   D(8,6,7,13)             2.3445                                         !
 ! D38   D(8,6,7,14)           179.8778                                         !
 ! D39   D(3,17,18,19)        -126.1699                                         !
 ! D40   D(3,17,18,21)         109.0804                                         !
 ! D41   D(3,17,18,29)          -9.9977                                         !
 ! D42   D(28,17,18,19)         71.2493                                         !
 ! D43   D(28,17,18,21)        -53.5003                                         !
 ! D44   D(28,17,18,29)       -172.5784                                         !
 ! D45   D(17,18,19,20)       -131.4926                                         !
 ! D46   D(17,18,19,37)         49.9976                                         !
 ! D47   D(21,18,19,20)         -6.7268                                         !
 ! D48   D(21,18,19,37)        174.7635                                         !
 ! D49   D(29,18,19,20)        112.9946                                         !
 ! D50   D(29,18,19,37)        -65.5151                                         !
 ! D51   D(17,18,21,22)        -49.3986                                         !
 ! D52   D(17,18,21,30)         72.2613                                         !
 ! D53   D(17,18,21,31)       -173.0736                                         !
 ! D54   D(19,18,21,22)       -175.3584                                         !
 ! D55   D(19,18,21,30)        -53.6984                                         !
 ! D56   D(19,18,21,31)         60.9666                                         !
 ! D57   D(29,18,21,22)         66.9529                                         !
 ! D58   D(29,18,21,30)       -171.3871                                         !
 ! D59   D(29,18,21,31)        -56.7221                                         !
 ! D60   D(18,19,37,38)        -12.3972                                         !
 ! D61   D(18,19,37,45)       -178.711                                          !
 ! D62   D(20,19,37,38)        169.0741                                         !
 ! D63   D(20,19,37,45)          2.7603                                         !
 ! D64   D(18,21,22,23)        -58.1383                                         !
 ! D65   D(18,21,22,24)        122.1275                                         !
 ! D66   D(30,21,22,23)       -179.4592                                         !
 ! D67   D(30,21,22,24)          0.8066                                         !
 ! D68   D(31,21,22,23)         63.8775                                         !
 ! D69   D(31,21,22,24)       -115.8567                                         !
 ! D70   D(21,22,23,25)       -179.4751                                         !
 ! D71   D(21,22,23,32)          0.8296                                         !
 ! D72   D(24,22,23,25)          0.2634                                         !
 ! D73   D(24,22,23,32)       -179.4318                                         !
 ! D74   D(21,22,24,26)        179.0487                                         !
 ! D75   D(21,22,24,33)         -0.4898                                         !
 ! D76   D(23,22,24,26)         -0.6933                                         !
 ! D77   D(23,22,24,33)        179.7682                                         !
 ! D78   D(22,23,25,27)          0.2979                                         !
 ! D79   D(22,23,25,34)        179.5579                                         !
 ! D80   D(32,23,25,27)        179.9953                                         !
 ! D81   D(32,23,25,34)         -0.7447                                         !
 ! D82   D(22,24,26,27)          0.5613                                         !
 ! D83   D(22,24,26,35)       -178.5994                                         !
 ! D84   D(33,24,26,27)       -179.9001                                         !
 ! D85   D(33,24,26,35)          0.9392                                         !
 ! D86   D(23,25,27,26)         -0.4367                                         !
 ! D87   D(23,25,27,36)        178.0564                                         !
 ! D88   D(34,25,27,26)       -179.6934                                         !
 ! D89   D(34,25,27,36)         -1.2003                                         !
 ! D90   D(24,26,27,25)          0.0123                                         !
 ! D91   D(24,26,27,36)       -178.4756                                         !
 ! D92   D(35,26,27,25)        179.1672                                         !
 ! D93   D(35,26,27,36)          0.6793                                         !
 ! D94   D(19,37,38,39)        -72.8918                                         !
 ! D95   D(19,37,38,41)        164.7916                                         !
 ! D96   D(19,37,38,46)         45.9919                                         !
 ! D97   D(45,37,38,39)         93.5346                                         !
 ! D98   D(45,37,38,41)        -28.782                                          !
 ! D99   D(45,37,38,46)       -147.5817                                         !
 ! D100  D(37,38,39,40)        160.494                                          !
 ! D101  D(37,38,39,51)        -21.545                                          !
 ! D102  D(41,38,39,40)        -76.8772                                         !
 ! D103  D(41,38,39,51)        101.0838                                         !
 ! D104  D(46,38,39,40)         39.0313                                         !
 ! D105  D(46,38,39,51)       -143.0077                                         !
 ! D106  D(37,38,41,42)         60.6066                                         !
 ! D107  D(37,38,41,47)        -59.1827                                         !
 ! D108  D(37,38,41,48)       -175.8865                                         !
 ! D109  D(39,38,41,42)        -64.7599                                         !
 ! D110  D(39,38,41,47)        175.4509                                         !
 ! D111  D(39,38,41,48)         58.747                                          !
 ! D112  D(46,38,41,42)       -179.1797                                         !
 ! D113  D(46,38,41,47)         61.031                                          !
 ! D114  D(46,38,41,48)        -55.6728                                         !
 ! D115  D(38,39,51,52)        173.0261                                         !
 ! D116  D(38,39,51,63)          0.7211                                         !
 ! D117  D(40,39,51,52)         -9.1498                                         !
 ! D118  D(40,39,51,63)        178.5452                                         !
 ! D119  D(38,41,42,43)        141.7234                                         !
 ! D120  D(38,41,42,44)        -38.7251                                         !
 ! D121  D(47,41,42,43)        -97.829                                          !
 ! D122  D(47,41,42,44)         81.7225                                         !
 ! D123  D(48,41,42,43)         20.1149                                         !
 ! D124  D(48,41,42,44)       -160.3336                                         !
 ! D125  D(41,42,43,49)        174.6638                                         !
 ! D126  D(41,42,43,50)          0.7352                                         !
 ! D127  D(44,42,43,49)         -4.8878                                         !
 ! D128  D(44,42,43,50)       -178.8164                                         !
 ! D129  D(39,51,52,53)       -107.56                                           !
 ! D130  D(39,51,52,55)        121.5439                                         !
 ! D131  D(39,51,52,64)          4.6764                                         !
 ! D132  D(63,51,52,53)         64.6349                                         !
 ! D133  D(63,51,52,55)        -66.2612                                         !
 ! D134  D(63,51,52,64)        176.8712                                         !
 ! D135  D(51,52,53,54)       -110.937                                          !
 ! D136  D(51,52,53,62)         66.1136                                         !
 ! D137  D(55,52,53,54)         17.2885                                         !
 ! D138  D(55,52,53,62)       -165.661                                          !
 ! D139  D(64,52,53,54)        137.5043                                         !
 ! D140  D(64,52,53,62)        -45.4452                                         !
 ! D141  D(51,52,55,56)         21.3815                                         !
 ! D142  D(51,52,55,65)        147.6031                                         !
 ! D143  D(51,52,55,66)        -98.6616                                         !
 ! D144  D(53,52,55,56)       -103.7147                                         !
 ! D145  D(53,52,55,65)         22.5069                                         !
 ! D146  D(53,52,55,66)        136.2422                                         !
 ! D147  D(64,52,55,56)        136.819                                          !
 ! D148  D(64,52,55,65)        -96.9594                                         !
 ! D149  D(64,52,55,66)         16.7758                                         !
 ! D150  D(52,55,56,57)         87.1653                                         !
 ! D151  D(52,55,56,67)       -153.5243                                         !
 ! D152  D(52,55,56,68)        -38.2158                                         !
 ! D153  D(65,55,56,57)        -37.7741                                         !
 ! D154  D(65,55,56,67)         81.5364                                         !
 ! D155  D(65,55,56,68)       -163.1552                                         !
 ! D156  D(66,55,56,57)       -152.8792                                         !
 ! D157  D(66,55,56,67)        -33.5687                                         !
 ! D158  D(66,55,56,68)         81.7397                                         !
 ! D159  D(55,56,57,58)        -46.6454                                         !
 ! D160  D(55,56,57,69)         71.3333                                         !
 ! D161  D(55,56,57,70)       -170.988                                          !
 ! D162  D(67,56,57,58)       -166.8406                                         !
 ! D163  D(67,56,57,69)        -48.8619                                         !
 ! D164  D(67,56,57,70)         68.8168                                         !
 ! D165  D(68,56,57,58)         78.8737                                         !
 ! D166  D(68,56,57,69)       -163.1476                                         !
 ! D167  D(68,56,57,70)        -45.4688                                         !
 ! D168  D(56,57,58,59)        -86.8467                                         !
 ! D169  D(56,57,58,71)         66.0144                                         !
 ! D170  D(69,57,58,59)        152.803                                          !
 ! D171  D(69,57,58,71)        -54.3358                                         !
 ! D172  D(70,57,58,59)         38.3177                                         !
 ! D173  D(70,57,58,71)       -168.8211                                         !
 ! D174  D(57,58,59,60)         -9.6141                                         !
 ! D175  D(57,58,59,61)        172.4724                                         !
 ! D176  D(71,58,59,60)       -162.7364                                         !
 ! D177  D(71,58,59,61)         19.3502                                         !
 ! D178  D(58,59,60,72)        170.6469                                         !
 ! D179  D(58,59,60,73)         21.989                                          !
 ! D180  D(61,59,60,72)        -11.4486                                         !
 ! D181  D(61,59,60,73)       -160.1065                                         !
 ! D182  D(58,59,61,74)       -166.0935                                         !
 ! D183  D(58,59,61,75)        -11.7883                                         !
 ! D184  D(60,59,61,74)         15.908                                          !
 ! D185  D(60,59,61,75)        170.2131                                         !
 --------------------------------------------------------------------------------
 Symmetry turned off by external request.
 Stoichiometry    C23H36N9O7(1+)
 Framework group  C1[X(C23H36N9O7)]
 Deg. of freedom   219
 Full point group                 C1      NOp   1
                          Input orientation:                          
 ---------------------------------------------------------------------
 Center     Atomic      Atomic             Coordinates (Angstroms)
 Number     Number       Type             X           Y           Z
 ---------------------------------------------------------------------
      1          7           0       -9.710677   -0.800654   -9.082751
      2          6           0       -9.659185    0.193776   -7.959220
      3          6           0       -8.245099    0.459042   -7.417534
      4          8           0       -7.849402    1.612660   -7.301979
      5          6           0      -10.568274   -0.290937   -6.824672
      6          6           0      -12.025936   -0.392178   -7.263610
      7          7           0      -12.929273   -0.336220   -6.263603
      8          8           0      -12.340851   -0.538438   -8.449260
      9          1           0       -9.367477   -1.754555   -8.750587
     10          1           0      -10.012151    1.145745   -8.358262
     11          1           0      -10.240136   -1.279128   -6.481380
     12          1           0      -10.459015    0.384265   -5.971788
     13          1           0      -13.910190   -0.452773   -6.481433
     14          1           0      -12.648399   -0.217745   -5.299847
     15          1           0      -10.711273   -0.859670   -9.351319
     16          1           0       -9.087072   -0.521667   -9.856560
     17          7           0       -7.529027   -0.627251   -7.008138
     18          6           0       -6.427074   -0.463392   -6.068328
     19          6           0       -5.111913   -1.072203   -6.578626
     20          8           0       -4.432810   -1.815761   -5.852910
     21          6           0       -6.797041   -1.043291   -4.684922
     22          6           0       -8.142512   -0.566221   -4.175477
     23          6           0       -8.416854    0.799134   -4.001983
     24          6           0       -9.143824   -1.493325   -3.860756
     25          6           0       -9.656707    1.222781   -3.521719
     26          6           0      -10.384741   -1.075789   -3.370864
     27          6           0      -10.645324    0.285693   -3.199461
     28          1           0       -7.918589   -1.567023   -7.134589
     29          1           0       -6.264347    0.617417   -5.991079
     30          1           0       -6.803118   -2.136641   -4.753149
     31          1           0       -5.995806   -0.788733   -3.982917
     32          1           0       -7.660991    1.540266   -4.247278
     33          1           0       -8.950699   -2.555377   -3.992407
     34          1           0       -9.847189    2.283748   -3.387511
     35          1           0      -11.137567   -1.815709   -3.112296
     36          1           0      -11.598928    0.616872   -2.795752
     37          7           0       -4.670444   -0.770933   -7.826326
     38          6           0       -5.345260   -0.115427   -8.941936
     39          6           0       -6.413131   -0.991740   -9.636594
     40          8           0       -7.279907   -0.445327  -10.328363
     41          6           0       -4.299123    0.323957   -9.990305
     42          6           0       -3.503176   -0.849087  -10.568597
     43          7           0       -3.214948   -0.783330  -11.882576
     44          8           0       -3.136860   -1.802390   -9.864745
     45          1           0       -3.803355   -1.232647   -8.091046
     46          1           0       -5.872972    0.776568   -8.595696
     47          1           0       -3.587357    1.011262   -9.516951
     48          1           0       -4.822010    0.875528  -10.776536
     49          1           0       -2.621435   -1.496190  -12.287456
     50          1           0       -3.491899   -0.004955  -12.463322
     51          7           0       -6.288712   -2.320792   -9.463675
     52          6           0       -7.247292   -3.338615   -9.896432
     53          6           0       -7.951292   -3.876085   -8.595469
     54          8           0       -7.736018   -5.037772   -8.196113
     55          6           0       -6.628485   -4.385019  -10.870260
     56          6           0       -5.091747   -4.570459  -10.876374
     57          6           0       -4.539824   -5.578846   -9.853172
     58          7           0       -5.100767   -5.406596   -8.515574
     59          6           0       -4.661901   -4.594700   -7.554575
     60          7           0       -3.489269   -3.934467   -7.635267
     61          7           0       -5.405030   -4.463091   -6.439853
     62          8           0       -8.677785   -3.016490   -7.994732
     63          1           0       -5.516132   -2.621350   -8.887054
     64          1           0       -8.013330   -2.789846  -10.448938
     65          1           0       -7.128550   -5.343883  -10.692549
     66          1           0       -6.910733   -4.073554  -11.880805
     67          1           0       -4.795498   -4.936422  -11.866583
     68          1           0       -4.593774   -3.603395  -10.753260
     69          1           0       -4.801288   -6.597312  -10.156247
     70          1           0       -3.446742   -5.540774   -9.805497
     71          1           0       -6.111601   -5.610295   -8.447131
     72          1           0       -3.314821   -3.230046   -6.921074
     73          1           0       -3.062751   -3.765770   -8.537005
     74          1           0       -5.194534   -3.697417   -5.806699
     75          1           0       -6.348412   -4.839446   -6.452161
 ---------------------------------------------------------------------
 Rotational constants (GHZ):           0.1525762           0.0712736           0.0695989
 Standard basis: 6-31G(d) (6D, 7F)
   657 basis functions,  1236 primitive gaussians,   657 cartesian basis functions
   146 alpha electrons      146 beta electrons
       nuclear repulsion energy      5210.7842172459 Hartrees.
 NAtoms=   75 NActive=   75 NUniq=   75 SFac= 1.00D+00 NAtFMM=   60 NAOKFM=T Big=T
 Integral buffers will be    131072 words long.
 Raffenetti 2 integral format.
 Two-electron integral symmetry is turned off.
 Nuclear repulsion after empirical dispersion term =     5210.6543474128 Hartrees.
 One-electron integrals computed using PRISM.
 NBasis=   657 RedAO= T EigKep=  4.64D-04  NBF=   657
 NBsUse=   657 1.00D-06 EigRej= -1.00D+00 NBFU=   657
 Initial guess from the checkpoint file:  "conf-112.chk"
 B after Tr=     0.000000    0.000000    0.000000
         Rot=    1.000000    0.000000    0.000000    0.000000 Ang=   0.00 deg.
 Requested convergence on RMS density matrix=1.00D-08 within 128 cycles.
 Requested convergence on MAX density matrix=1.00D-06.
 Requested convergence on             energy=1.00D-06.
 No special actions if energy rises.
 SCF Done:  E(RB3LYP) =  -1917.54513259     A.U. after    3 cycles
            NFock=  3  Conv=0.11D-08     -V/T= 2.0093

 **********************************************************************

            Population analysis using the SCF Density.

 **********************************************************************

 Alpha  occ. eigenvalues --  -19.24945 -19.24434 -19.23851 -19.22920 -19.22498
 Alpha  occ. eigenvalues --  -19.21361 -19.21165 -14.51568 -14.48709 -14.48368
 Alpha  occ. eigenvalues --  -14.48286 -14.47959 -14.47648 -14.47611 -14.46634
 Alpha  occ. eigenvalues --  -14.46118 -10.44641 -10.42550 -10.41513 -10.41022
 Alpha  occ. eigenvalues --  -10.40215 -10.40066 -10.39223 -10.36113 -10.36112
 Alpha  occ. eigenvalues --  -10.34681 -10.33764 -10.33734 -10.32739 -10.30846
 Alpha  occ. eigenvalues --  -10.29422 -10.29418 -10.29306 -10.29228 -10.28372
 Alpha  occ. eigenvalues --  -10.28302 -10.28236 -10.28182 -10.28111  -1.16685
 Alpha  occ. eigenvalues --   -1.16082  -1.15611  -1.14913  -1.14511  -1.14090
 Alpha  occ. eigenvalues --   -1.13254  -1.07876  -1.05976  -1.05430  -1.03931
 Alpha  occ. eigenvalues --   -1.03487  -1.03121  -1.02728  -1.01240  -1.01078
 Alpha  occ. eigenvalues --   -0.94908  -0.91056  -0.90155  -0.89695  -0.88202
 Alpha  occ. eigenvalues --   -0.85366  -0.83919  -0.83580  -0.80557  -0.79052
 Alpha  occ. eigenvalues --   -0.78535  -0.76623  -0.75061  -0.72820  -0.71354
 Alpha  occ. eigenvalues --   -0.71028  -0.70469  -0.70325  -0.69842  -0.69553
 Alpha  occ. eigenvalues --   -0.69065  -0.68792  -0.67210  -0.66816  -0.66344
 Alpha  occ. eigenvalues --   -0.66274  -0.65329  -0.63868  -0.63562  -0.62653
 Alpha  occ. eigenvalues --   -0.62010  -0.61304  -0.61246  -0.60571  -0.59865
 Alpha  occ. eigenvalues --   -0.58991  -0.58661  -0.58395  -0.58146  -0.57661
 Alpha  occ. eigenvalues --   -0.56841  -0.56515  -0.56401  -0.55316  -0.55022
 Alpha  occ. eigenvalues --   -0.54946  -0.54516  -0.54144  -0.53947  -0.53100
 Alpha  occ. eigenvalues --   -0.52902  -0.52682  -0.52337  -0.52162  -0.51651
 Alpha  occ. eigenvalues --   -0.51385  -0.51065  -0.50771  -0.50570  -0.49832
 Alpha  occ. eigenvalues --   -0.49642  -0.49444  -0.49003  -0.48510  -0.47878
 Alpha  occ. eigenvalues --   -0.47757  -0.46784  -0.46585  -0.46104  -0.44780
 Alpha  occ. eigenvalues --   -0.44544  -0.44388  -0.43306  -0.43007  -0.41006
 Alpha  occ. eigenvalues --   -0.40058  -0.39721  -0.39239  -0.39017  -0.38764
 Alpha  occ. eigenvalues --   -0.37503  -0.37362  -0.37292  -0.37017  -0.36316
 Alpha  occ. eigenvalues --   -0.36271  -0.35751  -0.35235  -0.34331  -0.34280
 Alpha  occ. eigenvalues --   -0.33868
 Alpha virt. eigenvalues --   -0.11689  -0.10852  -0.10770  -0.09961  -0.09799
 Alpha virt. eigenvalues --   -0.09555  -0.09366  -0.07477  -0.07064  -0.04395
 Alpha virt. eigenvalues --   -0.03333  -0.01965  -0.01721  -0.00884  -0.00333
 Alpha virt. eigenvalues --    0.00499   0.01140   0.01317   0.01667   0.01977
 Alpha virt. eigenvalues --    0.02090   0.02935   0.03092   0.03417   0.03582
 Alpha virt. eigenvalues --    0.04297   0.04575   0.04893   0.04985   0.05301
 Alpha virt. eigenvalues --    0.05561   0.05971   0.06159   0.06601   0.06708
 Alpha virt. eigenvalues --    0.07057   0.07366   0.07773   0.07897   0.08013
 Alpha virt. eigenvalues --    0.08443   0.08631   0.09244   0.09422   0.09978
 Alpha virt. eigenvalues --    0.10192   0.10478   0.10933   0.11681   0.12094
 Alpha virt. eigenvalues --    0.12670   0.12835   0.13177   0.13682   0.14135
 Alpha virt. eigenvalues --    0.14443   0.14669   0.15242   0.15465   0.16299
 Alpha virt. eigenvalues --    0.16696   0.17487   0.17736   0.18275   0.20207
 Alpha virt. eigenvalues --    0.21458   0.21768   0.22979   0.23375   0.23498
 Alpha virt. eigenvalues --    0.24190   0.24470   0.24953   0.26212   0.26655
 Alpha virt. eigenvalues --    0.27313   0.28940   0.29324   0.29800   0.31011
 Alpha virt. eigenvalues --    0.31946   0.32652   0.33395   0.36427   0.36809
 Alpha virt. eigenvalues --    0.37446   0.38087   0.39287   0.39380   0.39818
 Alpha virt. eigenvalues --    0.40739   0.41410   0.42114   0.42728   0.43195
 Alpha virt. eigenvalues --    0.43956   0.44344   0.44883   0.45175   0.46054
 Alpha virt. eigenvalues --    0.46371   0.46520   0.46679   0.46950   0.47359
 Alpha virt. eigenvalues --    0.47588   0.48185   0.48732   0.49172   0.49551
 Alpha virt. eigenvalues --    0.49881   0.50258   0.51290   0.51374   0.51640
 Alpha virt. eigenvalues --    0.52058   0.52426   0.52759   0.53039   0.53170
 Alpha virt. eigenvalues --    0.53477   0.53646   0.54272   0.54463   0.54717
 Alpha virt. eigenvalues --    0.55287   0.55363   0.55702   0.55928   0.56044
 Alpha virt. eigenvalues --    0.56561   0.56727   0.57730   0.57880   0.58461
 Alpha virt. eigenvalues --    0.59092   0.59592   0.60302   0.60945   0.61432
 Alpha virt. eigenvalues --    0.62554   0.62771   0.63260   0.64054   0.64481
 Alpha virt. eigenvalues --    0.64663   0.65991   0.66080   0.66716   0.67527
 Alpha virt. eigenvalues --    0.68203   0.69353   0.69824   0.70116   0.70840
 Alpha virt. eigenvalues --    0.71384   0.71854   0.71904   0.72503   0.72992
 Alpha virt. eigenvalues --    0.73787   0.73879   0.74491   0.74577   0.74884
 Alpha virt. eigenvalues --    0.75162   0.75611   0.75793   0.76158   0.76413
 Alpha virt. eigenvalues --    0.76869   0.77310   0.77518   0.77781   0.78371
 Alpha virt. eigenvalues --    0.78698   0.78804   0.79781   0.80618   0.81076
 Alpha virt. eigenvalues --    0.81370   0.81859   0.82029   0.82330   0.82855
 Alpha virt. eigenvalues --    0.83281   0.83413   0.83527   0.84185   0.84617
 Alpha virt. eigenvalues --    0.85014   0.85156   0.85692   0.85915   0.86673
 Alpha virt. eigenvalues --    0.87500   0.87978   0.88824   0.89338   0.90334
 Alpha virt. eigenvalues --    0.90601   0.91165   0.92339   0.92499   0.93655
 Alpha virt. eigenvalues --    0.94364   0.94711   0.96015   0.96146   0.96728
 Alpha virt. eigenvalues --    0.97410   0.98328   0.99198   1.00002   1.00791
 Alpha virt. eigenvalues --    1.01374   1.01430   1.01894   1.02455   1.03451
 Alpha virt. eigenvalues --    1.04406   1.05175   1.05848   1.07243   1.07393
 Alpha virt. eigenvalues --    1.08221   1.08971   1.09243   1.09692   1.10213
 Alpha virt. eigenvalues --    1.10890   1.11442   1.12580   1.12923   1.14063
 Alpha virt. eigenvalues --    1.14503   1.15004   1.15640   1.16413   1.17087
 Alpha virt. eigenvalues --    1.17659   1.17907   1.18246   1.19301   1.19734
 Alpha virt. eigenvalues --    1.20150   1.21735   1.22772   1.23756   1.24825
 Alpha virt. eigenvalues --    1.25678   1.25982   1.26522   1.27879   1.28593
 Alpha virt. eigenvalues --    1.29134   1.29270   1.30368   1.31275   1.32385
 Alpha virt. eigenvalues --    1.33325   1.33600   1.34092   1.34629   1.34800
 Alpha virt. eigenvalues --    1.35814   1.36749   1.37613   1.38361   1.38569
 Alpha virt. eigenvalues --    1.38961   1.39180   1.39584   1.40609   1.40995
 Alpha virt. eigenvalues --    1.42037   1.42441   1.42708   1.44646   1.45540
 Alpha virt. eigenvalues --    1.46395   1.48027   1.48943   1.49080   1.51032
 Alpha virt. eigenvalues --    1.52816   1.53703   1.53834   1.54229   1.55884
 Alpha virt. eigenvalues --    1.56049   1.56542   1.57180   1.58192   1.58678
 Alpha virt. eigenvalues --    1.60625   1.61390   1.61877   1.62548   1.62783
 Alpha virt. eigenvalues --    1.63131   1.64204   1.64610   1.65766   1.65805
 Alpha virt. eigenvalues --    1.66459   1.67232   1.67777   1.69337   1.69733
 Alpha virt. eigenvalues --    1.69961   1.70455   1.71153   1.71387   1.71901
 Alpha virt. eigenvalues --    1.72412   1.72892   1.73751   1.74034   1.74725
 Alpha virt. eigenvalues --    1.75018   1.75325   1.76032   1.76854   1.77297
 Alpha virt. eigenvalues --    1.77820   1.78236   1.78906   1.79336   1.79624
 Alpha virt. eigenvalues --    1.80165   1.80673   1.81232   1.81698   1.82666
 Alpha virt. eigenvalues --    1.83015   1.83280   1.83807   1.84448   1.84912
 Alpha virt. eigenvalues --    1.85392   1.85695   1.86998   1.88078   1.88503
 Alpha virt. eigenvalues --    1.89145   1.89575   1.90033   1.90325   1.91475
 Alpha virt. eigenvalues --    1.92317   1.93127   1.93377   1.93805   1.94588
 Alpha virt. eigenvalues --    1.95255   1.96282   1.96903   1.97652   1.98406
 Alpha virt. eigenvalues --    1.99246   1.99881   2.00431   2.01328   2.01683
 Alpha virt. eigenvalues --    2.02108   2.02544   2.03915   2.04509   2.05139
 Alpha virt. eigenvalues --    2.05514   2.06381   2.07395   2.08444   2.09514
 Alpha virt. eigenvalues --    2.10394   2.11113   2.11756   2.12149   2.13820
 Alpha virt. eigenvalues --    2.14587   2.14775   2.16068   2.16360   2.17663
 Alpha virt. eigenvalues --    2.18603   2.19068   2.19559   2.19969   2.20630
 Alpha virt. eigenvalues --    2.22461   2.22883   2.23059   2.23840   2.25138
 Alpha virt. eigenvalues --    2.26541   2.26864   2.27843   2.28431   2.28815
 Alpha virt. eigenvalues --    2.30576   2.31068   2.31418   2.32462   2.32527
 Alpha virt. eigenvalues --    2.34272   2.34974   2.36049   2.37532   2.38071
 Alpha virt. eigenvalues --    2.39318   2.39889   2.40365   2.41204   2.41722
 Alpha virt. eigenvalues --    2.44304   2.45241   2.45577   2.46972   2.47871
 Alpha virt. eigenvalues --    2.48714   2.49715   2.50127   2.50709   2.51064
 Alpha virt. eigenvalues --    2.51423   2.52208   2.52632   2.53784   2.54772
 Alpha virt. eigenvalues --    2.55363   2.55818   2.56504   2.56699   2.58152
 Alpha virt. eigenvalues --    2.58993   2.59969   2.60867   2.62649   2.63148
 Alpha virt. eigenvalues --    2.63700   2.64565   2.65788   2.66611   2.67152
 Alpha virt. eigenvalues --    2.67832   2.69834   2.72062   2.73055   2.76327
 Alpha virt. eigenvalues --    2.77400   2.81064   2.83783   2.85107   2.88353
 Alpha virt. eigenvalues --    2.88628   2.89734   2.90320   2.90649   2.91138
 Alpha virt. eigenvalues --    2.91826   2.93267   2.94001   2.96564   2.98341
 Alpha virt. eigenvalues --    2.98710   2.99138   3.03565   3.04058   3.05565
 Alpha virt. eigenvalues --    3.09675   3.31509   3.68466   3.73492   3.75178
 Alpha virt. eigenvalues --    3.80128   3.81814   3.86723   3.90209   3.95782
 Alpha virt. eigenvalues --    3.97263   3.98354   4.00239   4.01742   4.05124
 Alpha virt. eigenvalues --    4.06189   4.08011   4.09858   4.12197   4.12651
 Alpha virt. eigenvalues --    4.14147   4.16677   4.20972   4.22024   4.23681
 Alpha virt. eigenvalues --    4.28195   4.29462   4.31232   4.32338   4.35222
 Alpha virt. eigenvalues --    4.38019   4.39383   4.40335   4.42873   4.48670
 Alpha virt. eigenvalues --    4.51270   4.55106   4.58943   4.62527   4.65037
 Alpha virt. eigenvalues --    4.67997
          Condensed to atoms (all electrons):
 Mulliken charges:
               1
     1  N   -0.813757
     2  C   -0.109821
     3  C    0.630453
     4  O   -0.514570
     5  C   -0.415469
     6  C    0.637906
     7  N   -0.741721
     8  O   -0.534158
     9  H    0.430482
    10  H    0.217050
    11  H    0.218903
    12  H    0.212170
    13  H    0.365962
    14  H    0.357695
    15  H    0.418519
    16  H    0.427440
    17  N   -0.651681
    18  C   -0.081088
    19  C    0.625659
    20  O   -0.555531
    21  C   -0.356216
    22  C    0.173389
    23  C   -0.178964
    24  C   -0.197270
    25  C   -0.138148
    26  C   -0.136825
    27  C   -0.159162
    28  H    0.389921
    29  H    0.219987
    30  H    0.144320
    31  H    0.194874
    32  H    0.152292
    33  H    0.143398
    34  H    0.158267
    35  H    0.152059
    36  H    0.150148
    37  N   -0.632044
    38  C   -0.060657
    39  C    0.642065
    40  O   -0.583237
    41  C   -0.395681
    42  C    0.626546
    43  N   -0.725815
    44  O   -0.560790
    45  H    0.370102
    46  H    0.221342
    47  H    0.217604
    48  H    0.197645
    49  H    0.366346
    50  H    0.367956
    51  N   -0.605609
    52  C   -0.058904
    53  C    0.602514
    54  O   -0.553137
    55  C   -0.301310
    56  C   -0.301925
    57  C   -0.178618
    58  N   -0.592168
    59  C    0.718621
    60  N   -0.767599
    61  N   -0.780913
    62  O   -0.604569
    63  H    0.361182
    64  H    0.169714
    65  H    0.177862
    66  H    0.166110
    67  H    0.166726
    68  H    0.165497
    69  H    0.193985
    70  H    0.174182
    71  H    0.403630
    72  H    0.385750
    73  H    0.386790
    74  H    0.398384
    75  H    0.385911
 Sum of Mulliken charges =   1.00000
 Mulliken charges with hydrogens summed into heavy atoms:
               1
     1  N    0.462685
     2  C    0.107229
     3  C    0.630453
     4  O   -0.514570
     5  C    0.015605
     6  C    0.637906
     7  N   -0.018064
     8  O   -0.534158
    17  N   -0.261760
    18  C    0.138899
    19  C    0.625659
    20  O   -0.555531
    21  C   -0.017023
    22  C    0.173389
    23  C   -0.026671
    24  C   -0.053872
    25  C    0.020119
    26  C    0.015235
    27  C   -0.009015
    37  N   -0.261942
    38  C    0.160685
    39  C    0.642065
    40  O   -0.583237
    41  C    0.019568
    42  C    0.626546
    43  N    0.008486
    44  O   -0.560790
    51  N   -0.244427
    52  C    0.110810
    53  C    0.602514
    54  O   -0.553137
    55  C    0.042662
    56  C    0.030298
    57  C    0.189549
    58  N   -0.188537
    59  C    0.718621
    60  N    0.004940
    61  N    0.003381
    62  O   -0.604569
 Electronic spatial extent (au):  <R**2>=         135930.5333
 Charge=              1.0000 electrons
 Dipole moment (field-independent basis, Debye):
    X=            -31.4427    Y=             -7.1969    Z=            -41.3842  Tot=             52.4699
 Quadrupole moment (field-independent basis, Debye-Ang):
   XX=             49.5206   YY=           -197.2008   ZZ=            181.6639
   XY=             30.4007   XZ=            220.4415   YZ=             72.6613
 Traceless Quadrupole moment (field-independent basis, Debye-Ang):
   XX=             38.1927   YY=           -208.5287   ZZ=            170.3360
   XY=             30.4007   XZ=            220.4415   YZ=             72.6613
 Octapole moment (field-independent basis, Debye-Ang**2):
  XXX=           1911.7441  YYY=            953.6222  ZZZ=            801.9428  XYY=           1538.6077
  XXY=            247.5769  XXZ=            151.7548  XZZ=           -239.1901  YZZ=           -394.4206
  YYZ=           1430.3851  XYZ=           -311.9462
 Hexadecapole moment (field-independent basis, Debye-Ang**3):
 XXXX=         -44089.1392 YYYY=          -8396.8356 ZZZZ=         -37348.2869 XXXY=          -6106.2017
 XXXZ=         -20529.0947 YYYX=          -6060.7396 YYYZ=          -7921.5076 ZZZX=         -16983.4706
 ZZZY=          -1347.0385 XXYY=         -14797.7144 XXZZ=         -16958.1831 YYZZ=         -12681.5341
 XXYZ=          -1888.4093 YYXZ=         -10821.6544 ZZXY=           1203.1692
 N-N= 5.210654347413D+03 E-N=-1.486036574618D+04  KE= 1.899812273879D+03
 Unable to Open any file for archive entry.
 1\1\GINC-AMR-155\SP\RB3LYP\6-31G(d)\C23H36N9O7(1+)\KENGMITH\03-Jun-202
 2\0\\# B3LYP/6-31G* empiricaldispersion=gd3 guess=read geom=check nosy
 mm integral(ultrafinegrid)\\Candidate Structure: Conf:112 Charge calc 
 in gas phase\\1,1\N,0,-9.7106772206,-0.8006535442,-9.0827505913\C,0,-9
 .659185378,0.1937761419,-7.9592204845\C,0,-8.2450988322,0.4590419474,-
 7.4175342537\O,0,-7.8494022656,1.6126597171,-7.3019787666\C,0,-10.5682
 742457,-0.2909370409,-6.8246715903\C,0,-12.0259358008,-0.3921781201,-7
 .2636096961\N,0,-12.929272576,-0.3362201819,-6.2636031016\O,0,-12.3408
 512838,-0.5384379577,-8.4492604163\H,0,-9.3674770416,-1.754554555,-8.7
 505867305\H,0,-10.0121507288,1.1457451707,-8.3582618229\H,0,-10.240136
 1483,-1.2791283995,-6.4813801291\H,0,-10.4590150405,0.3842653295,-5.97
 17882805\H,0,-13.9101896632,-0.4527725668,-6.4814330826\H,0,-12.648398
 7859,-0.2177451551,-5.2998469077\H,0,-10.7112725099,-0.8596696983,-9.3
 513194007\H,0,-9.0870719728,-0.5216670155,-9.8565598249\N,0,-7.5290274
 128,-0.6272506942,-7.0081384189\C,0,-6.427074409,-0.4633918714,-6.0683
 284633\C,0,-5.111913168,-1.0722031538,-6.5786263757\O,0,-4.4328097374,
 -1.8157606858,-5.8529101653\C,0,-6.7970411266,-1.0432914321,-4.6849218
 537\C,0,-8.142511827,-0.5662209334,-4.1754772438\C,0,-8.4168542925,0.7
 991335962,-4.0019825909\C,0,-9.1438238221,-1.4933245453,-3.860756204\C
 ,0,-9.6567072136,1.2227813958,-3.5217186612\C,0,-10.3847405014,-1.0757
 888149,-3.3708643426\C,0,-10.6453243475,0.2856927008,-3.1994612138\H,0
 ,-7.9185894775,-1.5670229748,-7.134589327\H,0,-6.2643465811,0.61741650
 69,-5.991078829\H,0,-6.803118333,-2.1366411705,-4.7531492246\H,0,-5.99
 58063252,-0.7887328799,-3.9829171513\H,0,-7.6609913707,1.5402659411,-4
 .2472782477\H,0,-8.9506990637,-2.55537746,-3.992407191\H,0,-9.84718897
 8,2.2837482323,-3.3875114528\H,0,-11.1375670447,-1.8157088355,-3.11229
 64932\H,0,-11.5989279481,0.6168724554,-2.795751689\N,0,-4.6704436489,-
 0.770932983,-7.8263264465\C,0,-5.3452600548,-0.1154272465,-8.941936259
 1\C,0,-6.413131038,-0.9917397193,-9.6365941221\O,0,-7.2799070699,-0.44
 53269348,-10.3283633036\C,0,-4.2991232111,0.3239569299,-9.990304824\C,
 0,-3.5031761439,-0.8490873519,-10.5685972976\N,0,-3.2149476426,-0.7833
 299237,-11.8825760457\O,0,-3.1368597361,-1.8023899921,-9.8647449485\H,
 0,-3.8033549342,-1.2326474389,-8.091045841\H,0,-5.8729716593,0.7765680
 916,-8.5956956173\H,0,-3.5873572324,1.0112617489,-9.5169513142\H,0,-4.
 8220097084,0.8755284074,-10.7765357584\H,0,-2.6214354374,-1.4961897927
 ,-12.2874557734\H,0,-3.4918988531,-0.004955372,-12.4633223373\N,0,-6.2
 887117771,-2.3207924936,-9.4636749476\C,0,-7.2472915168,-3.3386145916,
 -9.8964315986\C,0,-7.951291774,-3.8760853805,-8.5954689268\O,0,-7.7360
 179346,-5.0377719633,-8.1961126282\C,0,-6.6284850241,-4.38501942,-10.8
 702597985\C,0,-5.0917467449,-4.5704588802,-10.8763739725\C,0,-4.539824
 0873,-5.5788455523,-9.8531718528\N,0,-5.1007670251,-5.4065956727,-8.51
 55743754\C,0,-4.6619007629,-4.5946997565,-7.554574561\N,0,-3.489269204
 5,-3.9344668578,-7.6352674574\N,0,-5.4050303961,-4.463090741,-6.439853
 3456\O,0,-8.6777845958,-3.0164902092,-7.9947323277\H,0,-5.5161318445,-
 2.6213503829,-8.8870539379\H,0,-8.0133302731,-2.7898459183,-10.4489375
 177\H,0,-7.1285495102,-5.3438832761,-10.6925494123\H,0,-6.9107326958,-
 4.0735544062,-11.8808048842\H,0,-4.7954978671,-4.9364224571,-11.866583
 1722\H,0,-4.593774132,-3.603394563,-10.7532602815\H,0,-4.8012876918,-6
 .5973123411,-10.1562468608\H,0,-3.4467416877,-5.5407739735,-9.80549728
 65\H,0,-6.1116010473,-5.6102950931,-8.447130907\H,0,-3.3148209233,-3.2
 300462468,-6.9210740285\H,0,-3.0627513594,-3.765769623,-8.5370046266\H
 ,0,-5.1945335569,-3.6974169371,-5.8066987458\H,0,-6.3484119537,-4.8394
 459749,-6.4521613699\\Version=ES64L-G16RevC.01\HF=-1917.5451326\RMSD=1
 .080e-09\Dipole=1.1831532,0.2450179,-1.7100723\Quadrupole=28.395346,-1
 55.0359882,126.6406422,22.6021399,163.8928458,54.0219025\PG=C01 [X(C23
 H36N9O7)]\\@
 The archive entry for this job was punched.


 CHILDREN YOU ARE VERY LITTLE,
 AND YOUR BONES ARE VERY BRITTLE;
 IF YOU WOULD GROW GREAT AND STATELY
 YOU MUST TRY TO WALK SEDATELY.
 YOU MUST STILL BE BRIGHT AND QUIET,
 AND CONTENT WITH SIMPLE DIET;
 AND REMAIN, THROUGH ALL BEWILD'RING
 INNOCENT AND HONEST CHILDREN.
     -- A CHILD'S GARDEN OF VERSE,
        ROBERT LOUIS STEVENSON
 Job cpu time:       0 days  0 hours  4 minutes 34.3 seconds.
 Elapsed time:       0 days  0 hours  1 minutes  9.3 seconds.
 File lengths (MBytes):  RWF=    344 Int=      0 D2E=      0 Chk=     48 Scr=     16
 Normal termination of Gaussian 16 at Fri Jun  3 06:01:08 2022.
