 Entering Gaussian System, Link 0=/opt/software/Gaussian/g16-AVX2-C.01/g16/g16
 Input=opt_freq-conf-33.com
 Output=opt_freq-conf-33.log
 Initial command:
 /opt/software/Gaussian/g16-AVX2-C.01/g16/l1.exe "/mnt/gs18/scratch/users/kengmith/Gau-51885.inp" -scrdir="/mnt/gs18/scratch/users/kengmith/"
 Entering Link 1 = /opt/software/Gaussian/g16-AVX2-C.01/g16/l1.exe PID=     51911.
  
 Copyright (c) 1988-2019, Gaussian, Inc.  All Rights Reserved.
  
 This is part of the Gaussian(R) 16 program.  It is based on
 the Gaussian(R) 09 system (copyright 2009, Gaussian, Inc.),
 the Gaussian(R) 03 system (copyright 2003, Gaussian, Inc.),
 the Gaussian(R) 98 system (copyright 1998, Gaussian, Inc.),
 the Gaussian(R) 94 system (copyright 1995, Gaussian, Inc.),
 the Gaussian 92(TM) system (copyright 1992, Gaussian, Inc.),
 the Gaussian 90(TM) system (copyright 1990, Gaussian, Inc.),
 the Gaussian 88(TM) system (copyright 1988, Gaussian, Inc.),
 the Gaussian 86(TM) system (copyright 1986, Carnegie Mellon
 University), and the Gaussian 82(TM) system (copyright 1983,
 Carnegie Mellon University). Gaussian is a federally registered
 trademark of Gaussian, Inc.
  
 This software contains proprietary and confidential information,
 including trade secrets, belonging to Gaussian, Inc.
  
 This software is provided under written license and may be
 used, copied, transmitted, or stored only in accord with that
 written license.
  
 The following legend is applicable only to US Government
 contracts under FAR:
  
                    RESTRICTED RIGHTS LEGEND
  
 Use, reproduction and disclosure by the US Government is
 subject to restrictions as set forth in subparagraphs (a)
 and (c) of the Commercial Computer Software - Restricted
 Rights clause in FAR 52.227-19.
  
 Gaussian, Inc.
 340 Quinnipiac St., Bldg. 40, Wallingford CT 06492
  
  
 ---------------------------------------------------------------
 Warning -- This program may not be used in any manner that
 competes with the business of Gaussian, Inc. or will provide
 assistance to any competitor of Gaussian, Inc.  The licensee
 of this program is prohibited from giving any competitor of
 Gaussian, Inc. access to this program.  By using this program,
 the user acknowledges that Gaussian, Inc. is engaged in the
 business of creating and licensing software in the field of
 computational chemistry and represents and warrants to the
 licensee that it is not a competitor of Gaussian, Inc. and that
 it will not use this program in any manner prohibited above.
 ---------------------------------------------------------------
  

 Cite this work as:
 Gaussian 16, Revision C.01,
 M. J. Frisch, G. W. Trucks, H. B. Schlegel, G. E. Scuseria, 
 M. A. Robb, J. R. Cheeseman, G. Scalmani, V. Barone, 
 G. A. Petersson, H. Nakatsuji, X. Li, M. Caricato, A. V. Marenich, 
 J. Bloino, B. G. Janesko, R. Gomperts, B. Mennucci, H. P. Hratchian, 
 J. V. Ortiz, A. F. Izmaylov, J. L. Sonnenberg, D. Williams-Young, 
 F. Ding, F. Lipparini, F. Egidi, J. Goings, B. Peng, A. Petrone, 
 T. Henderson, D. Ranasinghe, V. G. Zakrzewski, J. Gao, N. Rega, 
 G. Zheng, W. Liang, M. Hada, M. Ehara, K. Toyota, R. Fukuda, 
 J. Hasegawa, M. Ishida, T. Nakajima, Y. Honda, O. Kitao, H. Nakai, 
 T. Vreven, K. Throssell, J. A. Montgomery, Jr., J. E. Peralta, 
 F. Ogliaro, M. J. Bearpark, J. J. Heyd, E. N. Brothers, K. N. Kudin, 
 V. N. Staroverov, T. A. Keith, R. Kobayashi, J. Normand, 
 K. Raghavachari, A. P. Rendell, J. C. Burant, S. S. Iyengar, 
 J. Tomasi, M. Cossi, J. M. Millam, M. Klene, C. Adamo, R. Cammi, 
 J. W. Ochterski, R. L. Martin, K. Morokuma, O. Farkas, 
 J. B. Foresman, and D. J. Fox, Gaussian, Inc., Wallingford CT, 2019.
 
 ******************************************
 Gaussian 16:  ES64L-G16RevC.01  3-Jul-2019
                31-May-2022 
 ******************************************
 %mem=12gb
 %nproc=8
 Will use up to    8 processors via shared memory.
 %chk=conf-33.chk
 ----------------------------------------------------------------------
 # B3LYP/6-31G* empiricaldispersion=gd3 opt=calcfc freq=noraman nosymm 
 integral(ultrafinegrid)
 ----------------------------------------------------------------------
 1/10=4,18=20,19=15,26=4,38=1/1,3;
 2/9=110,12=2,15=1,17=6,18=5,40=1/2;
 3/5=1,6=6,7=1,11=2,25=1,30=1,71=2,74=-5,75=-5,124=31,140=1/1,2,3;
 4//1;
 5/5=2,38=5/2;
 8/6=4,10=90,11=11/1;
 11/6=1,8=1,9=11,15=111,16=1,31=1/1,2,10;
 10/6=1,13=1,31=1/2;
 6/7=2,8=2,9=2,10=2,28=1/1;
 7/10=1,25=1,30=1/1,2,3,16;
 1/10=4,18=20,19=15,26=4/3(2);
 2/9=110,15=1/2;
 99//99;
 2/9=110,15=1/2;
 3/5=1,6=6,7=1,11=2,25=1,30=1,71=1,74=-5,75=-5,124=31/1,2,3;
 4/5=5,16=3,69=1/1;
 5/5=2,38=5/2;
 7/30=1/1,2,3,16;
 1/18=20,19=15,26=4/3(-5);
 2/9=110,15=1/2;
 6/7=2,8=2,9=2,10=2,19=2,28=1/1;
 99/9=1/99;
 -----------------------------------------------------------
 Candidate Structure: Conf:33 OPT and FREQ calc in gas phase
 -----------------------------------------------------------
 Symbolic Z-matrix:
 Charge =  1 Multiplicity = 1
 N                    -8.72761  -3.97814  -9.399 
 C                    -7.56966  -4.31685  -8.5571 
 C                    -7.72004  -3.60671  -7.2048 
 O                    -8.59661  -4.03592  -6.40768 
 C                    -6.22619  -4.04044  -9.21696 
 C                    -6.02496  -4.9736   -10.38131 
 N                    -5.86262  -4.38817  -11.5926 
 O                    -5.99589  -6.18028  -10.20474 
 H                    -8.43151  -3.33123  -10.13089 
 H                    -7.59914  -5.38471  -8.31523 
 H                    -6.12213  -3.00184  -9.48655 
 H                    -5.44609  -4.29986  -8.48579 
 H                    -5.79107  -5.00686  -12.38295 
 H                    -6.11875  -3.42236  -11.72633 
 H                    -9.08587  -4.81534  -9.86107 
 H                    -9.49521  -3.52351  -8.88142 
 N                    -6.89187  -2.52944  -6.95003 
 C                    -6.65918  -2.12658  -5.5685 
 C                    -6.79349  -0.59945  -5.45874 
 O                    -5.85663   0.10561  -5.10657 
 C                    -5.30325  -2.63691  -5.01489 
 C                    -4.85429  -3.96146  -5.59324 
 C                    -5.65618  -5.09646  -5.50543 
 C                    -3.65746  -4.04638  -6.30061 
 C                    -5.30128  -6.27012  -6.17151 
 C                    -3.28273  -5.22388  -6.93917 
 C                    -4.11395  -6.33557  -6.89073 
 H                    -6.12458  -2.36151  -7.57279 
 H                    -7.46254  -2.57763  -4.98414 
 H                    -4.52503  -1.89636  -5.20757 
 H                    -5.40973  -2.6978   -3.92918 
 H                    -6.626    -5.03099  -5.01108 
 H                    -3.02397  -3.16994  -6.37912 
 H                    -5.98882  -7.10821  -6.15003 
 H                    -2.36215  -5.25127  -7.51075 
 H                    -3.85392  -7.23849  -7.43444 
 N                    -7.98843  -0.05334  -5.7908 
 C                    -9.19755  -0.73122  -6.18371 
 C                    -9.37384  -0.84917  -7.70332 
 O                    -10.17797  -1.64992  -8.1749 
 C                    -10.4474  -0.06097  -5.58207 
 C                    -10.65741   1.37144  -6.04183 
 N                    -11.94616   1.73194  -6.24103 
 O                    -9.71943   2.14795  -6.18248 
 H                    -8.02424   0.95429  -5.72505 
 H                    -9.16101  -1.76113  -5.83536 
 H                    -10.33608  -0.03211  -4.49644 
 H                    -11.32659  -0.66445  -5.81418 
 H                    -12.13878   2.67608  -6.52578 
 H                    -12.70121   1.08641  -6.10672 
 N                    -8.65348   0.0013   -8.45054 
 C                    -8.66138  -0.03813  -9.89781 
 C                    -7.48206  -0.89797  -10.37481 
 O                    -6.29075  -0.49584  -9.95499 
 C                    -8.63157   1.36701  -10.55834 
 C                    -8.59735   2.5542   -9.58794 
 C                    -7.20286   2.966    -9.11327 
 N                    -6.4239    1.79812  -8.67114 
 C                    -5.53337   1.85512  -7.75377 
 N                    -5.43983   2.85501  -6.81218 
 N                    -4.62631   0.83629  -7.60342 
 O                    -7.64352  -1.87474  -11.06337 
 H                    -7.94789   0.56733  -8.02495 
 H                    -9.57348  -0.56967  -10.16525 
 H                    -7.77367   1.44095  -11.23599 
 H                    -9.52214   1.44169  -11.18982 
 H                    -9.0198    3.42719  -10.09604 
 H                    -9.23313   2.37352  -8.7232 
 H                    -6.66231   3.46042  -9.92625 
 H                    -7.32183   3.69844  -8.30933 
 H                    -6.39658   0.42918  -9.53039 
 H                    -4.53003   2.93803  -6.38924 
 H                    -5.88159   3.73527  -7.02664 
 H                    -4.49621   0.57519  -6.63679 
 H                    -4.8032    0.0693   -8.23749 
 

 GradGradGradGradGradGradGradGradGradGradGradGradGradGradGradGradGradGrad
 Berny optimization.
 Initialization pass.
                           ----------------------------
                           !    Initial Parameters    !
                           ! (Angstroms and Degrees)  !
 --------------------------                            --------------------------
 ! Name  Definition              Value          Derivative Info.                !
 --------------------------------------------------------------------------------
 ! R1    R(1,2)                  1.4712         calculate D2E/DX2 analytically  !
 ! R2    R(1,9)                  1.0207         calculate D2E/DX2 analytically  !
 ! R3    R(1,15)                 1.0212         calculate D2E/DX2 analytically  !
 ! R4    R(1,16)                 1.0314         calculate D2E/DX2 analytically  !
 ! R5    R(2,3)                  1.5348         calculate D2E/DX2 analytically  !
 ! R6    R(2,5)                  1.5221         calculate D2E/DX2 analytically  !
 ! R7    R(2,10)                 1.0953         calculate D2E/DX2 analytically  !
 ! R8    R(3,4)                  1.2601         calculate D2E/DX2 analytically  !
 ! R9    R(3,17)                 1.3825         calculate D2E/DX2 analytically  !
 ! R10   R(5,6)                  1.5057         calculate D2E/DX2 analytically  !
 ! R11   R(5,11)                 1.0781         calculate D2E/DX2 analytically  !
 ! R12   R(5,12)                 1.1002         calculate D2E/DX2 analytically  !
 ! R13   R(6,7)                  1.3551         calculate D2E/DX2 analytically  !
 ! R14   R(6,8)                  1.2199         calculate D2E/DX2 analytically  !
 ! R15   R(7,13)                 1.0063         calculate D2E/DX2 analytically  !
 ! R16   R(7,14)                 1.0081         calculate D2E/DX2 analytically  !
 ! R17   R(17,18)                1.4578         calculate D2E/DX2 analytically  !
 ! R18   R(17,28)                1.0024         calculate D2E/DX2 analytically  !
 ! R19   R(18,19)                1.537          calculate D2E/DX2 analytically  !
 ! R20   R(18,21)                1.551          calculate D2E/DX2 analytically  !
 ! R21   R(18,29)                1.091          calculate D2E/DX2 analytically  !
 ! R22   R(19,20)                1.2243         calculate D2E/DX2 analytically  !
 ! R23   R(19,37)                1.3551         calculate D2E/DX2 analytically  !
 ! R24   R(21,22)                1.5134         calculate D2E/DX2 analytically  !
 ! R25   R(21,30)                1.0914         calculate D2E/DX2 analytically  !
 ! R26   R(21,31)                1.0926         calculate D2E/DX2 analytically  !
 ! R27   R(22,23)                1.3925         calculate D2E/DX2 analytically  !
 ! R28   R(22,24)                1.3928         calculate D2E/DX2 analytically  !
 ! R29   R(23,25)                1.3954         calculate D2E/DX2 analytically  !
 ! R30   R(23,32)                1.0905         calculate D2E/DX2 analytically  !
 ! R31   R(24,26)                1.3909         calculate D2E/DX2 analytically  !
 ! R32   R(24,33)                1.0843         calculate D2E/DX2 analytically  !
 ! R33   R(25,27)                1.3897         calculate D2E/DX2 analytically  !
 ! R34   R(25,34)                1.0842         calculate D2E/DX2 analytically  !
 ! R35   R(26,27)                1.3889         calculate D2E/DX2 analytically  !
 ! R36   R(26,35)                1.0839         calculate D2E/DX2 analytically  !
 ! R37   R(27,36)                1.0856         calculate D2E/DX2 analytically  !
 ! R38   R(37,38)                1.4408         calculate D2E/DX2 analytically  !
 ! R39   R(37,45)                1.0104         calculate D2E/DX2 analytically  !
 ! R40   R(38,39)                1.5343         calculate D2E/DX2 analytically  !
 ! R41   R(38,41)                1.5406         calculate D2E/DX2 analytically  !
 ! R42   R(38,46)                1.0878         calculate D2E/DX2 analytically  !
 ! R43   R(39,40)                1.2289         calculate D2E/DX2 analytically  !
 ! R44   R(39,51)                1.3419         calculate D2E/DX2 analytically  !
 ! R45   R(41,42)                1.519          calculate D2E/DX2 analytically  !
 ! R46   R(41,47)                1.0917         calculate D2E/DX2 analytically  !
 ! R47   R(41,48)                1.0913         calculate D2E/DX2 analytically  !
 ! R48   R(42,43)                1.353          calculate D2E/DX2 analytically  !
 ! R49   R(42,44)                1.2258         calculate D2E/DX2 analytically  !
 ! R50   R(43,49)                1.0048         calculate D2E/DX2 analytically  !
 ! R51   R(43,50)                1.0024         calculate D2E/DX2 analytically  !
 ! R52   R(51,52)                1.4478         calculate D2E/DX2 analytically  !
 ! R53   R(51,63)                0.9997         calculate D2E/DX2 analytically  !
 ! R54   R(52,53)                1.5355         calculate D2E/DX2 analytically  !
 ! R55   R(52,55)                1.5529         calculate D2E/DX2 analytically  !
 ! R56   R(52,64)                1.089          calculate D2E/DX2 analytically  !
 ! R57   R(53,54)                1.3256         calculate D2E/DX2 analytically  !
 ! R58   R(53,62)                1.2059         calculate D2E/DX2 analytically  !
 ! R59   R(54,71)                1.0233         calculate D2E/DX2 analytically  !
 ! R60   R(55,56)                1.5337         calculate D2E/DX2 analytically  !
 ! R61   R(55,65)                1.0958         calculate D2E/DX2 analytically  !
 ! R62   R(55,66)                1.0943         calculate D2E/DX2 analytically  !
 ! R63   R(56,57)                1.5295         calculate D2E/DX2 analytically  !
 ! R64   R(56,67)                1.0949         calculate D2E/DX2 analytically  !
 ! R65   R(56,68)                1.0884         calculate D2E/DX2 analytically  !
 ! R66   R(57,58)                1.4718         calculate D2E/DX2 analytically  !
 ! R67   R(57,69)                1.0943         calculate D2E/DX2 analytically  !
 ! R68   R(57,70)                1.0941         calculate D2E/DX2 analytically  !
 ! R69   R(58,59)                1.2798         calculate D2E/DX2 analytically  !
 ! R70   R(59,60)                1.3766         calculate D2E/DX2 analytically  !
 ! R71   R(59,61)                1.3724         calculate D2E/DX2 analytically  !
 ! R72   R(60,72)                1.0067         calculate D2E/DX2 analytically  !
 ! R73   R(60,73)                1.008          calculate D2E/DX2 analytically  !
 ! R74   R(61,74)                1.0097         calculate D2E/DX2 analytically  !
 ! R75   R(61,75)                1.0107         calculate D2E/DX2 analytically  !
 ! A1    A(2,1,9)              109.1425         calculate D2E/DX2 analytically  !
 ! A2    A(2,1,15)             110.263          calculate D2E/DX2 analytically  !
 ! A3    A(2,1,16)             113.5836         calculate D2E/DX2 analytically  !
 ! A4    A(9,1,15)             107.2739         calculate D2E/DX2 analytically  !
 ! A5    A(9,1,16)             107.2389         calculate D2E/DX2 analytically  !
 ! A6    A(15,1,16)            109.1082         calculate D2E/DX2 analytically  !
 ! A7    A(1,2,3)              108.6973         calculate D2E/DX2 analytically  !
 ! A8    A(1,2,5)              113.8804         calculate D2E/DX2 analytically  !
 ! A9    A(1,2,10)             109.2471         calculate D2E/DX2 analytically  !
 ! A10   A(3,2,5)              112.6089         calculate D2E/DX2 analytically  !
 ! A11   A(3,2,10)             104.7079         calculate D2E/DX2 analytically  !
 ! A12   A(5,2,10)             107.2498         calculate D2E/DX2 analytically  !
 ! A13   A(2,3,4)              117.8982         calculate D2E/DX2 analytically  !
 ! A14   A(2,3,17)             117.6588         calculate D2E/DX2 analytically  !
 ! A15   A(4,3,17)             124.4396         calculate D2E/DX2 analytically  !
 ! A16   A(2,5,6)              109.918          calculate D2E/DX2 analytically  !
 ! A17   A(2,5,11)             111.627          calculate D2E/DX2 analytically  !
 ! A18   A(2,5,12)             107.1521         calculate D2E/DX2 analytically  !
 ! A19   A(6,5,11)             113.0049         calculate D2E/DX2 analytically  !
 ! A20   A(6,5,12)             105.8443         calculate D2E/DX2 analytically  !
 ! A21   A(11,5,12)            108.9601         calculate D2E/DX2 analytically  !
 ! A22   A(5,6,7)              116.0721         calculate D2E/DX2 analytically  !
 ! A23   A(5,6,8)              120.2862         calculate D2E/DX2 analytically  !
 ! A24   A(7,6,8)              123.6334         calculate D2E/DX2 analytically  !
 ! A25   A(6,7,13)             116.4217         calculate D2E/DX2 analytically  !
 ! A26   A(6,7,14)             120.1349         calculate D2E/DX2 analytically  !
 ! A27   A(13,7,14)            120.1928         calculate D2E/DX2 analytically  !
 ! A28   A(3,17,18)            119.0521         calculate D2E/DX2 analytically  !
 ! A29   A(3,17,28)            118.3343         calculate D2E/DX2 analytically  !
 ! A30   A(18,17,28)           114.8536         calculate D2E/DX2 analytically  !
 ! A31   A(17,18,19)           109.1668         calculate D2E/DX2 analytically  !
 ! A32   A(17,18,21)           112.7617         calculate D2E/DX2 analytically  !
 ! A33   A(17,18,29)           106.0104         calculate D2E/DX2 analytically  !
 ! A34   A(19,18,21)           112.2004         calculate D2E/DX2 analytically  !
 ! A35   A(19,18,29)           107.9494         calculate D2E/DX2 analytically  !
 ! A36   A(21,18,29)           108.454          calculate D2E/DX2 analytically  !
 ! A37   A(18,19,20)           121.7282         calculate D2E/DX2 analytically  !
 ! A38   A(18,19,37)           117.3862         calculate D2E/DX2 analytically  !
 ! A39   A(20,19,37)           120.8756         calculate D2E/DX2 analytically  !
 ! A40   A(18,21,22)           114.2621         calculate D2E/DX2 analytically  !
 ! A41   A(18,21,30)           109.7006         calculate D2E/DX2 analytically  !
 ! A42   A(18,21,31)           106.7278         calculate D2E/DX2 analytically  !
 ! A43   A(22,21,30)           108.3524         calculate D2E/DX2 analytically  !
 ! A44   A(22,21,31)           111.092          calculate D2E/DX2 analytically  !
 ! A45   A(30,21,31)           106.4231         calculate D2E/DX2 analytically  !
 ! A46   A(21,22,23)           121.2279         calculate D2E/DX2 analytically  !
 ! A47   A(21,22,24)           120.155          calculate D2E/DX2 analytically  !
 ! A48   A(23,22,24)           118.5005         calculate D2E/DX2 analytically  !
 ! A49   A(22,23,25)           120.5983         calculate D2E/DX2 analytically  !
 ! A50   A(22,23,32)           119.4583         calculate D2E/DX2 analytically  !
 ! A51   A(25,23,32)           119.5429         calculate D2E/DX2 analytically  !
 ! A52   A(22,24,26)           121.0823         calculate D2E/DX2 analytically  !
 ! A53   A(22,24,33)           119.3097         calculate D2E/DX2 analytically  !
 ! A54   A(26,24,33)           119.5806         calculate D2E/DX2 analytically  !
 ! A55   A(23,25,27)           120.2618         calculate D2E/DX2 analytically  !
 ! A56   A(23,25,34)           118.6472         calculate D2E/DX2 analytically  !
 ! A57   A(27,25,34)           121.0392         calculate D2E/DX2 analytically  !
 ! A58   A(24,26,27)           120.022          calculate D2E/DX2 analytically  !
 ! A59   A(24,26,35)           119.491          calculate D2E/DX2 analytically  !
 ! A60   A(27,26,35)           120.4266         calculate D2E/DX2 analytically  !
 ! A61   A(25,27,26)           119.4497         calculate D2E/DX2 analytically  !
 ! A62   A(25,27,36)           120.2            calculate D2E/DX2 analytically  !
 ! A63   A(26,27,36)           120.3244         calculate D2E/DX2 analytically  !
 ! A64   A(19,37,38)           128.1129         calculate D2E/DX2 analytically  !
 ! A65   A(19,37,45)           114.6577         calculate D2E/DX2 analytically  !
 ! A66   A(38,37,45)           117.2071         calculate D2E/DX2 analytically  !
 ! A67   A(37,38,39)           113.7455         calculate D2E/DX2 analytically  !
 ! A68   A(37,38,41)           111.6938         calculate D2E/DX2 analytically  !
 ! A69   A(37,38,46)           109.2642         calculate D2E/DX2 analytically  !
 ! A70   A(39,38,41)           109.0875         calculate D2E/DX2 analytically  !
 ! A71   A(39,38,46)           104.3729         calculate D2E/DX2 analytically  !
 ! A72   A(41,38,46)           108.306          calculate D2E/DX2 analytically  !
 ! A73   A(38,39,40)           120.3529         calculate D2E/DX2 analytically  !
 ! A74   A(38,39,51)           116.1747         calculate D2E/DX2 analytically  !
 ! A75   A(40,39,51)           123.4065         calculate D2E/DX2 analytically  !
 ! A76   A(38,41,42)           113.8431         calculate D2E/DX2 analytically  !
 ! A77   A(38,41,47)           108.4895         calculate D2E/DX2 analytically  !
 ! A78   A(38,41,48)           109.2654         calculate D2E/DX2 analytically  !
 ! A79   A(42,41,47)           106.8674         calculate D2E/DX2 analytically  !
 ! A80   A(42,41,48)           110.2251         calculate D2E/DX2 analytically  !
 ! A81   A(47,41,48)           107.9546         calculate D2E/DX2 analytically  !
 ! A82   A(41,42,43)           115.3102         calculate D2E/DX2 analytically  !
 ! A83   A(41,42,44)           121.7572         calculate D2E/DX2 analytically  !
 ! A84   A(43,42,44)           122.9017         calculate D2E/DX2 analytically  !
 ! A85   A(42,43,49)           118.3402         calculate D2E/DX2 analytically  !
 ! A86   A(42,43,50)           121.7468         calculate D2E/DX2 analytically  !
 ! A87   A(49,43,50)           119.912          calculate D2E/DX2 analytically  !
 ! A88   A(39,51,52)           122.4424         calculate D2E/DX2 analytically  !
 ! A89   A(39,51,63)           120.0465         calculate D2E/DX2 analytically  !
 ! A90   A(52,51,63)           116.4127         calculate D2E/DX2 analytically  !
 ! A91   A(51,52,53)           108.7596         calculate D2E/DX2 analytically  !
 ! A92   A(51,52,55)           113.6048         calculate D2E/DX2 analytically  !
 ! A93   A(51,52,64)           105.2687         calculate D2E/DX2 analytically  !
 ! A94   A(53,52,55)           111.0887         calculate D2E/DX2 analytically  !
 ! A95   A(53,52,64)           107.0775         calculate D2E/DX2 analytically  !
 ! A96   A(55,52,64)           110.6866         calculate D2E/DX2 analytically  !
 ! A97   A(52,53,54)           114.9603         calculate D2E/DX2 analytically  !
 ! A98   A(52,53,62)           121.8782         calculate D2E/DX2 analytically  !
 ! A99   A(54,53,62)           123.1529         calculate D2E/DX2 analytically  !
 ! A100  A(53,54,71)           108.2213         calculate D2E/DX2 analytically  !
 ! A101  A(52,55,56)           115.5757         calculate D2E/DX2 analytically  !
 ! A102  A(52,55,65)           109.824          calculate D2E/DX2 analytically  !
 ! A103  A(52,55,66)           106.9524         calculate D2E/DX2 analytically  !
 ! A104  A(56,55,65)           108.7593         calculate D2E/DX2 analytically  !
 ! A105  A(56,55,66)           109.2962         calculate D2E/DX2 analytically  !
 ! A106  A(65,55,66)           106.0037         calculate D2E/DX2 analytically  !
 ! A107  A(55,56,57)           115.1566         calculate D2E/DX2 analytically  !
 ! A108  A(55,56,67)           108.3585         calculate D2E/DX2 analytically  !
 ! A109  A(55,56,68)           111.171          calculate D2E/DX2 analytically  !
 ! A110  A(57,56,67)           106.3274         calculate D2E/DX2 analytically  !
 ! A111  A(57,56,68)           109.3114         calculate D2E/DX2 analytically  !
 ! A112  A(67,56,68)           106.0027         calculate D2E/DX2 analytically  !
 ! A113  A(56,57,58)           111.2302         calculate D2E/DX2 analytically  !
 ! A114  A(56,57,69)           109.964          calculate D2E/DX2 analytically  !
 ! A115  A(56,57,70)           108.0072         calculate D2E/DX2 analytically  !
 ! A116  A(58,57,69)           108.6778         calculate D2E/DX2 analytically  !
 ! A117  A(58,57,70)           111.5948         calculate D2E/DX2 analytically  !
 ! A118  A(69,57,70)           107.2866         calculate D2E/DX2 analytically  !
 ! A119  A(57,58,59)           123.2487         calculate D2E/DX2 analytically  !
 ! A120  A(58,59,60)           124.744          calculate D2E/DX2 analytically  !
 ! A121  A(58,59,61)           120.3569         calculate D2E/DX2 analytically  !
 ! A122  A(60,59,61)           114.7955         calculate D2E/DX2 analytically  !
 ! A123  A(59,60,72)           114.1201         calculate D2E/DX2 analytically  !
 ! A124  A(59,60,73)           117.3228         calculate D2E/DX2 analytically  !
 ! A125  A(72,60,73)           114.4215         calculate D2E/DX2 analytically  !
 ! A126  A(59,61,74)           112.4592         calculate D2E/DX2 analytically  !
 ! A127  A(59,61,75)           112.2694         calculate D2E/DX2 analytically  !
 ! A128  A(74,61,75)           115.27           calculate D2E/DX2 analytically  !
 ! D1    D(9,1,2,3)            107.0137         calculate D2E/DX2 analytically  !
 ! D2    D(9,1,2,5)            -19.4053         calculate D2E/DX2 analytically  !
 ! D3    D(9,1,2,10)          -139.2786         calculate D2E/DX2 analytically  !
 ! D4    D(15,1,2,3)          -135.3924         calculate D2E/DX2 analytically  !
 ! D5    D(15,1,2,5)            98.1885         calculate D2E/DX2 analytically  !
 ! D6    D(15,1,2,10)          -21.6847         calculate D2E/DX2 analytically  !
 ! D7    D(16,1,2,3)           -12.5784         calculate D2E/DX2 analytically  !
 ! D8    D(16,1,2,5)          -138.9975         calculate D2E/DX2 analytically  !
 ! D9    D(16,1,2,10)          101.1293         calculate D2E/DX2 analytically  !
 ! D10   D(1,2,3,4)             72.1147         calculate D2E/DX2 analytically  !
 ! D11   D(1,2,3,17)          -107.247          calculate D2E/DX2 analytically  !
 ! D12   D(5,2,3,4)           -160.7357         calculate D2E/DX2 analytically  !
 ! D13   D(5,2,3,17)            19.9026         calculate D2E/DX2 analytically  !
 ! D14   D(10,2,3,4)           -44.5413         calculate D2E/DX2 analytically  !
 ! D15   D(10,2,3,17)          136.097          calculate D2E/DX2 analytically  !
 ! D16   D(1,2,5,6)            -67.2417         calculate D2E/DX2 analytically  !
 ! D17   D(1,2,5,11)            58.9732         calculate D2E/DX2 analytically  !
 ! D18   D(1,2,5,12)           178.1921         calculate D2E/DX2 analytically  !
 ! D19   D(3,2,5,6)            168.416          calculate D2E/DX2 analytically  !
 ! D20   D(3,2,5,11)           -65.3692         calculate D2E/DX2 analytically  !
 ! D21   D(3,2,5,12)            53.8498         calculate D2E/DX2 analytically  !
 ! D22   D(10,2,5,6)            53.7526         calculate D2E/DX2 analytically  !
 ! D23   D(10,2,5,11)          179.9674         calculate D2E/DX2 analytically  !
 ! D24   D(10,2,5,12)          -60.8136         calculate D2E/DX2 analytically  !
 ! D25   D(2,3,17,18)         -158.7871         calculate D2E/DX2 analytically  !
 ! D26   D(2,3,17,28)          -11.0323         calculate D2E/DX2 analytically  !
 ! D27   D(4,3,17,18)           21.8969         calculate D2E/DX2 analytically  !
 ! D28   D(4,3,17,28)          169.6517         calculate D2E/DX2 analytically  !
 ! D29   D(2,5,6,7)            119.9789         calculate D2E/DX2 analytically  !
 ! D30   D(2,5,6,8)            -61.0352         calculate D2E/DX2 analytically  !
 ! D31   D(11,5,6,7)            -5.4524         calculate D2E/DX2 analytically  !
 ! D32   D(11,5,6,8)           173.5335         calculate D2E/DX2 analytically  !
 ! D33   D(12,5,6,7)          -124.6235         calculate D2E/DX2 analytically  !
 ! D34   D(12,5,6,8)            54.3624         calculate D2E/DX2 analytically  !
 ! D35   D(5,6,7,13)          -175.935          calculate D2E/DX2 analytically  !
 ! D36   D(5,6,7,14)           -16.2554         calculate D2E/DX2 analytically  !
 ! D37   D(8,6,7,13)             5.1168         calculate D2E/DX2 analytically  !
 ! D38   D(8,6,7,14)           164.7964         calculate D2E/DX2 analytically  !
 ! D39   D(3,17,18,19)        -134.1956         calculate D2E/DX2 analytically  !
 ! D40   D(3,17,18,21)         100.3788         calculate D2E/DX2 analytically  !
 ! D41   D(3,17,18,29)         -18.145          calculate D2E/DX2 analytically  !
 ! D42   D(28,17,18,19)         76.9727         calculate D2E/DX2 analytically  !
 ! D43   D(28,17,18,21)        -48.4528         calculate D2E/DX2 analytically  !
 ! D44   D(28,17,18,29)       -166.9766         calculate D2E/DX2 analytically  !
 ! D45   D(17,18,19,20)       -118.33           calculate D2E/DX2 analytically  !
 ! D46   D(17,18,19,37)         60.5289         calculate D2E/DX2 analytically  !
 ! D47   D(21,18,19,20)          7.4202         calculate D2E/DX2 analytically  !
 ! D48   D(21,18,19,37)       -173.7209         calculate D2E/DX2 analytically  !
 ! D49   D(29,18,19,20)        126.8647         calculate D2E/DX2 analytically  !
 ! D50   D(29,18,19,37)        -54.2764         calculate D2E/DX2 analytically  !
 ! D51   D(17,18,21,22)        -31.648          calculate D2E/DX2 analytically  !
 ! D52   D(17,18,21,30)         90.2376         calculate D2E/DX2 analytically  !
 ! D53   D(17,18,21,31)       -154.8528         calculate D2E/DX2 analytically  !
 ! D54   D(19,18,21,22)       -155.4127         calculate D2E/DX2 analytically  !
 ! D55   D(19,18,21,30)        -33.5272         calculate D2E/DX2 analytically  !
 ! D56   D(19,18,21,31)         81.3824         calculate D2E/DX2 analytically  !
 ! D57   D(29,18,21,22)         85.4384         calculate D2E/DX2 analytically  !
 ! D58   D(29,18,21,30)       -152.676          calculate D2E/DX2 analytically  !
 ! D59   D(29,18,21,31)        -37.7664         calculate D2E/DX2 analytically  !
 ! D60   D(18,19,37,38)          3.1882         calculate D2E/DX2 analytically  !
 ! D61   D(18,19,37,45)       -178.5952         calculate D2E/DX2 analytically  !
 ! D62   D(20,19,37,38)       -177.9426         calculate D2E/DX2 analytically  !
 ! D63   D(20,19,37,45)          0.274          calculate D2E/DX2 analytically  !
 ! D64   D(18,21,22,23)        -56.8953         calculate D2E/DX2 analytically  !
 ! D65   D(18,21,22,24)        119.1181         calculate D2E/DX2 analytically  !
 ! D66   D(30,21,22,23)       -179.5176         calculate D2E/DX2 analytically  !
 ! D67   D(30,21,22,24)         -3.5042         calculate D2E/DX2 analytically  !
 ! D68   D(31,21,22,23)         63.9169         calculate D2E/DX2 analytically  !
 ! D69   D(31,21,22,24)       -120.0696         calculate D2E/DX2 analytically  !
 ! D70   D(21,22,23,25)        172.7114         calculate D2E/DX2 analytically  !
 ! D71   D(21,22,23,32)          0.0077         calculate D2E/DX2 analytically  !
 ! D72   D(24,22,23,25)         -3.3663         calculate D2E/DX2 analytically  !
 ! D73   D(24,22,23,32)       -176.0701         calculate D2E/DX2 analytically  !
 ! D74   D(21,22,24,26)       -174.3402         calculate D2E/DX2 analytically  !
 ! D75   D(21,22,24,33)          3.7474         calculate D2E/DX2 analytically  !
 ! D76   D(23,22,24,26)          1.781          calculate D2E/DX2 analytically  !
 ! D77   D(23,22,24,33)        179.8685         calculate D2E/DX2 analytically  !
 ! D78   D(22,23,25,27)          2.4647         calculate D2E/DX2 analytically  !
 ! D79   D(22,23,25,34)       -174.9444         calculate D2E/DX2 analytically  !
 ! D80   D(32,23,25,27)        175.1623         calculate D2E/DX2 analytically  !
 ! D81   D(32,23,25,34)         -2.2468         calculate D2E/DX2 analytically  !
 ! D82   D(22,24,26,27)          0.7354         calculate D2E/DX2 analytically  !
 ! D83   D(22,24,26,35)        177.9206         calculate D2E/DX2 analytically  !
 ! D84   D(33,24,26,27)       -177.3471         calculate D2E/DX2 analytically  !
 ! D85   D(33,24,26,35)         -0.1618         calculate D2E/DX2 analytically  !
 ! D86   D(23,25,27,26)          0.1014         calculate D2E/DX2 analytically  !
 ! D87   D(23,25,27,36)       -178.0568         calculate D2E/DX2 analytically  !
 ! D88   D(34,25,27,26)        177.4476         calculate D2E/DX2 analytically  !
 ! D89   D(34,25,27,36)         -0.7106         calculate D2E/DX2 analytically  !
 ! D90   D(24,26,27,25)         -1.6818         calculate D2E/DX2 analytically  !
 ! D91   D(24,26,27,36)        176.4741         calculate D2E/DX2 analytically  !
 ! D92   D(35,26,27,25)       -178.8404         calculate D2E/DX2 analytically  !
 ! D93   D(35,26,27,36)         -0.6845         calculate D2E/DX2 analytically  !
 ! D94   D(19,37,38,39)        -95.1371         calculate D2E/DX2 analytically  !
 ! D95   D(19,37,38,41)        140.8419         calculate D2E/DX2 analytically  !
 ! D96   D(19,37,38,46)         21.0321         calculate D2E/DX2 analytically  !
 ! D97   D(45,37,38,39)         86.6853         calculate D2E/DX2 analytically  !
 ! D98   D(45,37,38,41)        -37.3357         calculate D2E/DX2 analytically  !
 ! D99   D(45,37,38,46)       -157.1455         calculate D2E/DX2 analytically  !
 ! D100  D(37,38,39,40)        163.3781         calculate D2E/DX2 analytically  !
 ! D101  D(37,38,39,51)        -19.4729         calculate D2E/DX2 analytically  !
 ! D102  D(41,38,39,40)        -71.2026         calculate D2E/DX2 analytically  !
 ! D103  D(41,38,39,51)        105.9464         calculate D2E/DX2 analytically  !
 ! D104  D(46,38,39,40)         44.3778         calculate D2E/DX2 analytically  !
 ! D105  D(46,38,39,51)       -138.4732         calculate D2E/DX2 analytically  !
 ! D106  D(37,38,41,42)         62.3389         calculate D2E/DX2 analytically  !
 ! D107  D(37,38,41,47)        -56.4957         calculate D2E/DX2 analytically  !
 ! D108  D(37,38,41,48)       -173.9601         calculate D2E/DX2 analytically  !
 ! D109  D(39,38,41,42)        -64.2625         calculate D2E/DX2 analytically  !
 ! D110  D(39,38,41,47)        176.903          calculate D2E/DX2 analytically  !
 ! D111  D(39,38,41,48)         59.4385         calculate D2E/DX2 analytically  !
 ! D112  D(46,38,41,42)       -177.2889         calculate D2E/DX2 analytically  !
 ! D113  D(46,38,41,47)         63.8765         calculate D2E/DX2 analytically  !
 ! D114  D(46,38,41,48)        -53.5879         calculate D2E/DX2 analytically  !
 ! D115  D(38,39,51,52)        176.6614         calculate D2E/DX2 analytically  !
 ! D116  D(38,39,51,63)          9.0779         calculate D2E/DX2 analytically  !
 ! D117  D(40,39,51,52)         -6.2858         calculate D2E/DX2 analytically  !
 ! D118  D(40,39,51,63)       -173.8693         calculate D2E/DX2 analytically  !
 ! D119  D(38,41,42,43)        142.7752         calculate D2E/DX2 analytically  !
 ! D120  D(38,41,42,44)        -39.1911         calculate D2E/DX2 analytically  !
 ! D121  D(47,41,42,43)        -97.4688         calculate D2E/DX2 analytically  !
 ! D122  D(47,41,42,44)         80.565          calculate D2E/DX2 analytically  !
 ! D123  D(48,41,42,43)         19.5958         calculate D2E/DX2 analytically  !
 ! D124  D(48,41,42,44)       -162.3704         calculate D2E/DX2 analytically  !
 ! D125  D(41,42,43,49)        178.645          calculate D2E/DX2 analytically  !
 ! D126  D(41,42,43,50)         -0.992          calculate D2E/DX2 analytically  !
 ! D127  D(44,42,43,49)          0.6363         calculate D2E/DX2 analytically  !
 ! D128  D(44,42,43,50)       -179.0007         calculate D2E/DX2 analytically  !
 ! D129  D(39,51,52,53)        -94.1528         calculate D2E/DX2 analytically  !
 ! D130  D(39,51,52,55)        141.5755         calculate D2E/DX2 analytically  !
 ! D131  D(39,51,52,64)         20.3165         calculate D2E/DX2 analytically  !
 ! D132  D(63,51,52,53)         73.8528         calculate D2E/DX2 analytically  !
 ! D133  D(63,51,52,55)        -50.4188         calculate D2E/DX2 analytically  !
 ! D134  D(63,51,52,64)       -171.6779         calculate D2E/DX2 analytically  !
 ! D135  D(51,52,53,54)        -57.1651         calculate D2E/DX2 analytically  !
 ! D136  D(51,52,53,62)        121.8002         calculate D2E/DX2 analytically  !
 ! D137  D(55,52,53,54)         68.5833         calculate D2E/DX2 analytically  !
 ! D138  D(55,52,53,62)       -112.4513         calculate D2E/DX2 analytically  !
 ! D139  D(64,52,53,54)       -170.4492         calculate D2E/DX2 analytically  !
 ! D140  D(64,52,53,62)          8.5161         calculate D2E/DX2 analytically  !
 ! D141  D(51,52,55,56)          0.069          calculate D2E/DX2 analytically  !
 ! D142  D(51,52,55,65)        123.5402         calculate D2E/DX2 analytically  !
 ! D143  D(51,52,55,66)       -121.8607         calculate D2E/DX2 analytically  !
 ! D144  D(53,52,55,56)       -122.9337         calculate D2E/DX2 analytically  !
 ! D145  D(53,52,55,65)          0.5376         calculate D2E/DX2 analytically  !
 ! D146  D(53,52,55,66)        115.1367         calculate D2E/DX2 analytically  !
 ! D147  D(64,52,55,56)        118.2466         calculate D2E/DX2 analytically  !
 ! D148  D(64,52,55,65)       -118.2822         calculate D2E/DX2 analytically  !
 ! D149  D(64,52,55,66)         -3.6831         calculate D2E/DX2 analytically  !
 ! D150  D(52,53,54,71)        -10.5837         calculate D2E/DX2 analytically  !
 ! D151  D(62,53,54,71)        170.4657         calculate D2E/DX2 analytically  !
 ! D152  D(52,55,56,57)         86.1794         calculate D2E/DX2 analytically  !
 ! D153  D(52,55,56,67)       -154.9332         calculate D2E/DX2 analytically  !
 ! D154  D(52,55,56,68)        -38.8284         calculate D2E/DX2 analytically  !
 ! D155  D(65,55,56,57)        -37.8496         calculate D2E/DX2 analytically  !
 ! D156  D(65,55,56,67)         81.0378         calculate D2E/DX2 analytically  !
 ! D157  D(65,55,56,68)       -162.8575         calculate D2E/DX2 analytically  !
 ! D158  D(66,55,56,57)       -153.1529         calculate D2E/DX2 analytically  !
 ! D159  D(66,55,56,67)        -34.2655         calculate D2E/DX2 analytically  !
 ! D160  D(66,55,56,68)         81.8393         calculate D2E/DX2 analytically  !
 ! D161  D(55,56,57,58)        -47.8428         calculate D2E/DX2 analytically  !
 ! D162  D(55,56,57,69)         72.598          calculate D2E/DX2 analytically  !
 ! D163  D(55,56,57,70)       -170.6254         calculate D2E/DX2 analytically  !
 ! D164  D(67,56,57,58)       -167.8537         calculate D2E/DX2 analytically  !
 ! D165  D(67,56,57,69)        -47.4129         calculate D2E/DX2 analytically  !
 ! D166  D(67,56,57,70)         69.3637         calculate D2E/DX2 analytically  !
 ! D167  D(68,56,57,58)         78.1269         calculate D2E/DX2 analytically  !
 ! D168  D(68,56,57,69)       -161.4324         calculate D2E/DX2 analytically  !
 ! D169  D(68,56,57,70)        -44.6557         calculate D2E/DX2 analytically  !
 ! D170  D(56,57,58,59)       -149.3019         calculate D2E/DX2 analytically  !
 ! D171  D(69,57,58,59)         89.5014         calculate D2E/DX2 analytically  !
 ! D172  D(70,57,58,59)        -28.6081         calculate D2E/DX2 analytically  !
 ! D173  D(57,58,59,60)         19.5976         calculate D2E/DX2 analytically  !
 ! D174  D(57,58,59,61)       -164.3017         calculate D2E/DX2 analytically  !
 ! D175  D(58,59,60,72)       -159.1311         calculate D2E/DX2 analytically  !
 ! D176  D(58,59,60,73)        -21.2971         calculate D2E/DX2 analytically  !
 ! D177  D(61,59,60,72)         24.575          calculate D2E/DX2 analytically  !
 ! D178  D(61,59,60,73)        162.4091         calculate D2E/DX2 analytically  !
 ! D179  D(58,59,61,74)       -135.7612         calculate D2E/DX2 analytically  !
 ! D180  D(58,59,61,75)         -3.815          calculate D2E/DX2 analytically  !
 ! D181  D(60,59,61,74)         40.7098         calculate D2E/DX2 analytically  !
 ! D182  D(60,59,61,75)        172.656          calculate D2E/DX2 analytically  !
 --------------------------------------------------------------------------------
 Trust Radius=3.00D-01 FncErr=1.00D-07 GrdErr=1.00D-06 EigMax=2.50D+02 EigMin=1.00D-04
 Number of steps in this run=    395 maximum allowed number of steps=    450.
 GradGradGradGradGradGradGradGradGradGradGradGradGradGradGradGradGradGrad

 Symmetry turned off by external request.
 Stoichiometry    C23H36N9O7(1+)
 Framework group  C1[X(C23H36N9O7)]
 Deg. of freedom   219
 Full point group                 C1      NOp   1
                          Input orientation:                          
 ---------------------------------------------------------------------
 Center     Atomic      Atomic             Coordinates (Angstroms)
 Number     Number       Type             X           Y           Z
 ---------------------------------------------------------------------
      1          7           0       -8.727611   -3.978142   -9.399004
      2          6           0       -7.569657   -4.316848   -8.557103
      3          6           0       -7.720043   -3.606708   -7.204795
      4          8           0       -8.596607   -4.035919   -6.407683
      5          6           0       -6.226192   -4.040442   -9.216965
      6          6           0       -6.024957   -4.973603  -10.381313
      7          7           0       -5.862617   -4.388169  -11.592597
      8          8           0       -5.995892   -6.180279  -10.204745
      9          1           0       -8.431506   -3.331225  -10.130893
     10          1           0       -7.599137   -5.384709   -8.315233
     11          1           0       -6.122132   -3.001839   -9.486550
     12          1           0       -5.446093   -4.299863   -8.485790
     13          1           0       -5.791074   -5.006858  -12.382953
     14          1           0       -6.118753   -3.422364  -11.726331
     15          1           0       -9.085868   -4.815342   -9.861070
     16          1           0       -9.495213   -3.523510   -8.881424
     17          7           0       -6.891869   -2.529445   -6.950033
     18          6           0       -6.659179   -2.126584   -5.568498
     19          6           0       -6.793495   -0.599452   -5.458739
     20          8           0       -5.856628    0.105614   -5.106570
     21          6           0       -5.303250   -2.636907   -5.014891
     22          6           0       -4.854295   -3.961459   -5.593244
     23          6           0       -5.656179   -5.096459   -5.505432
     24          6           0       -3.657460   -4.046383   -6.300610
     25          6           0       -5.301281   -6.270120   -6.171514
     26          6           0       -3.282727   -5.223878   -6.939168
     27          6           0       -4.113950   -6.335573   -6.890725
     28          1           0       -6.124575   -2.361505   -7.572788
     29          1           0       -7.462542   -2.577628   -4.984145
     30          1           0       -4.525031   -1.896356   -5.207566
     31          1           0       -5.409735   -2.697798   -3.929176
     32          1           0       -6.625999   -5.030989   -5.011079
     33          1           0       -3.023973   -3.169943   -6.379121
     34          1           0       -5.988817   -7.108212   -6.150027
     35          1           0       -2.362148   -5.251267   -7.510747
     36          1           0       -3.853924   -7.238487   -7.434443
     37          7           0       -7.988432   -0.053336   -5.790801
     38          6           0       -9.197550   -0.731223   -6.183711
     39          6           0       -9.373839   -0.849172   -7.703321
     40          8           0      -10.177971   -1.649921   -8.174899
     41          6           0      -10.447405   -0.060973   -5.582073
     42          6           0      -10.657406    1.371439   -6.041829
     43          7           0      -11.946155    1.731936   -6.241029
     44          8           0       -9.719433    2.147949   -6.182478
     45          1           0       -8.024240    0.954293   -5.725052
     46          1           0       -9.161010   -1.761127   -5.835358
     47          1           0      -10.336081   -0.032109   -4.496437
     48          1           0      -11.326589   -0.664451   -5.814177
     49          1           0      -12.138785    2.676077   -6.525783
     50          1           0      -12.701207    1.086407   -6.106725
     51          7           0       -8.653480    0.001304   -8.450544
     52          6           0       -8.661380   -0.038134   -9.897814
     53          6           0       -7.482058   -0.897972  -10.374814
     54          8           0       -6.290748   -0.495840   -9.954991
     55          6           0       -8.631567    1.367008  -10.558343
     56          6           0       -8.597348    2.554203   -9.587938
     57          6           0       -7.202857    2.965998   -9.113272
     58          7           0       -6.423903    1.798124   -8.671140
     59          6           0       -5.533372    1.855116   -7.753768
     60          7           0       -5.439830    2.855013   -6.812184
     61          7           0       -4.626312    0.836295   -7.603424
     62          8           0       -7.643520   -1.874741  -11.063367
     63          1           0       -7.947889    0.567327   -8.024953
     64          1           0       -9.573481   -0.569670  -10.165253
     65          1           0       -7.773666    1.440946  -11.235993
     66          1           0       -9.522141    1.441688  -11.189821
     67          1           0       -9.019797    3.427191  -10.096037
     68          1           0       -9.233134    2.373516   -8.723200
     69          1           0       -6.662308    3.460419   -9.926255
     70          1           0       -7.321834    3.698441   -8.309327
     71          1           0       -6.396583    0.429180   -9.530394
     72          1           0       -4.530031    2.938030   -6.389241
     73          1           0       -5.881594    3.735266   -7.026639
     74          1           0       -4.496209    0.575191   -6.636787
     75          1           0       -4.803197    0.069299   -8.237487
 ---------------------------------------------------------------------
 Rotational constants (GHZ):           0.1402593           0.0775698           0.0725297
 Standard basis: 6-31G(d) (6D, 7F)
   657 basis functions,  1236 primitive gaussians,   657 cartesian basis functions
   146 alpha electrons      146 beta electrons
       nuclear repulsion energy      5220.6222396554 Hartrees.
 NAtoms=   75 NActive=   75 NUniq=   75 SFac= 1.00D+00 NAtFMM=   60 NAOKFM=T Big=T
 Integral buffers will be    131072 words long.
 Raffenetti 2 integral format.
 Two-electron integral symmetry is turned off.
 Nuclear repulsion after empirical dispersion term =     5220.4973049673 Hartrees.
 One-electron integrals computed using PRISM.
 NBasis=   657 RedAO= T EigKep=  4.49D-04  NBF=   657
 NBsUse=   657 1.00D-06 EigRej= -1.00D+00 NBFU=   657
 ExpMin= 1.61D-01 ExpMax= 5.48D+03 ExpMxC= 8.25D+02 IAcc=3 IRadAn=         5 AccDes= 0.00D+00
 Harris functional with IExCor=  402 and IRadAn=       5 diagonalized for initial guess.
 HarFok:  IExCor=  402 AccDes= 0.00D+00 IRadAn=         5 IDoV= 1 UseB2=F ITyADJ=14
 ICtDFT=  3500011 ScaDFX=  1.000000  1.000000  1.000000  1.000000
 FoFCou: FMM=F IPFlag=           0 FMFlag=      100000 FMFlg1=        2001
         NFxFlg=           0 DoJE=T BraDBF=F KetDBF=T FulRan=T
         wScrn=  0.000000 ICntrl=       500 IOpCl=  0 I1Cent=   200000004 NGrid=           0
         NMat0=    1 NMatS0=      1 NMatT0=    0 NMatD0=    1 NMtDS0=    0 NMtDT0=    0
 Symmetry not used in FoFCou.
 Requested convergence on RMS density matrix=1.00D-08 within 128 cycles.
 Requested convergence on MAX density matrix=1.00D-06.
 Requested convergence on             energy=1.00D-06.
 No special actions if energy rises.
 Integral accuracy reduced to 1.0D-05 until final iterations.
 Initial convergence to 1.0D-05 achieved.  Increase integral accuracy.
 SCF Done:  E(RB3LYP) =  -1917.47827594     A.U. after   15 cycles
            NFock= 15  Conv=0.86D-08     -V/T= 2.0089
 DoSCS=F DFT=T ScalE2(SS,OS)=  1.000000  1.000000
 Range of M.O.s used for correlation:     1   657
 NBasis=   657 NAE=   146 NBE=   146 NFC=     0 NFV=     0
 NROrb=    657 NOA=   146 NOB=   146 NVA=   511 NVB=   511
 Symmetrizing basis deriv contribution to polar:
 IMax=3 JMax=2 DiffMx= 0.00D+00
 G2DrvN: will do    76 centers at a time, making    1 passes.
 Calling FoFCou, ICntrl=  3107 FMM=T I1Cent=   0 AccDes= 0.00D+00.
 End of G2Drv F.D. properties file   721 does not exist.
 End of G2Drv F.D. properties file   722 does not exist.
 End of G2Drv F.D. properties file   788 does not exist.
          IDoAtm=11111111111111111111111111111111111111111111111111
          IDoAtm=1111111111111111111111111
          Differentiating once with respect to nuclear coordinates.
 CalDSu exits because no D1Ps are significant.
          There are   228 degrees of freedom in the 1st order CPHF.  IDoFFX=6 NUNeed=     0.
    222 vectors produced by pass  0 Test12= 7.46D-14 1.00D-09 XBig12= 1.79D-01 1.30D-01.
 AX will form    72 AO Fock derivatives at one time.
    222 vectors produced by pass  1 Test12= 7.46D-14 1.00D-09 XBig12= 3.27D-02 3.06D-02.
    222 vectors produced by pass  2 Test12= 7.46D-14 1.00D-09 XBig12= 2.31D-04 1.46D-03.
    222 vectors produced by pass  3 Test12= 7.46D-14 1.00D-09 XBig12= 8.19D-07 7.69D-05.
    222 vectors produced by pass  4 Test12= 7.46D-14 1.00D-09 XBig12= 1.13D-09 2.15D-06.
    181 vectors produced by pass  5 Test12= 7.46D-14 1.00D-09 XBig12= 1.05D-12 7.38D-08.
      7 vectors produced by pass  6 Test12= 7.46D-14 1.00D-09 XBig12= 1.12D-15 2.57D-09.
 InvSVY:  IOpt=1 It=  1 EMax= 6.11D-16
 Solved reduced A of dimension  1298 with   228 vectors.
 End of Minotr F.D. properties file   721 does not exist.
 End of Minotr F.D. properties file   722 does not exist.
 End of Minotr F.D. properties file   788 does not exist.

 **********************************************************************

            Population analysis using the SCF Density.

 **********************************************************************

 Alpha  occ. eigenvalues --  -19.29509 -19.27057 -19.25214 -19.23753 -19.22549
 Alpha  occ. eigenvalues --  -19.22356 -19.21369 -14.58866 -14.49805 -14.47446
 Alpha  occ. eigenvalues --  -14.46617 -14.46386 -14.45523 -14.45463 -14.44757
 Alpha  occ. eigenvalues --  -14.41826 -10.44206 -10.42933 -10.40542 -10.40203
 Alpha  occ. eigenvalues --  -10.40004 -10.39989 -10.39325 -10.39012 -10.35117
 Alpha  occ. eigenvalues --  -10.34884 -10.34809 -10.31979 -10.31574 -10.31094
 Alpha  occ. eigenvalues --  -10.30046 -10.28983 -10.28624 -10.28297 -10.27648
 Alpha  occ. eigenvalues --  -10.27522 -10.27466 -10.27423 -10.27246  -1.22380
 Alpha  occ. eigenvalues --   -1.16702  -1.15962  -1.14994  -1.14603  -1.14353
 Alpha  occ. eigenvalues --   -1.14017  -1.13465  -1.09535  -1.06116  -1.05391
 Alpha  occ. eigenvalues --   -1.03491  -1.01477  -1.00777  -0.98528  -0.98120
 Alpha  occ. eigenvalues --   -0.94822  -0.93132  -0.90836  -0.89263  -0.88421
 Alpha  occ. eigenvalues --   -0.85170  -0.84024  -0.83256  -0.81679  -0.79792
 Alpha  occ. eigenvalues --   -0.77726  -0.76665  -0.74251  -0.73387  -0.72450
 Alpha  occ. eigenvalues --   -0.72185  -0.72132  -0.70492  -0.70244  -0.69617
 Alpha  occ. eigenvalues --   -0.69357  -0.68953  -0.68518  -0.67488  -0.67274
 Alpha  occ. eigenvalues --   -0.65628  -0.64835  -0.64457  -0.64076  -0.63814
 Alpha  occ. eigenvalues --   -0.63506  -0.62972  -0.60829  -0.60123  -0.59605
 Alpha  occ. eigenvalues --   -0.59155  -0.58626  -0.58404  -0.58068  -0.57572
 Alpha  occ. eigenvalues --   -0.57257  -0.56659  -0.56385  -0.55381  -0.55079
 Alpha  occ. eigenvalues --   -0.54851  -0.54621  -0.54137  -0.53941  -0.53687
 Alpha  occ. eigenvalues --   -0.53345  -0.52765  -0.52373  -0.51610  -0.51458
 Alpha  occ. eigenvalues --   -0.51047  -0.50780  -0.50600  -0.50350  -0.49971
 Alpha  occ. eigenvalues --   -0.49406  -0.49093  -0.48848  -0.48503  -0.48191
 Alpha  occ. eigenvalues --   -0.48033  -0.47040  -0.46349  -0.45823  -0.44741
 Alpha  occ. eigenvalues --   -0.44522  -0.44288  -0.43760  -0.42609  -0.42463
 Alpha  occ. eigenvalues --   -0.41766  -0.40244  -0.39248  -0.38694  -0.38228
 Alpha  occ. eigenvalues --   -0.37716  -0.37568  -0.37091  -0.36678  -0.36396
 Alpha  occ. eigenvalues --   -0.35967  -0.35369  -0.35147  -0.34283  -0.33959
 Alpha  occ. eigenvalues --   -0.33414
 Alpha virt. eigenvalues --   -0.13907  -0.12270  -0.10197  -0.09560  -0.09194
 Alpha virt. eigenvalues --   -0.08840  -0.08244  -0.08174  -0.07066  -0.06895
 Alpha virt. eigenvalues --   -0.04858  -0.02601  -0.02019  -0.01654  -0.00723
 Alpha virt. eigenvalues --   -0.00058   0.00173   0.00645   0.01011   0.01646
 Alpha virt. eigenvalues --    0.01702   0.02283   0.02460   0.03053   0.03263
 Alpha virt. eigenvalues --    0.03717   0.04196   0.04355   0.04657   0.04831
 Alpha virt. eigenvalues --    0.05213   0.06057   0.06403   0.06824   0.07240
 Alpha virt. eigenvalues --    0.07402   0.07574   0.07699   0.07976   0.08512
 Alpha virt. eigenvalues --    0.08563   0.09133   0.09688   0.10064   0.10330
 Alpha virt. eigenvalues --    0.10815   0.11339   0.11680   0.12102   0.12597
 Alpha virt. eigenvalues --    0.12864   0.13277   0.13599   0.13955   0.14272
 Alpha virt. eigenvalues --    0.14640   0.14979   0.15405   0.15796   0.16334
 Alpha virt. eigenvalues --    0.17190   0.17749   0.18840   0.19140   0.19879
 Alpha virt. eigenvalues --    0.21612   0.22036   0.22648   0.23259   0.23598
 Alpha virt. eigenvalues --    0.24026   0.24818   0.25601   0.25817   0.26678
 Alpha virt. eigenvalues --    0.27286   0.28061   0.28840   0.30331   0.30685
 Alpha virt. eigenvalues --    0.31143   0.32377   0.33902   0.35556   0.36201
 Alpha virt. eigenvalues --    0.37689   0.38301   0.38837   0.40663   0.40998
 Alpha virt. eigenvalues --    0.42212   0.42574   0.42927   0.43551   0.43807
 Alpha virt. eigenvalues --    0.44469   0.44947   0.45285   0.45976   0.46258
 Alpha virt. eigenvalues --    0.46410   0.47325   0.47648   0.47869   0.48020
 Alpha virt. eigenvalues --    0.48221   0.48423   0.48587   0.48878   0.49008
 Alpha virt. eigenvalues --    0.49679   0.50569   0.50893   0.51704   0.52068
 Alpha virt. eigenvalues --    0.52457   0.52548   0.52970   0.53243   0.53690
 Alpha virt. eigenvalues --    0.53746   0.54584   0.55063   0.55147   0.55669
 Alpha virt. eigenvalues --    0.56192   0.56515   0.56875   0.57102   0.57162
 Alpha virt. eigenvalues --    0.57556   0.57876   0.58153   0.58605   0.58845
 Alpha virt. eigenvalues --    0.59039   0.60369   0.60611   0.61233   0.61563
 Alpha virt. eigenvalues --    0.62633   0.63113   0.63526   0.63881   0.64612
 Alpha virt. eigenvalues --    0.65228   0.65462   0.65656   0.66723   0.67714
 Alpha virt. eigenvalues --    0.67817   0.68606   0.69018   0.69437   0.70018
 Alpha virt. eigenvalues --    0.71032   0.71914   0.72369   0.72522   0.72858
 Alpha virt. eigenvalues --    0.73439   0.74046   0.74404   0.74520   0.75096
 Alpha virt. eigenvalues --    0.75285   0.75825   0.75868   0.75996   0.76331
 Alpha virt. eigenvalues --    0.76558   0.77457   0.77631   0.77712   0.77992
 Alpha virt. eigenvalues --    0.78313   0.78573   0.79026   0.79171   0.79463
 Alpha virt. eigenvalues --    0.79817   0.80000   0.80218   0.80403   0.81087
 Alpha virt. eigenvalues --    0.81436   0.82029   0.82957   0.83276   0.83586
 Alpha virt. eigenvalues --    0.84082   0.84540   0.85230   0.85577   0.85606
 Alpha virt. eigenvalues --    0.87140   0.87507   0.88128   0.89074   0.89555
 Alpha virt. eigenvalues --    0.89803   0.90487   0.91158   0.91375   0.91991
 Alpha virt. eigenvalues --    0.92403   0.92995   0.93204   0.94067   0.94336
 Alpha virt. eigenvalues --    0.94828   0.95719   0.97112   0.97679   0.98130
 Alpha virt. eigenvalues --    0.98617   0.99808   0.99953   1.00939   1.01653
 Alpha virt. eigenvalues --    1.02168   1.03126   1.03596   1.04078   1.05507
 Alpha virt. eigenvalues --    1.06036   1.07372   1.07854   1.08122   1.08677
 Alpha virt. eigenvalues --    1.08875   1.09375   1.10051   1.11078   1.11669
 Alpha virt. eigenvalues --    1.12445   1.13266   1.14142   1.15383   1.15888
 Alpha virt. eigenvalues --    1.16425   1.16622   1.17801   1.18252   1.18584
 Alpha virt. eigenvalues --    1.20283   1.20550   1.22097   1.22706   1.22941
 Alpha virt. eigenvalues --    1.23666   1.25524   1.26370   1.27571   1.28086
 Alpha virt. eigenvalues --    1.28833   1.29731   1.30204   1.30810   1.30981
 Alpha virt. eigenvalues --    1.31929   1.32969   1.33807   1.34099   1.34897
 Alpha virt. eigenvalues --    1.35380   1.35995   1.36918   1.37183   1.37622
 Alpha virt. eigenvalues --    1.38732   1.39986   1.40906   1.41503   1.42129
 Alpha virt. eigenvalues --    1.42686   1.43589   1.44310   1.44715   1.46691
 Alpha virt. eigenvalues --    1.47175   1.48066   1.48500   1.50040   1.50932
 Alpha virt. eigenvalues --    1.51234   1.53627   1.54127   1.55160   1.55452
 Alpha virt. eigenvalues --    1.55800   1.56648   1.57692   1.58632   1.59416
 Alpha virt. eigenvalues --    1.60315   1.61087   1.62277   1.62525   1.62683
 Alpha virt. eigenvalues --    1.62825   1.63866   1.65341   1.65903   1.66512
 Alpha virt. eigenvalues --    1.67249   1.67402   1.68292   1.68667   1.69226
 Alpha virt. eigenvalues --    1.69980   1.70481   1.70935   1.71573   1.71831
 Alpha virt. eigenvalues --    1.71979   1.72649   1.73255   1.74037   1.74705
 Alpha virt. eigenvalues --    1.74861   1.75486   1.75546   1.76027   1.76792
 Alpha virt. eigenvalues --    1.77355   1.78915   1.79074   1.79568   1.79891
 Alpha virt. eigenvalues --    1.80515   1.80792   1.81897   1.82728   1.82959
 Alpha virt. eigenvalues --    1.83523   1.84336   1.85402   1.85596   1.86178
 Alpha virt. eigenvalues --    1.87054   1.87504   1.88433   1.89075   1.89946
 Alpha virt. eigenvalues --    1.90255   1.90755   1.91150   1.91657   1.92812
 Alpha virt. eigenvalues --    1.94146   1.94320   1.94608   1.94898   1.95601
 Alpha virt. eigenvalues --    1.96501   1.97030   1.98165   1.98807   1.99214
 Alpha virt. eigenvalues --    1.99761   2.00931   2.02185   2.02838   2.03875
 Alpha virt. eigenvalues --    2.04605   2.04899   2.05515   2.06265   2.06616
 Alpha virt. eigenvalues --    2.07281   2.08374   2.08960   2.09469   2.10558
 Alpha virt. eigenvalues --    2.10877   2.11837   2.13178   2.14120   2.14616
 Alpha virt. eigenvalues --    2.15844   2.16094   2.17026   2.17702   2.18063
 Alpha virt. eigenvalues --    2.18360   2.19372   2.19656   2.20392   2.21334
 Alpha virt. eigenvalues --    2.22666   2.22949   2.23522   2.24361   2.25292
 Alpha virt. eigenvalues --    2.25449   2.26438   2.28043   2.28303   2.30017
 Alpha virt. eigenvalues --    2.30435   2.31105   2.32424   2.33595   2.34305
 Alpha virt. eigenvalues --    2.35190   2.36075   2.37744   2.39029   2.39539
 Alpha virt. eigenvalues --    2.40224   2.41100   2.41733   2.43711   2.44779
 Alpha virt. eigenvalues --    2.46226   2.48109   2.48393   2.49276   2.50274
 Alpha virt. eigenvalues --    2.50503   2.50731   2.51265   2.51716   2.52153
 Alpha virt. eigenvalues --    2.52740   2.53056   2.54354   2.55023   2.55521
 Alpha virt. eigenvalues --    2.56457   2.57360   2.57708   2.58495   2.60089
 Alpha virt. eigenvalues --    2.60683   2.61332   2.62625   2.63851   2.64256
 Alpha virt. eigenvalues --    2.66187   2.66617   2.67150   2.67597   2.69015
 Alpha virt. eigenvalues --    2.70287   2.71694   2.72568   2.73975   2.74694
 Alpha virt. eigenvalues --    2.76319   2.80458   2.81164   2.84300   2.84968
 Alpha virt. eigenvalues --    2.89159   2.89457   2.90312   2.91654   2.92257
 Alpha virt. eigenvalues --    2.93322   2.94501   2.95135   2.97151   2.98231
 Alpha virt. eigenvalues --    2.98771   2.99335   3.01407   3.03550   3.06215
 Alpha virt. eigenvalues --    3.11990   3.34056   3.70531   3.70783   3.73174
 Alpha virt. eigenvalues --    3.78764   3.81626   3.90059   3.94320   3.96283
 Alpha virt. eigenvalues --    3.98828   4.00506   4.01941   4.02730   4.04907
 Alpha virt. eigenvalues --    4.06603   4.07121   4.09513   4.10336   4.14044
 Alpha virt. eigenvalues --    4.16485   4.18630   4.19026   4.23111   4.24608
 Alpha virt. eigenvalues --    4.26218   4.27671   4.28398   4.32915   4.34836
 Alpha virt. eigenvalues --    4.39006   4.41563   4.43587   4.45289   4.47861
 Alpha virt. eigenvalues --    4.56097   4.58871   4.60060   4.64687   4.67648
 Alpha virt. eigenvalues --    4.72517
          Condensed to atoms (all electrons):
 Mulliken charges:
               1
     1  N   -0.782902
     2  C   -0.089016
     3  C    0.601930
     4  O   -0.514311
     5  C   -0.452041
     6  C    0.566415
     7  N   -0.741606
     8  O   -0.494835
     9  H    0.441658
    10  H    0.254765
    11  H    0.189955
    12  H    0.241025
    13  H    0.358515
    14  H    0.367983
    15  H    0.421160
    16  H    0.450948
    17  N   -0.601535
    18  C   -0.098517
    19  C    0.618307
    20  O   -0.518217
    21  C   -0.372154
    22  C    0.157975
    23  C   -0.202463
    24  C   -0.206369
    25  C   -0.144330
    26  C   -0.133592
    27  C   -0.120608
    28  H    0.354945
    29  H    0.215553
    30  H    0.171424
    31  H    0.191230
    32  H    0.153895
    33  H    0.134443
    34  H    0.152534
    35  H    0.153198
    36  H    0.161628
    37  N   -0.623410
    38  C   -0.070503
    39  C    0.629768
    40  O   -0.580499
    41  C   -0.377398
    42  C    0.610820
    43  N   -0.733552
    44  O   -0.527320
    45  H    0.379402
    46  H    0.210580
    47  H    0.210143
    48  H    0.184015
    49  H    0.361436
    50  H    0.358949
    51  N   -0.607547
    52  C   -0.067988
    53  C    0.625673
    54  O   -0.625350
    55  C   -0.319162
    56  C   -0.305625
    57  C   -0.140264
    58  N   -0.633677
    59  C    0.689590
    60  N   -0.734900
    61  N   -0.771166
    62  O   -0.514434
    63  H    0.389585
    64  H    0.192732
    65  H    0.171808
    66  H    0.180051
    67  H    0.163380
    68  H    0.186508
    69  H    0.170124
    70  H    0.143186
    71  H    0.466866
    72  H    0.355328
    73  H    0.355066
    74  H    0.372039
    75  H    0.338765
 Sum of Mulliken charges =   1.00000
 Mulliken charges with hydrogens summed into heavy atoms:
               1
     1  N    0.530864
     2  C    0.165749
     3  C    0.601930
     4  O   -0.514311
     5  C   -0.021061
     6  C    0.566415
     7  N   -0.015109
     8  O   -0.494835
    17  N   -0.246591
    18  C    0.117036
    19  C    0.618307
    20  O   -0.518217
    21  C   -0.009500
    22  C    0.157975
    23  C   -0.048569
    24  C   -0.071926
    25  C    0.008204
    26  C    0.019606
    27  C    0.041019
    37  N   -0.244008
    38  C    0.140077
    39  C    0.629768
    40  O   -0.580499
    41  C    0.016759
    42  C    0.610820
    43  N   -0.013167
    44  O   -0.527320
    51  N   -0.217962
    52  C    0.124744
    53  C    0.625673
    54  O   -0.158484
    55  C    0.032696
    56  C    0.044263
    57  C    0.173045
    58  N   -0.633677
    59  C    0.689590
    60  N   -0.024507
    61  N   -0.060362
    62  O   -0.514434
 APT charges:
               1
     1  N   -3.330043
     2  C    0.474292
     3  C    0.069467
     4  O    0.363291
     5  C    0.592335
     6  C   -1.906621
     7  N   -1.605109
     8  O    0.914720
     9  H    0.639739
    10  H    0.591956
    11  H    0.042941
    12  H   -0.840381
    13  H    2.493703
    14  H    0.364343
    15  H    2.333585
    16  H    0.614346
    17  N   -1.081367
    18  C   -0.976304
    19  C    1.503549
    20  O   -2.142140
    21  C    0.670742
    22  C   -1.243857
    23  C   -0.762463
    24  C   -0.750968
    25  C   -0.343413
    26  C   -0.696741
    27  C   -0.281588
    28  H    0.143883
    29  H    0.598667
    30  H   -0.285295
    31  H   -0.200370
    32  H    0.673268
    33  H   -0.359826
    34  H    1.557748
    35  H    0.506992
    36  H    1.540703
    37  N    0.492002
    38  C   -0.500224
    39  C   -2.050225
    40  O    1.940326
    41  C   -1.456616
    42  C    0.716947
    43  N   -1.505303
    44  O   -1.932387
    45  H    0.341288
    46  H    0.168364
    47  H   -0.516694
    48  H    1.610388
    49  H    1.508374
    50  H    1.781950
    51  N    1.122400
    52  C   -1.550586
    53  C   -0.741213
    54  O   -1.352979
    55  C   -2.556910
    56  C   -1.576773
    57  C   -0.641005
    58  N    1.272835
    59  C   -0.442399
    60  N   -1.141924
    61  N   -1.015101
    62  O    1.740349
    63  H   -0.783107
    64  H    1.764431
    65  H    0.347569
    66  H    2.173822
    67  H    1.588566
    68  H    0.029481
    69  H    0.895316
    70  H   -0.089502
    71  H    0.279641
    72  H   -0.750797
    73  H    1.474135
    74  H   -0.704638
    75  H    1.176414
 Sum of APT charges =   1.00000
 APT charges with hydrogens summed into heavy atoms:
               1
     1  N    0.257627
     2  C    1.066248
     3  C    0.069467
     4  O    0.363291
     5  C   -0.205105
     6  C   -1.906621
     7  N    1.252937
     8  O    0.914720
    17  N   -0.937484
    18  C   -0.377637
    19  C    1.503549
    20  O   -2.142140
    21  C    0.185077
    22  C   -1.243857
    23  C   -0.089195
    24  C   -1.110794
    25  C    1.214335
    26  C   -0.189749
    27  C    1.259116
    37  N    0.833289
    38  C   -0.331860
    39  C   -2.050225
    40  O    1.940326
    41  C   -0.362922
    42  C    0.716947
    43  N    1.785020
    44  O   -1.932387
    51  N    0.339293
    52  C    0.213845
    53  C   -0.741213
    54  O   -1.073338
    55  C   -0.035518
    56  C    0.041274
    57  C    0.164809
    58  N    1.272835
    59  C   -0.442399
    60  N   -0.418585
    61  N   -0.543325
    62  O    1.740349
 Electronic spatial extent (au):  <R**2>=         136152.4261
 Charge=              1.0000 electrons
 Dipole moment (field-independent basis, Debye):
    X=            -39.6403    Y=             -3.7765    Z=            -40.4302  Tot=             56.7469
 Quadrupole moment (field-independent basis, Debye-Ang):
   XX=            143.8941   YY=           -174.7643   ZZ=            136.7433
   XY=             26.9315   XZ=            329.6313   YZ=             41.6551
 Traceless Quadrupole moment (field-independent basis, Debye-Ang):
   XX=            108.6031   YY=           -210.0553   ZZ=            101.4523
   XY=             26.9315   XZ=            329.6313   YZ=             41.6551
 Octapole moment (field-independent basis, Debye-Ang**2):
  XXX=           1095.8907  YYY=           1007.7942  ZZZ=           1774.5219  XYY=           1231.5090
  XXY=            178.2254  XXZ=          -1231.9956  XZZ=          -1326.7578  YZZ=           -133.4529
  YYZ=           1280.8810  XYZ=           -319.4823
 Hexadecapole moment (field-independent basis, Debye-Ang**3):
 XXXX=         -34652.9862 YYYY=         -13420.1581 ZZZZ=         -50993.9934 XXXY=          -5301.8845
 XXXZ=          -8645.6907 YYYX=          -5283.1520 YYYZ=          -7676.4412 ZZZX=          -9647.8666
 ZZZY=          -2337.5353 XXYY=         -11577.5438 XXZZ=           -999.6448 YYZZ=         -12297.1766
 XXYZ=           -220.8578 YYXZ=          -8850.3604 ZZXY=           1897.8264
 N-N= 5.220497304967D+03 E-N=-1.488021478269D+04  KE= 1.900638061703D+03
  Exact polarizability:       0.000       0.000       0.000       0.000       0.000       0.000
 Approx polarizability:     482.410      39.484     497.643     -10.192      29.091     402.134
 Calling FoFJK, ICntrl=    100127 FMM=F ISym2X=0 I1Cent= 0 IOpClX= 0 NMat=1 NMatS=1 NMatT=0.
 -------------------------------------------------------------------
 Center     Atomic                   Forces (Hartrees/Bohr)
 Number     Number              X              Y              Z
 -------------------------------------------------------------------
      1        7          -0.013045843   -0.006744802   -0.012221558
      2        6           0.026331340   -0.003105264    0.031225196
      3        6          -0.023740077   -0.007716804    0.031772425
      4        8           0.033349180    0.022977448   -0.031093528
      5        6           0.000605402   -0.004661435    0.005335815
      6        6           0.006957313   -0.004084462   -0.011861478
      7        7          -0.002794942    0.001106005    0.005026672
      8        8          -0.003541307   -0.008426623    0.003455448
      9        1          -0.000688685    0.014212910   -0.011590676
     10        1          -0.003013602    0.002182419   -0.001557473
     11        1           0.001885712    0.008763614   -0.004056012
     12        1          -0.002943007    0.000593261   -0.001569642
     13        1           0.000854607   -0.000894527   -0.005883147
     14        1           0.000430565    0.005216725   -0.003475476
     15        1          -0.003340194   -0.001767348   -0.001970573
     16        1          -0.002889649    0.004418594    0.005036723
     17        7          -0.020260643   -0.019541732    0.003805092
     18        6           0.000326416    0.000123067    0.006284766
     19        6           0.002839631   -0.002399836    0.001903712
     20        8           0.007112874    0.002674304    0.002690121
     21        6           0.004251257    0.000088522   -0.001307387
     22        6          -0.003639703    0.005720495    0.004199648
     23        6          -0.009781859   -0.003702527   -0.002509066
     24        6           0.002493550    0.004763784   -0.002259271
     25        6          -0.007401814    0.001109704    0.003597236
     26        6           0.003784175    0.001024911   -0.003573658
     27        6           0.001053444   -0.006535443   -0.004375792
     28        1           0.004799203    0.000516671   -0.006457709
     29        1          -0.001195617   -0.001850540   -0.000855686
     30        1          -0.001203721    0.003604693    0.000814414
     31        1           0.000908427    0.000657170    0.002371475
     32        1           0.003677156   -0.002083013    0.001437410
     33        1           0.002201319    0.001845271    0.000215191
     34        1           0.001323830   -0.003184805    0.000622924
     35        1           0.001981746   -0.001030026   -0.000062425
     36        1           0.000342047   -0.000308524    0.000471230
     37        7           0.001946325    0.000657875    0.001565580
     38        6          -0.004949436   -0.000729240   -0.002868783
     39        6           0.004316241    0.007621978    0.003907090
     40        8          -0.006799660   -0.017555197   -0.006113527
     41        6          -0.002628044   -0.002633029    0.001854844
     42        6          -0.004927743   -0.002306482    0.002002117
     43        7           0.007616966   -0.002314232   -0.000795725
     44        8           0.009483519    0.006499068   -0.005024712
     45        1          -0.003284772    0.007383402    0.001043681
     46        1          -0.003886535   -0.001778139    0.002012687
     47        1           0.000200220   -0.001377271    0.003476529
     48        1           0.000729885   -0.003940275   -0.000184095
     49        1          -0.003028157    0.005640448   -0.000242497
     50        1          -0.006275519   -0.001711945   -0.000385266
     51        7          -0.004748550   -0.007657955   -0.004716398
     52        6          -0.002619901   -0.004590215   -0.001772830
     53        6           0.000599073    0.033942915    0.019416595
     54        8          -0.004152161   -0.015636226   -0.010861713
     55        6          -0.001716851    0.004271898   -0.003506118
     56        6          -0.001845282    0.008376895   -0.002568869
     57        6           0.005008742   -0.008811254    0.007490868
     58        7          -0.019468619   -0.003071020   -0.032199573
     59        6           0.007129702    0.012533686    0.024097741
     60        7           0.005135943   -0.005383118   -0.006800317
     61        7          -0.000388722    0.003321886   -0.002819942
     62        8          -0.000410830   -0.036598967   -0.016164742
     63        1           0.009408337    0.009202955    0.008603645
     64        1           0.000280024   -0.000350644   -0.003054340
     65        1          -0.000114329   -0.000214871   -0.001298255
     66        1           0.000371411    0.000823046    0.000426035
     67        1          -0.001452939    0.000177357   -0.001002690
     68        1          -0.002842523   -0.001475694    0.002740726
     69        1           0.001738398    0.000207667   -0.002556156
     70        1          -0.002627010    0.003008223    0.000272477
     71        1           0.007217817    0.016194826    0.009069402
     72        1           0.002849814    0.003702023    0.004818168
     73        1           0.000001534    0.001034035    0.001569200
     74        1           0.002181298   -0.006566920    0.004930469
     75        1           0.003923799   -0.003459348    0.002053751
 -------------------------------------------------------------------
 Cartesian Forces:  Max     0.036598967 RMS     0.008652020
 FormGI is forming the generalized inverse of G from B-inverse, IUseBI=4.

 GradGradGradGradGradGradGradGradGradGradGradGradGradGradGradGradGradGrad
 Berny optimization.
 Internal  Forces:  Max     0.050691953 RMS     0.007542004
 Search for a local minimum.
 Step number   1 out of a maximum of  395
 All quantities printed in internal units (Hartrees-Bohrs-Radians)
 Mixed Optimization -- RFO/linear search
 Second derivative matrix not updated -- analytic derivatives used.
 ITU=  0
     Eigenvalues ---   -0.00339  -0.00158   0.00099   0.00106   0.00138
     Eigenvalues ---    0.00188   0.00270   0.00328   0.00362   0.00414
     Eigenvalues ---    0.00434   0.00536   0.00637   0.00800   0.00838
     Eigenvalues ---    0.00906   0.00990   0.01053   0.01244   0.01317
     Eigenvalues ---    0.01378   0.01586   0.01693   0.01774   0.01784
     Eigenvalues ---    0.01798   0.01849   0.01886   0.01997   0.02245
     Eigenvalues ---    0.02303   0.02331   0.02376   0.02516   0.02605
     Eigenvalues ---    0.02791   0.02852   0.02882   0.03030   0.03658
     Eigenvalues ---    0.03753   0.03830   0.03871   0.03969   0.04014
     Eigenvalues ---    0.04136   0.04159   0.04249   0.04330   0.04335
     Eigenvalues ---    0.04401   0.04445   0.04538   0.04650   0.04757
     Eigenvalues ---    0.04801   0.04975   0.05005   0.05122   0.05145
     Eigenvalues ---    0.05193   0.05372   0.05508   0.05556   0.05646
     Eigenvalues ---    0.05845   0.06074   0.06198   0.06524   0.07013
     Eigenvalues ---    0.07369   0.07417   0.07892   0.08078   0.08190
     Eigenvalues ---    0.08363   0.08437   0.08752   0.09852   0.10451
     Eigenvalues ---    0.11014   0.11022   0.11289   0.11386   0.11401
     Eigenvalues ---    0.11776   0.11980   0.12052   0.12354   0.12402
     Eigenvalues ---    0.12492   0.12624   0.12679   0.12943   0.13066
     Eigenvalues ---    0.13308   0.13373   0.13928   0.13992   0.14242
     Eigenvalues ---    0.14741   0.14899   0.15204   0.16690   0.17006
     Eigenvalues ---    0.17664   0.18123   0.18416   0.19001   0.19076
     Eigenvalues ---    0.19418   0.19554   0.19608   0.19787   0.19990
     Eigenvalues ---    0.20400   0.20612   0.20908   0.21101   0.21163
     Eigenvalues ---    0.21373   0.21631   0.21959   0.22533   0.22838
     Eigenvalues ---    0.23000   0.23388   0.23748   0.23819   0.24421
     Eigenvalues ---    0.24766   0.25278   0.25337   0.26060   0.26788
     Eigenvalues ---    0.27148   0.27920   0.28060   0.28727   0.29209
     Eigenvalues ---    0.29936   0.30597   0.30924   0.30963   0.31388
     Eigenvalues ---    0.32368   0.33148   0.33180   0.33397   0.33449
     Eigenvalues ---    0.33813   0.33924   0.34148   0.34213   0.34480
     Eigenvalues ---    0.34657   0.34720   0.34986   0.35056   0.35083
     Eigenvalues ---    0.35198   0.35388   0.35452   0.35852   0.36358
     Eigenvalues ---    0.36420   0.36438   0.36556   0.36600   0.36741
     Eigenvalues ---    0.36903   0.37642   0.38160   0.39253   0.40501
     Eigenvalues ---    0.41418   0.41895   0.42030   0.42789   0.43766
     Eigenvalues ---    0.44233   0.44262   0.45157   0.45934   0.46759
     Eigenvalues ---    0.46828   0.46944   0.47192   0.47396   0.48148
     Eigenvalues ---    0.48488   0.48529   0.48726   0.48825   0.49088
     Eigenvalues ---    0.49253   0.49608   0.49948   0.50091   0.50205
     Eigenvalues ---    0.50395   0.50709   0.52607   0.53053   0.58018
     Eigenvalues ---    0.63467   0.66078   0.67125   0.79785   0.82690
     Eigenvalues ---    0.83747   0.83910   0.86594   0.92655   1.01513
     Eigenvalues ---    1.46563   1.89947   2.80722   4.83749
 RFO step:  Lambda=-3.64175139D-02 EMin=-3.38639597D-03
 Linear search not attempted -- first point.
 Maximum step size (   0.300) exceeded in Quadratic search.
    -- Step size scaled by   0.924
 Iteration  1 RMS(Cart)=  0.25835697 RMS(Int)=  0.02772241
 Iteration  2 RMS(Cart)=  0.11059965 RMS(Int)=  0.00786536
 Iteration  3 RMS(Cart)=  0.03458225 RMS(Int)=  0.00087079
 Iteration  4 RMS(Cart)=  0.00116372 RMS(Int)=  0.00073358
 Iteration  5 RMS(Cart)=  0.00000119 RMS(Int)=  0.00073358
 Iteration  6 RMS(Cart)=  0.00000000 RMS(Int)=  0.00073358
 Variable       Old X    -DE/DX   Delta X   Delta X   Delta X     New X
                                 (Linear)    (Quad)   (Total)
    R1        2.78013   0.02992   0.00000   0.07672   0.07672   2.85685
    R2        1.92885   0.01712   0.00000   0.03392   0.03392   1.96278
    R3        1.92970   0.00351   0.00000   0.00267   0.00267   1.93237
    R4        1.94907   0.00663   0.00000   0.03705   0.03705   1.98612
    R5        2.90038   0.00093   0.00000   0.00289   0.00289   2.90327
    R6        2.87631   0.00649   0.00000   0.00983   0.00983   2.88613
    R7        2.06983  -0.00239   0.00000  -0.00698  -0.00698   2.06285
    R8        2.38134  -0.05069   0.00000  -0.07117  -0.07117   2.31016
    R9        2.61252  -0.02519   0.00000  -0.02975  -0.02975   2.58278
   R10        2.84527   0.01450   0.00000   0.04295   0.04295   2.88822
   R11        2.03723   0.00964   0.00000   0.02543   0.02543   2.06265
   R12        2.07910  -0.00327   0.00000  -0.00790  -0.00790   2.07120
   R13        2.56077   0.00603   0.00000   0.00241   0.00241   2.56318
   R14        2.30522   0.00875   0.00000   0.00639   0.00639   2.31161
   R15        1.90155   0.00523   0.00000   0.00893   0.00893   1.91049
   R16        1.90504   0.00535   0.00000   0.00944   0.00944   1.91448
   R17        2.75478   0.00508   0.00000   0.01181   0.01181   2.76659
[...]
 855,-0.00128513,-0.00010991,0.00094016,0.00026051,0.00000227,-0.000008
 69,-0.00004291,0.00002361,-0.00004515,-0.00002643,-0.00001208,-0.00005
 540,0.00002773,0.00002026,-0.00002147,0.00013797,-0.00006001,0.0000767
 1,0.00008362,0.00010010,0.00050797,-0.00048939,0.00010318,-0.00014661,
 0.00017333,0.00024981,-0.00027050,-0.00001749,-0.00016243,0.00029281,-
 0.00008612,0.00011442,-0.00014610,0.00007404,-0.00026581,0.00004005,-0
 .00041330,0.00055705,-0.00098316,-0.00195601,-0.00062735,0.00071487,-0
 .00070643,0.03186574,-0.01812616,0.00796856,-0.01207396,0.02166794,-0.
 07239205,0.00108483,-0.00025640,-0.00592191,-0.00013991,0.00033898,-0.
 00009124,0.00005934,-0.00070973,0.00007706,-0.00003222,0.00005614,0.00
 000900,0.00000965,0.00005730,0.00003985,0.00001452,0.00014042,0.000081
 38,-0.00003051,-0.00002459,0.00025715,-0.00072396,-0.00030401,-0.00006
 439,-0.00013134,0.00051364,0.00060781,-0.00012013,0.00213908,-0.000882
 26,-0.00047026,-0.00075840,-0.00001415,-0.02750796,0.00768959,0.007214
 35,0.00747544,-0.01304273,0.06762594,-0.00004564,0.00018813,0.00012741
 ,0.00006920,-0.00005754,-0.00001587,-0.00034136,-0.00052195,-0.0000389
 0,0.00012833,0.00031600,-0.00003900,0.00005414,0.00001734,0.00004565,0
 .00013177,-0.00017060,-0.00006655,-0.00010861,0.00011335,0.00006327,-0
 .00010873,0.00011667,0.00002995,-0.00002609,-0.00010082,-0.00005369,-0
 .00000397,0.00001080,0.00001496,0.00002784,-0.00001727,0.00001056,0.00
 001945,0.00000044,0.00001480,0.00000624,0.00000064,-0.00001505,0.00002
 950,-0.00000407,0.00000844,0.00003002,-0.00010796,-0.00008074,0.000053
 39,-0.00015213,-0.00012811,-0.00016009,0.00074227,0.00019696,0.0003348
 5,-0.00059440,-0.00010959,-0.00813344,-0.00478933,-0.00119105,0.002808
 00,0.00380404,-0.00074184,0.00037416,0.00048866,-0.00031907,-0.0002522
 0,-0.00016571,0.00006709,0.00001822,0.00001680,-0.00007036,0.00002235,
 0.00018287,-0.00012959,-0.00004246,-0.00005727,0.00002108,-0.00003600,
 -0.00001434,0.00002674,-0.00001714,-0.00000140,-0.00000155,0.00014230,
 -0.00021487,-0.00015575,-0.00022016,0.00011528,0.00012844,0.00036239,0
 .00000678,0.00041983,0.00010785,0.00004841,-0.00006488,0.00000365,-0.0
 0003103,0.00005425,0.00002768,0.00000233,0.00007179,0.00000914,-0.0000
 0703,0.00000472,0.00000614,0.00001833,0.00001764,0.00000232,-0.0000052
 6,0.00001223,0.00308173,-0.00047684,0.00014936,-0.00096732,-0.00059917
 ,-0.00016441,-0.00000965,-0.00024037,-0.00040509,0.00022904,0.00043150
 ,0.00058241,0.00002815,0.00011099,0.00014416,-0.00055893,0.00021060,-0
 .00016481,0.00030877,-0.00018955,0.00010988,0.00044753,-0.00027465,0.0
 0013268,-0.00035371,0.00052859,0.00017075,0.00015302,0.00003629,0.0000
 6990,-0.00006724,-0.00001657,0.00000915,0.00009242,-0.00006335,0.00001
 002,-0.00001011,0.00004645,-0.00000453,-0.00004555,0.00000759,-0.00000
 514,0.00023002,-0.00019412,0.00031590,0.00000540,0.00019780,-0.0003835
 9,0.00028010,0.00034941,-0.00038361,-0.00017471,-0.00034227,0.00017066
 ,-0.00007179,0.00001541,0.00001808,0.00030661,-0.00024632,0.00008570,0
 .00213060,0.00169232,-0.00103314,-0.00295851,0.00410378,0.00228880,-0.
 00552143,0.01349969,-0.03039619,-0.00054641,-0.00237485,-0.00045919,-0
 .03307850,0.04425307,-0.00934684,-0.00005244,-0.00005141,0.00037250,-0
 .00051813,0.00045044,-0.00044580,0.00001854,-0.00000095,0.00004738,-0.
 00000505,-0.00002078,0.00004127,0.00000643,-0.00003413,-0.00001244,0.0
 0007631,-0.00001402,0.00002147,-0.00004795,-0.00001691,0.00000415,-0.0
 0056795,0.00037871,-0.00011756,-0.00009887,0.00009906,-0.00000524,-0.0
 0077696,0.00002409,0.00084044,0.00002795,0.00264326,0.00146675,-0.0004
 8132,-0.00074887,-0.00004888,0.04370262,-0.00009659,-0.00016281,0.0001
 3972,-0.00008229,0.00011842,-0.00014778,-0.00043739,-0.00058973,-0.000
 10980,0.00029002,0.00028202,0.00003932,0.00007771,0.00003831,0.0001043
 1,-0.00009104,-0.00006347,-0.00021725,-0.00000104,0.00003960,0.0000826
 1,0.00007725,0.00000842,0.00016440,0.00026961,0.00031937,-0.00007889,0
 .00001428,-0.00000697,0.00004147,-0.00002833,0.00002332,-0.00005822,-0
 .00002512,-0.00003126,-0.00002148,0.00000764,-0.00000470,-0.00001984,-
 0.00001306,-0.00002866,-0.00005961,-0.00001017,0.00000066,-0.00001912,
 -0.00001435,-0.00000157,-0.00004175,0.00040195,0.00025366,0.00047561,-
 0.00029719,0.00001863,-0.00112378,-0.00681130,-0.00326059,-0.00062157,
 0.00337943,0.00022704,0.00002591,-0.00075479,-0.00074893,0.00116534,0.
 00039831,-0.00011849,-0.00054381,-0.00015975,0.00026735,0.00020179,-0.
 00002249,0.00015356,0.00003447,0.00004895,0.00002620,-0.00004030,0.000
 01677,-0.00000986,-0.00000135,0.00000662,0.00007853,0.00005183,-0.0001
 1118,0.00009833,-0.00061004,0.00005025,0.00009905,0.00017690,0.0008387
 7,-0.00101289,-0.00067752,0.00014378,0.00012120,-0.00007583,-0.0000008
 5,-0.00005009,0.00001834,0.00005921,-0.00003111,-0.00006252,-0.0000056
 3,0.00005221,0.00000587,-0.00002679,0.00003704,0.00002891,-0.00001240,
 0.00002939,0.00000647,0.00285205,-0.00063091,0.00066330,-0.00069253,-0
 .00052428,-0.00000757,0.00043818,0.00049699,-0.00058075,-0.00004336,-0
 .00010844,0.00038414,0.00000085,0.00003865,0.00014265,0.00000647,0.000
 40101,-0.00010252,0.00001651,-0.00015002,0.00005080,-0.00010336,-0.000
 55013,0.00017496,-0.00005641,0.00061269,-0.00010609,0.00004342,0.00003
 934,0.00005607,-0.00005767,-0.00000991,0.00000552,0.00007960,-0.000066
 10,-0.00000504,0.00002228,0.00002108,-0.00000195,-0.00002272,0.0000233
 6,-0.00001661,-0.00019088,-0.00043036,0.00056629,0.00003462,0.00005062
 ,-0.00021364,0.00136210,0.00281886,-0.00097587,-0.00223568,-0.00194287
 ,-0.00102817,-0.00004798,-0.00000345,0.00002638,0.00035999,-0.00040523
 ,0.00021410,0.00122537,0.00192755,0.00035603,0.00310909,-0.00046825,-0
 .00172008,-0.00017242,-0.01347744,0.01946921,-0.00285990,-0.00056762,0
 .00053515,0.05614766,-0.15337102,0.17129466,-0.00001366,-0.00176543,0.
 00088133,0.00004845,0.00041271,-0.00020880,-0.00002052,0.00000091,0.00
 000513,0.00002427,-0.00003818,0.00005853,-0.00002343,-0.00002585,-0.00
 001146,0.00010271,0.00007618,-0.00000871,-0.00001006,0.00000505,0.0000
 0458,-0.00021015,0.00013909,-0.00005488,-0.00014334,0.00005889,-0.0000
 7843,-0.00048035,-0.00036497,0.00072959,0.00253479,0.00067100,-0.00154
 527,-0.00000076,-0.00003874,-0.00009059,-0.05190231,0.15720285,0.00017
 553,0.00022260,-0.00013650,0.00002792,-0.00011591,0.00015061,0.0001710
 7,0.00021167,0.00000984,-0.00006170,-0.00014044,-0.00020071,-0.0000817
 8,-0.00001822,-0.00007096,0.00007891,-0.00000366,0.00011321,-0.0000038
 9,0.00000892,-0.00005130,-0.00004577,0.00002692,-0.00009454,-0.0003712
 3,-0.00045810,0.00006820,-0.00001016,0.00000617,-0.00004472,0.00002158
 ,-0.00003672,0.00003641,0.00000972,0.00002511,0.00001205,-0.00000672,-
 0.00001055,0.00001136,0.00000250,0.00000286,0.00003449,0.00000604,-0.0
 0001899,-0.00000538,-0.00003024,0.00002030,0.00005257,-0.00008777,-0.0
 0034158,-0.00045456,-0.00034240,-0.00014282,0.00101962,0.00929699,0.00
 552798,0.00402114,-0.00618629,-0.00581519,-0.00363921,-0.00047533,-0.0
 0031803,0.00005294,0.00001146,0.00023357,-0.00001862,0.00000669,-0.000
 08442,-0.00001031,-0.00008194,-0.00022131,0.00005763,0.00000823,0.0000
 3723,-0.00000804,0.00002353,0.00001952,-0.00005272,0.00000158,-0.00003
 156,-0.00003423,-0.00025663,-0.00049318,0.00039098,0.00016837,-0.00009
 929,-0.00018885,0.00021736,0.00027215,0.00026033,0.00000153,0.00030896
 ,-0.00027904,0.00001451,0.00003938,-0.00003011,0.00004650,0.00000895,0
 .00000356,0.00000052,-0.00000951,0.00000044,0.00001616,-0.00002387,-0.
 00001036,0.00001117,-0.00000392,-0.00000488,-0.00577185,0.00062493,-0.
 00124608,0.00118462,0.00096333,0.00003764,-0.00112715,-0.00092429,0.00
 125107,0.00024006,0.00018869,-0.00069150,-0.00007231,-0.00010421,-0.00
 024872,0.00009610,-0.00049792,0.00021354,-0.00006730,0.00018423,-0.000
 14946,0.00001709,0.00065947,-0.00038946,0.00021041,-0.00092315,0.00032
 227,-0.00014663,-0.00003904,-0.00009259,0.00012058,0.00001018,-0.00002
 241,-0.00014409,0.00010609,0.00001462,-0.00004121,-0.00001849,0.000051
 68,0.00001745,-0.00002037,0.00004693,0.00062466,0.00057959,-0.00095618
 ,-0.00000987,-0.00012966,0.00029997,-0.00116538,-0.00107351,-0.0001872
 0,0.00055900,0.00097685,0.00014127,0.00007052,-0.00008984,-0.00014416,
 0.00009256,-0.00066651,0.00016410,-0.00003170,0.00153547,0.00034008,0.
 00382095,-0.00334893,0.00425175,-0.01028478,0.00571200,0.00677600,0.00
 242106,-0.00335227,-0.00358214,-0.02109940,0.16369150,-0.33329918,0.00
 044200,0.00107595,-0.00015544,-0.00054041,-0.00030150,0.00044196,0.000
 00679,0.00000335,-0.00000568,-0.00004579,0.00003448,-0.00008856,0.0000
 3763,0.00007157,0.00003391,0.00030202,0.00012013,0.00007857,0.00003865
 ,0.00002547,0.00000758,0.00018146,-0.00012933,0.00010261,0.00004543,-0
 .00001390,-0.00002969,0.00032886,-0.00105066,-0.00079984,0.00226089,-0
 .00217396,0.00132420,-0.00054934,-0.00001517,-0.00041021,0.03092787,-0
 .17403787,0.33695475,0.00026503,0.00057609,-0.00000469,0.00011049,-0.0
 0018347,0.00014365,-0.00024038,-0.00039646,0.00001707,0.00011988,0.000
 22133,-0.00020364,-0.00000625,0.00002326,-0.00000687,0.00024596,-0.000
 23709,-0.00002062,-0.00016077,0.00014631,0.00005866,-0.00017589,0.0001
 8557,-0.00001336,-0.00068132,-0.00084262,0.00002984,-0.00002259,0.0000
 2976,-0.00003426,0.00006979,-0.00005587,0.00003903,0.00001951,0.000023
 21,0.00002337,0.00001043,-0.00000336,-0.00001746,0.00003739,-0.0000003
 4,0.00001461,0.00005350,-0.00016837,-0.00013234,-0.00001000,-0.0001070
 5,-0.00006831,-0.00005510,0.00051062,-0.00024535,0.00022265,-0.0000833
 1,0.00025119,-0.00004876,-0.00021548,0.00034450,0.00007310,0.00009908,
 -0.00032200,0.00003043,0.00006678,-0.00009268,-0.00003133,-0.00012460,
 -0.00001566,-0.00003252,0.00003152,-0.00000155,0.00003964,0.00019877,-
 0.00013714,-0.00003442,-0.00003545,0.00000599,-0.00003682,-0.00003844,
 0.00001069,-0.00001258,-0.00000685,-0.00001635,-0.00003728,-0.00060994
 ,0.00052182,-0.00004051,0.00002172,-0.00002546,0.00020020,-0.00007541,
 0.00008150,-0.00000639,0.00002353,-0.00002620,0.00000271,-0.00001993,0
 .00003717,0.00004451,0.00001311,0.00003258,0.00000490,-0.00000266,0.00
 000899,0.00000668,0.00002744,0.00001676,0.00000463,-0.00000845,0.00001
 209,-0.00001528,0.00009415,-0.00023396,0.00001876,0.00003694,0.0001432
 3,-0.00070438,-0.00083330,0.00034954,0.00039753,0.00047466,0.00004697,
 -0.00005153,0.00001672,-0.00002718,-0.00018754,0.00007432,0.00000775,0
 .00011329,-0.00008139,-0.00002655,0.00015766,-0.00004108,-0.00012328,-
 0.00002219,0.00006992,0.00005212,0.00000426,-0.00001063,-0.00003673,0.
 00001866,-0.00002274,-0.00001719,-0.00000998,-0.00000221,0.00002291,-0
 .00002104,0.00002830,0.00003419,-0.00003551,0.00000789,0.00002432,0.00
 075530,0.00018724,-0.00042521,-0.00046767,0.00016540,-0.00020230,-0.00
 449423,-0.00510963,0.00008728,0.00232615,0.00196547,0.00211804,0.00003
 254,0.00009762,-0.00009419,-0.00010218,0.00009577,0.00002984,-0.001109
 73,-0.00060704,-0.00011884,-0.00000221,-0.00263483,0.00124261,-0.01451
 043,0.01082905,0.02680196,-0.00119502,0.00387740,-0.00257741,-0.062356
 76,0.07179417,0.09303937,0.00026321,0.00273735,-0.00039818,-0.00030327
 ,0.00029734,0.00033921,0.00007702,-0.00002808,-0.00000813,-0.00009170,
 0.00006454,-0.00009728,0.00007720,-0.00005767,0.00000437,0.00001495,-0
 .00006836,0.00000019,-0.00000517,0.00002355,-0.00000790,0.00028581,-0.
 00019297,0.00010054,0.00024074,-0.00022546,-0.00001171,0.00026992,0.00
 277824,-0.00168115,-0.00059058,-0.00042477,-0.00065657,0.00120394,0.00
 217272,0.00119030,0.00051429,-0.00619970,-0.00522552,0.07957667,0.0002
 5138,0.00029336,-0.00003796,0.00001182,-0.00004524,0.00006464,-0.00021
 072,-0.00024735,0.00001593,0.00015186,0.00010674,-0.00018108,-0.000033
 72,0.00000794,0.00001220,0.00003927,-0.00012264,-0.00009200,-0.0000237
 2,0.00008529,0.00002604,-0.00000238,0.00008060,0.00005263,-0.00045745,
 -0.00052199,0.00002243,-0.00000153,0.00000975,-0.00001951,0.00001105,-
 0.00004186,0.00001534,0.00000088,0.00001050,0.00000068,-0.00000374,-0.
 00002217,-0.00000953,-0.00000366,-0.00002876,-0.00000400,-0.00000108,-
 0.00005067,-0.00005662,-0.00007149,0.00004436,0.00002042,0.00018597,0.
 00007649,-0.00011116,-0.00009652,0.00011276,0.00017598,0.00147821,0.00
 108418,0.00102369,-0.00182127,-0.00218186,0.00082145,-0.00031373,-0.00
 035935,0.00014405,0.00008091,0.00007257,-0.00008489,-0.00003076,0.0000
 1594,0.00003042,-0.00014256,-0.00014653,0.00008713,0.00000921,0.000022
 87,-0.00000794,0.00004677,0.00002083,-0.00007659,0.00000376,0.00001750
 ,0.00000053,-0.00034463,-0.00037615,0.00025918,0.00006760,-0.00002135,
 -0.00004970,0.00017355,0.00016615,0.00009599,0.00005689,0.00015376,-0.
 00013465,0.00001415,0.00000452,-0.00000703,0.00010458,-0.00000211,-0.0
 0000830,0.00000340,0.00001359,-0.00000056,0.00000408,-0.00000785,0.000
 01003,0.00000551,0.00001967,0.00000030,-0.00085280,0.00001982,-0.00026
 681,0.00018821,0.00019702,0.00006556,-0.00033426,-0.00025676,0.0002327
 7,0.00014713,0.00000843,-0.00014115,-0.00004524,-0.00003203,-0.0000388
 9,0.00005332,0.00009583,0.00000966,-0.00000384,-0.00002989,-0.00001160
 ,-0.00000108,-0.00003546,-0.00003698,0.00007972,-0.00005155,0.00001174
 ,-0.00004485,-0.00000232,-0.00002401,0.00002776,-0.00001023,-0.0000126
 4,-0.00002565,0.00001110,0.00000946,0.00000527,0.00001191,0.00000327,-
 0.00000551,0.00000812,0.00001054,0.00052266,-0.00004298,-0.00020832,-0
 .00010595,0.00011060,-0.00029592,-0.00331739,-0.00069884,-0.00133470,0
 .00156903,-0.00206025,0.00130399,0.00006814,0.00010705,-0.00004135,-0.
 00012830,0.00029071,-0.00004784,0.00013361,-0.00079182,0.00042614,-0.0
 0248821,-0.00039566,-0.00062669,0.00392584,-0.00972211,-0.02352589,0.0
 0398996,0.00002124,0.00263142,0.08401446,-0.11351018,-0.12345036,0.001
 18191,0.00036405,0.00092818,-0.00001770,0.00020872,0.00012490,0.000031
 99,-0.00005131,-0.00000661,-0.00003810,0.00005720,-0.00003320,0.000034
 12,-0.00008236,-0.00001008,-0.00011263,-0.00011493,-0.00003970,-0.0000
 3084,-0.00002461,-0.00001506,0.00002468,-0.00000685,-0.00003119,-0.000
 11408,0.00003529,-0.00003859,0.00270373,0.00110207,0.00211546,-0.00027
 619,-0.00055684,-0.00040840,0.00087889,0.00131334,-0.00065800,-0.01044
 780,0.01377121,0.01376225,-0.08033186,0.11249981,0.00048157,0.00061917
 ,-0.00015106,0.00010865,-0.00017758,0.00020447,0.00000073,0.00004768,0
 .00017015,0.00001878,-0.00001090,-0.00021586,-0.00007993,-0.00000806,-
 0.00005612,0.00017476,-0.00016958,0.00005665,-0.00007029,0.00011709,-0
 .00001382,-0.00010648,0.00014628,-0.00006873,-0.00103955,-0.00108962,0
 .00012241,-0.00002250,0.00003049,-0.00005648,0.00006314,-0.00006738,0.
 00007609,0.00002470,0.00003759,0.00002150,-0.00000933,-0.00002601,0.00
 000002,0.00001512,-0.00001302,0.00004170,0.00001959,-0.00011371,-0.000
 08560,-0.00009431,0.00005771,0.00005058,-0.00009200,0.00001850,-0.0005
 8520,0.00020922,0.00012960,0.00028317,0.00083625,0.00051743,-0.0000991
 9,-0.00018539,-0.00042257,-0.00016847,0.00020360,0.00021466,-0.0002550
 0,-0.00011550,0.00005925,0.00014765,0.00002684,-0.00007071,-0.00006253
 ,-0.00001132,-0.00003241,-0.00006301,-0.00002985,-0.00001694,0.0000087
 9,-0.00002122,-0.00000056,-0.00001591,-0.00000606,-0.00004078,-0.00003
 628,0.00000218,-0.00033655,0.00099707,-0.00002585,0.00000768,-0.000070
 54,-0.00012856,-0.00003549,0.00010932,-0.00005153,-0.00005401,0.000016
 12,0.00001143,0.00001296,0.00000434,0.00001592,0.00002228,0.00007218,0
 .00000806,-0.00001318,0.00000178,0.00002314,-0.00001785,0.,0.00000980,
 -0.00000834,0.00000611,-0.00038405,-0.00000621,-0.00005128,0.00020607,
 0.00019605,0.00015737,-0.00035087,-0.00045590,0.00022134,0.00017576,0.
 00003897,-0.00023266,-0.00009004,-0.00004011,-0.00004614,0.00042367,0.
 00029202,0.00009720,-0.00022309,-0.00002671,-0.00009618,-0.00049509,-0
 .00035633,-0.00002959,0.00013336,0.00012060,-0.00008939,-0.00003250,-0
 .00001688,-0.00005966,0.00003608,-0.00002413,-0.00002250,-0.00003428,-
 0.00000544,0.00001667,0.00002529,-0.00000062,0.00002587,-0.00000400,0.
 00002402,0.00001815,0.00092084,0.00013571,-0.00048163,0.00000939,0.000
 43065,-0.00032694,-0.00623875,-0.00882434,0.00234877,0.00722352,0.0035
 4377,-0.00010435,0.00006210,0.00022775,0.00001957,0.00002444,0.0004490
 7,0.00012392,0.00073492,-0.00085108,-0.00019303,-0.00148099,0.00277968
 ,-0.00451798,0.00417457,-0.00498639,0.01292734,-0.00416773,0.00337793,
 0.00186006,0.10814415,-0.11915120,-0.34687535,0.00109189,0.00507417,-0
 .00117739,0.00024259,0.00028737,0.00013910,0.00014539,-0.00010174,-0.0
 0003412,-0.00013292,0.00014554,-0.00014134,0.00007081,-0.00015806,-0.0
 0003844,-0.00018020,-0.00013865,-0.00009080,-0.00000881,-0.00003561,-0
 .00003470,-0.00020866,0.00021271,-0.00007416,0.00001220,-0.00006680,-0
 .00002843,-0.00291340,0.00359373,0.00167104,-0.00023146,0.00045739,-0.
 00052880,-0.00019593,-0.00006827,0.00067242,0.00728299,-0.01305691,-0.
 01131632,-0.11393105,0.12767111,0.34590605\\0.00000545,0.00002421,-0.0
 0000494,-0.00001304,0.00000126,0.00001759,-0.00000430,-0.00001925,0.00
 001115,0.00000003,0.00000867,-0.00001564,0.00000263,0.00000021,0.00000
 868,0.00000835,-0.00001582,-0.00000051,-0.00001039,-0.00000143,0.00000
 524,0.00000059,0.00000835,-0.00000084,-0.00000451,-0.00001112,0.000000
 62,0.00000011,0.00000138,-0.00000103,0.00000115,-0.00000010,-0.0000080
 0,0.00000161,0.00000606,0.00000144,0.00000283,0.00000640,-0.00000055,0
 .00000081,0.00000826,-0.00000391,0.00000470,-0.00000142,-0.00001199,0.
 00000675,0.00000143,-0.00000081,-0.00000648,-0.00001606,0.00000844,0.0
 0001036,0.00000967,-0.00000368,0.00000094,0.00000599,-0.00000126,0.000
 00013,-0.00000527,0.00000686,-0.00000456,-0.00000235,0.00000334,0.0000
 0065,0.00000103,0.00000072,-0.00000096,-0.00000054,0.00000305,-0.00000
 026,0.00000106,0.00000129,-0.00000074,-0.00000046,0.00000197,0.0000012
 4,0.00000117,0.00000123,-0.00000016,-0.00000255,0.00000067,0.00000004,
 0.00000527,-0.00000751,-0.00000104,-0.00000120,0.00000040,0.00000130,-
 0.00000112,0.00000215,-0.00000078,0.00000317,0.00000084,0.00000418,-0.
 00000070,0.00000143,-0.00000015,0.00000015,0.00000079,-0.00000024,-0.0
 0000062,0.00000089,-0.00000007,-0.00000012,0.00000141,-0.00000042,0.00
 000014,0.00000083,-0.00000304,-0.00000701,0.00000979,0.00000172,0.0000
 0534,-0.00000842,-0.00000428,-0.00000446,-0.00000445,0.00000011,-0.000
 00536,-0.00000123,-0.00000146,-0.00000199,-0.00000155,-0.00000019,-0.0
 0000083,-0.00000040,0.00000079,0.00000020,-0.00000078,0.00000235,0.000
 00124,-0.00000021,-0.00000276,-0.00000171,0.00000105,-0.00000055,0.000
 00048,-0.00000040,-0.00000126,-0.00000037,-0.00000063,-0.00000053,-0.0
 0000086,-0.00000143,-0.00000115,0.00000106,-0.00000164,-0.00000156,-0.
 00000054,-0.00000264,-0.00000055,-0.00000811,0.00000044,-0.00000344,0.
 00000125,0.00000240,0.00001688,-0.00001073,0.00000359,-0.00001702,-0.0
 0000288,0.00001364,0.00000821,0.00000551,-0.00001198,-0.00000448,-0.00
 000613,-0.00000319,0.00000215,-0.00000484,0.00002205,-0.00000602,0.000
 00801,-0.00001691,-0.00000080,-0.00000817,0.00001423,-0.00000340,-0.00
 000011,-0.00000969,0.00000833,0.00000370,0.00000576,-0.00000711,0.0000
 0746,-0.00000583,0.00000008,0.00000614,0.00000243,0.00000222,-0.000000
 53,0.00000070,0.00000047,-0.00000245,-0.00000114,0.00000073,0.00000263
 ,-0.00000071,0.00000065,-0.00000013,-0.00000126,0.00000075,0.00000163,
 -0.00000048,0.00000165,0.00000186,0.00000100,0.00000211,0.00000024,0.0
 0000078,0.00000860,0.00000453,-0.00001479,-0.00000361,0.00000171,-0.00
 000632,0.00000332,-0.00000026,-0.00000064,-0.00000229,-0.00000012,0.00
 000141,-0.00000135,0.00000085,-0.00000292\\\@
 The archive entry for this job was punched.


 I do not feel obliged to believe that the same God who
 has endowed us with sense, reason, and intellect has
 intended us to forgo their use.
                   --Galileo Galilei
 Job cpu time:       0 days  9 hours  8 minutes 10.2 seconds.
 Elapsed time:       0 days  1 hours  8 minutes 34.6 seconds.
 File lengths (MBytes):  RWF=   3960 Int=      0 D2E=      0 Chk=     48 Scr=     16
 Normal termination of Gaussian 16 at Tue May 31 21:49:32 2022.
