 Entering Gaussian System, Link 0=/opt/software/Gaussian/g16-AVX2-C.01/g16/g16
 Input=opt_freq-conf-684.com
 Output=opt_freq-conf-684.log
 Initial command:
 /opt/software/Gaussian/g16-AVX2-C.01/g16/l1.exe "/mnt/gs18/scratch/users/kengmith/Gau-90472.inp" -scrdir="/mnt/gs18/scratch/users/kengmith/"
 Entering Link 1 = /opt/software/Gaussian/g16-AVX2-C.01/g16/l1.exe PID=     90482.
  
 Copyright (c) 1988-2019, Gaussian, Inc.  All Rights Reserved.
  
 This is part of the Gaussian(R) 16 program.  It is based on
 the Gaussian(R) 09 system (copyright 2009, Gaussian, Inc.),
 the Gaussian(R) 03 system (copyright 2003, Gaussian, Inc.),
 the Gaussian(R) 98 system (copyright 1998, Gaussian, Inc.),
 the Gaussian(R) 94 system (copyright 1995, Gaussian, Inc.),
 the Gaussian 92(TM) system (copyright 1992, Gaussian, Inc.),
 the Gaussian 90(TM) system (copyright 1990, Gaussian, Inc.),
 the Gaussian 88(TM) system (copyright 1988, Gaussian, Inc.),
 the Gaussian 86(TM) system (copyright 1986, Carnegie Mellon
 University), and the Gaussian 82(TM) system (copyright 1983,
 Carnegie Mellon University). Gaussian is a federally registered
 trademark of Gaussian, Inc.
  
 This software contains proprietary and confidential information,
 including trade secrets, belonging to Gaussian, Inc.
  
 This software is provided under written license and may be
 used, copied, transmitted, or stored only in accord with that
 written license.
  
 The following legend is applicable only to US Government
 contracts under FAR:
  
                    RESTRICTED RIGHTS LEGEND
  
 Use, reproduction and disclosure by the US Government is
 subject to restrictions as set forth in subparagraphs (a)
 and (c) of the Commercial Computer Software - Restricted
 Rights clause in FAR 52.227-19.
  
 Gaussian, Inc.
 340 Quinnipiac St., Bldg. 40, Wallingford CT 06492
  
  
 ---------------------------------------------------------------
 Warning -- This program may not be used in any manner that
 competes with the business of Gaussian, Inc. or will provide
 assistance to any competitor of Gaussian, Inc.  The licensee
 of this program is prohibited from giving any competitor of
 Gaussian, Inc. access to this program.  By using this program,
 the user acknowledges that Gaussian, Inc. is engaged in the
 business of creating and licensing software in the field of
 computational chemistry and represents and warrants to the
 licensee that it is not a competitor of Gaussian, Inc. and that
 it will not use this program in any manner prohibited above.
 ---------------------------------------------------------------
  

 Cite this work as:
 Gaussian 16, Revision C.01,
 M. J. Frisch, G. W. Trucks, H. B. Schlegel, G. E. Scuseria, 
 M. A. Robb, J. R. Cheeseman, G. Scalmani, V. Barone, 
 G. A. Petersson, H. Nakatsuji, X. Li, M. Caricato, A. V. Marenich, 
 J. Bloino, B. G. Janesko, R. Gomperts, B. Mennucci, H. P. Hratchian, 
 J. V. Ortiz, A. F. Izmaylov, J. L. Sonnenberg, D. Williams-Young, 
 F. Ding, F. Lipparini, F. Egidi, J. Goings, B. Peng, A. Petrone, 
 T. Henderson, D. Ranasinghe, V. G. Zakrzewski, J. Gao, N. Rega, 
 G. Zheng, W. Liang, M. Hada, M. Ehara, K. Toyota, R. Fukuda, 
 J. Hasegawa, M. Ishida, T. Nakajima, Y. Honda, O. Kitao, H. Nakai, 
 T. Vreven, K. Throssell, J. A. Montgomery, Jr., J. E. Peralta, 
 F. Ogliaro, M. J. Bearpark, J. J. Heyd, E. N. Brothers, K. N. Kudin, 
 V. N. Staroverov, T. A. Keith, R. Kobayashi, J. Normand, 
 K. Raghavachari, A. P. Rendell, J. C. Burant, S. S. Iyengar, 
 J. Tomasi, M. Cossi, J. M. Millam, M. Klene, C. Adamo, R. Cammi, 
 J. W. Ochterski, R. L. Martin, K. Morokuma, O. Farkas, 
 J. B. Foresman, and D. J. Fox, Gaussian, Inc., Wallingford CT, 2019.
 
 ******************************************
 Gaussian 16:  ES64L-G16RevC.01  3-Jul-2019
                31-May-2022 
 ******************************************
 %mem=12gb
 %nproc=8
 Will use up to    8 processors via shared memory.
 %chk=conf-684.chk
 ----------------------------------------------------------------------
 # B3LYP/6-31G* empiricaldispersion=gd3 opt=calcfc freq=noraman nosymm 
 integral(ultrafinegrid)
 ----------------------------------------------------------------------
 1/10=4,18=20,19=15,26=4,38=1/1,3;
 2/9=110,12=2,15=1,17=6,18=5,40=1/2;
 3/5=1,6=6,7=1,11=2,25=1,30=1,71=2,74=-5,75=-5,124=31,140=1/1,2,3;
 4//1;
 5/5=2,38=5/2;
 8/6=4,10=90,11=11/1;
 11/6=1,8=1,9=11,15=111,16=1,31=1/1,2,10;
 10/6=1,13=1,31=1/2;
 6/7=2,8=2,9=2,10=2,28=1/1;
 7/10=1,25=1,30=1/1,2,3,16;
 1/10=4,18=20,19=15,26=4/3(2);
 2/9=110,15=1/2;
 99//99;
 2/9=110,15=1/2;
 3/5=1,6=6,7=1,11=2,25=1,30=1,71=1,74=-5,75=-5,124=31/1,2,3;
 4/5=5,16=3,69=1/1;
 5/5=2,38=5/2;
 7/30=1/1,2,3,16;
 1/18=20,19=15,26=4/3(-5);
 2/9=110,15=1/2;
 6/7=2,8=2,9=2,10=2,19=2,28=1/1;
 99/9=1/99;
 ------------------------------------------------------------
 Candidate Structure: Conf:684 OPT and FREQ calc in gas phase
 ------------------------------------------------------------
 Symbolic Z-matrix:
 Charge =  1 Multiplicity = 1
 N                    -9.67104   0.85386  -7.00586 
 C                    -9.72147  -0.37367  -6.18742 
 C                    -8.32778  -0.63411  -5.59985 
 O                    -7.85331   0.19963  -4.82072 
 C                    -10.32854  -1.55806  -6.94866 
 C                    -11.79872  -1.31034  -7.21093 
 N                    -12.17692  -1.31961  -8.51059 
 O                    -12.5723  -1.14888  -6.2795 
 H                    -8.83138   1.41497  -6.82844 
 H                    -10.36365  -0.18557  -5.32264 
 H                    -9.78199  -1.80097  -7.8538 
 H                    -10.29543  -2.43646  -6.3011 
 H                    -13.13954  -1.08742  -8.69002 
 H                    -11.48471  -1.14207  -9.22489 
 H                    -9.68545   0.60718  -8.00633 
 H                    -10.49638   1.42708  -6.82357 
 N                    -7.67561  -1.7578   -5.98694 
 C                    -6.45301  -2.20549  -5.34165 
 C                    -5.36571  -2.40234  -6.40344 
 O                    -4.89066  -3.49734  -6.68102 
 C                    -6.68582  -3.45442  -4.47904 
 C                    -7.49891  -4.52886  -5.15229 
 C                    -8.8903   -4.51665  -5.0482 
 C                    -6.89365  -5.54804  -5.88846 
 C                    -9.66543  -5.44372  -5.73404 
 C                    -7.66586  -6.4888   -6.56044 
 C                    -9.05621  -6.43827  -6.49352 
 H                    -8.16262  -2.43461  -6.54588 
 H                    -6.14463  -1.39168  -4.6891 
 H                    -5.71041  -3.84005  -4.18049 
 H                    -7.20862  -3.12027  -3.57764 
 H                    -9.3655   -3.74884  -4.44404 
 H                    -5.81348  -5.59345  -5.9418 
 H                    -10.74561  -5.39     -5.66651 
 H                    -7.17325  -7.25884  -7.14339 
 H                    -9.65462  -7.16784  -7.02497 
 N                    -4.98152  -1.29971  -7.08627 
 C                    -5.28902   0.08452  -6.84352 
 C                    -6.25838   0.67788  -7.8683 
 O                    -6.65246   1.83746  -7.73761 
 C                    -4.02015   0.94664  -6.80959 
 C                    -3.28181   0.94708  -8.13691 
 N                    -2.74288   2.12838  -8.50499 
 O                    -3.16479  -0.07362  -8.80481 
 H                    -4.217    -1.45311  -7.71945 
 H                    -5.80082   0.17512  -5.88941 
 H                    -3.3376    0.53669  -6.06467 
 H                    -4.2733    1.9658   -6.51469 
 H                    -2.22797   2.17654  -9.36628 
 H                    -2.84909   2.94836  -7.93908 
 N                    -6.60735  -0.1223   -8.89577 
 C                    -7.61595   0.30338  -9.83108 
 C                    -8.7904   -0.72635  -9.82143 
 O                    -8.51619  -1.92752  -9.98095 
 C                    -7.05497   0.64192  -11.20736 
 C                    -6.43629  -0.44756  -12.08674 
 C                    -5.31169  -1.25096  -11.43588 
 N                    -5.90825  -2.40494  -10.76542 
 C                    -5.37033  -3.13985  -9.80329 
 N                    -4.06921  -3.03716  -9.50296 
 N                    -6.14721  -4.03963  -9.18461 
 O                    -9.91273  -0.21429  -9.63399 
 H                    -6.41219  -1.0967   -8.81628 
 H                    -8.00702   1.23438  -9.42711 
 H                    -7.86499   1.12106  -11.77119 
 H                    -6.30686   1.42339  -11.03149 
 H                    -7.20782  -1.14779  -12.42387 
 H                    -6.05635   0.05405  -12.98153 
 H                    -4.60217  -1.60737  -12.1833 
 H                    -4.75745  -0.63486  -10.72059 
 H                    -6.91624  -2.45028  -10.82603 
 H                    -3.7697   -3.48426  -8.6485 
 H                    -3.58618  -2.18245  -9.73624 
 H                    -5.83169  -4.36086  -8.28299 
 H                    -7.14782  -3.94145  -9.30904 
 

 GradGradGradGradGradGradGradGradGradGradGradGradGradGradGradGradGradGrad
 Berny optimization.
 Initialization pass.
                           ----------------------------
                           !    Initial Parameters    !
                           ! (Angstroms and Degrees)  !
 --------------------------                            --------------------------
 ! Name  Definition              Value          Derivative Info.                !
 --------------------------------------------------------------------------------
 ! R1    R(1,2)                  1.4762         calculate D2E/DX2 analytically  !
 ! R2    R(1,9)                  1.0254         calculate D2E/DX2 analytically  !
 ! R3    R(1,15)                 1.0305         calculate D2E/DX2 analytically  !
 ! R4    R(1,16)                 1.0213         calculate D2E/DX2 analytically  !
 ! R5    R(2,3)                  1.5347         calculate D2E/DX2 analytically  !
 ! R6    R(2,5)                  1.5332         calculate D2E/DX2 analytically  !
 ! R7    R(2,10)                 1.0934         calculate D2E/DX2 analytically  !
 ! R8    R(3,4)                  1.2358         calculate D2E/DX2 analytically  !
 ! R9    R(3,17)                 1.3557         calculate D2E/DX2 analytically  !
 ! R10   R(5,6)                  1.5138         calculate D2E/DX2 analytically  !
 ! R11   R(5,11)                 1.0849         calculate D2E/DX2 analytically  !
 ! R12   R(5,12)                 1.0918         calculate D2E/DX2 analytically  !
 ! R13   R(6,7)                  1.3536         calculate D2E/DX2 analytically  !
 ! R14   R(6,8)                  1.2215         calculate D2E/DX2 analytically  !
 ! R15   R(7,13)                 1.0064         calculate D2E/DX2 analytically  !
 ! R16   R(7,14)                 1.0104         calculate D2E/DX2 analytically  !
 ! R17   R(17,18)                1.4531         calculate D2E/DX2 analytically  !
 ! R18   R(17,28)                1.0038         calculate D2E/DX2 analytically  !
 ! R19   R(18,19)                1.5324         calculate D2E/DX2 analytically  !
 ! R20   R(18,21)                1.5356         calculate D2E/DX2 analytically  !
 ! R21   R(18,29)                1.0877         calculate D2E/DX2 analytically  !
 ! R22   R(19,20)                1.2255         calculate D2E/DX2 analytically  !
 ! R23   R(19,37)                1.3526         calculate D2E/DX2 analytically  !
 ! R24   R(21,22)                1.5063         calculate D2E/DX2 analytically  !
 ! R25   R(21,30)                1.0905         calculate D2E/DX2 analytically  !
 ! R26   R(21,31)                1.0943         calculate D2E/DX2 analytically  !
 ! R27   R(22,23)                1.3953         calculate D2E/DX2 analytically  !
 ! R28   R(22,24)                1.3954         calculate D2E/DX2 analytically  !
 ! R29   R(23,25)                1.3895         calculate D2E/DX2 analytically  !
 ! R30   R(23,32)                1.0864         calculate D2E/DX2 analytically  !
 ! R31   R(24,26)                1.3903         calculate D2E/DX2 analytically  !
 ! R32   R(24,33)                1.0824         calculate D2E/DX2 analytically  !
 ! R33   R(25,27)                1.3918         calculate D2E/DX2 analytically  !
 ! R34   R(25,34)                1.0836         calculate D2E/DX2 analytically  !
 ! R35   R(26,27)                1.3929         calculate D2E/DX2 analytically  !
 ! R36   R(26,35)                1.0842         calculate D2E/DX2 analytically  !
 ! R37   R(27,36)                1.083          calculate D2E/DX2 analytically  !
 ! R38   R(37,38)                1.4386         calculate D2E/DX2 analytically  !
 ! R39   R(37,45)                1.0045         calculate D2E/DX2 analytically  !
 ! R40   R(38,39)                1.5303         calculate D2E/DX2 analytically  !
 ! R41   R(38,41)                1.5344         calculate D2E/DX2 analytically  !
 ! R42   R(38,46)                1.0865         calculate D2E/DX2 analytically  !
 ! R43   R(39,40)                1.2317         calculate D2E/DX2 analytically  !
 ! R44   R(39,51)                1.3482         calculate D2E/DX2 analytically  !
 ! R45   R(41,42)                1.5189         calculate D2E/DX2 analytically  !
 ! R46   R(41,47)                1.0903         calculate D2E/DX2 analytically  !
 ! R47   R(41,48)                1.0908         calculate D2E/DX2 analytically  !
 ! R48   R(42,43)                1.3496         calculate D2E/DX2 analytically  !
 ! R49   R(42,44)                1.2254         calculate D2E/DX2 analytically  !
 ! R50   R(43,49)                1.0046         calculate D2E/DX2 analytically  !
 ! R51   R(43,50)                1.0019         calculate D2E/DX2 analytically  !
 ! R52   R(51,52)                1.4399         calculate D2E/DX2 analytically  !
 ! R53   R(51,63)                0.9969         calculate D2E/DX2 analytically  !
 ! R54   R(52,53)                1.562          calculate D2E/DX2 analytically  !
 ! R55   R(52,55)                1.5243         calculate D2E/DX2 analytically  !
 ! R56   R(52,64)                1.0876         calculate D2E/DX2 analytically  !
 ! R57   R(53,54)                1.2424         calculate D2E/DX2 analytically  !
 ! R58   R(53,62)                1.2478         calculate D2E/DX2 analytically  !
 ! R59   R(55,56)                1.5307         calculate D2E/DX2 analytically  !
 ! R60   R(55,65)                1.0971         calculate D2E/DX2 analytically  !
 ! R61   R(55,66)                1.096          calculate D2E/DX2 analytically  !
 ! R62   R(56,57)                1.5277         calculate D2E/DX2 analytically  !
 ! R63   R(56,67)                1.0951         calculate D2E/DX2 analytically  !
 ! R64   R(56,68)                1.0939         calculate D2E/DX2 analytically  !
 ! R65   R(57,58)                1.4619         calculate D2E/DX2 analytically  !
 ! R66   R(57,69)                1.0904         calculate D2E/DX2 analytically  !
 ! R67   R(57,70)                1.0947         calculate D2E/DX2 analytically  !
 ! R68   R(58,59)                1.3248         calculate D2E/DX2 analytically  !
 ! R69   R(58,71)                1.0108         calculate D2E/DX2 analytically  !
 ! R70   R(59,60)                1.3393         calculate D2E/DX2 analytically  !
 ! R71   R(59,61)                1.3401         calculate D2E/DX2 analytically  !
 ! R72   R(60,72)                1.0098         calculate D2E/DX2 analytically  !
 ! R73   R(60,73)                1.0091         calculate D2E/DX2 analytically  !
 ! R74   R(61,74)                1.0078         calculate D2E/DX2 analytically  !
 ! R75   R(61,75)                1.0131         calculate D2E/DX2 analytically  !
 ! A1    A(2,1,9)              112.7732         calculate D2E/DX2 analytically  !
 ! A2    A(2,1,15)             109.7995         calculate D2E/DX2 analytically  !
 ! A3    A(2,1,16)             109.8868         calculate D2E/DX2 analytically  !
 ! A4    A(9,1,15)             108.0847         calculate D2E/DX2 analytically  !
 ! A5    A(9,1,16)             108.8897         calculate D2E/DX2 analytically  !
 ! A6    A(15,1,16)            107.2381         calculate D2E/DX2 analytically  !
 ! A7    A(1,2,3)              108.805          calculate D2E/DX2 analytically  !
 ! A8    A(1,2,5)              112.3709         calculate D2E/DX2 analytically  !
 ! A9    A(1,2,10)             108.3906         calculate D2E/DX2 analytically  !
 ! A10   A(3,2,5)              114.7426         calculate D2E/DX2 analytically  !
 ! A11   A(3,2,10)             105.0542         calculate D2E/DX2 analytically  !
 ! A12   A(5,2,10)             107.0387         calculate D2E/DX2 analytically  !
 ! A13   A(2,3,4)              118.393          calculate D2E/DX2 analytically  !
 ! A14   A(2,3,17)             117.9173         calculate D2E/DX2 analytically  !
 ! A15   A(4,3,17)             123.6776         calculate D2E/DX2 analytically  !
 ! A16   A(2,5,6)              110.1295         calculate D2E/DX2 analytically  !
 ! A17   A(2,5,11)             112.8134         calculate D2E/DX2 analytically  !
 ! A18   A(2,5,12)             108.3616         calculate D2E/DX2 analytically  !
 ! A19   A(6,5,11)             112.4176         calculate D2E/DX2 analytically  !
 ! A20   A(6,5,12)             105.2995         calculate D2E/DX2 analytically  !
 ! A21   A(11,5,12)            107.4226         calculate D2E/DX2 analytically  !
 ! A22   A(5,6,7)              115.8858         calculate D2E/DX2 analytically  !
 ! A23   A(5,6,8)              120.3032         calculate D2E/DX2 analytically  !
 ! A24   A(7,6,8)              123.7867         calculate D2E/DX2 analytically  !
 ! A25   A(6,7,13)             115.9047         calculate D2E/DX2 analytically  !
 ! A26   A(6,7,14)             119.0883         calculate D2E/DX2 analytically  !
 ! A27   A(13,7,14)            119.2566         calculate D2E/DX2 analytically  !
 ! A28   A(3,17,18)            122.2298         calculate D2E/DX2 analytically  !
 ! A29   A(3,17,28)            118.9771         calculate D2E/DX2 analytically  !
 ! A30   A(18,17,28)           116.5979         calculate D2E/DX2 analytically  !
 ! A31   A(17,18,19)           109.1992         calculate D2E/DX2 analytically  !
 ! A32   A(17,18,21)           111.8674         calculate D2E/DX2 analytically  !
 ! A33   A(17,18,29)           105.928          calculate D2E/DX2 analytically  !
 ! A34   A(19,18,21)           113.0978         calculate D2E/DX2 analytically  !
 ! A35   A(19,18,29)           108.0967         calculate D2E/DX2 analytically  !
 ! A36   A(21,18,29)           108.3292         calculate D2E/DX2 analytically  !
 ! A37   A(18,19,20)           123.1464         calculate D2E/DX2 analytically  !
 ! A38   A(18,19,37)           116.5245         calculate D2E/DX2 analytically  !
 ! A39   A(20,19,37)           120.2603         calculate D2E/DX2 analytically  !
 ! A40   A(18,21,22)           114.2622         calculate D2E/DX2 analytically  !
 ! A41   A(18,21,30)           107.8053         calculate D2E/DX2 analytically  !
 ! A42   A(18,21,31)           106.6665         calculate D2E/DX2 analytically  !
 ! A43   A(22,21,30)           110.6674         calculate D2E/DX2 analytically  !
 ! A44   A(22,21,31)           109.1533         calculate D2E/DX2 analytically  !
 ! A45   A(30,21,31)           108.0459         calculate D2E/DX2 analytically  !
 ! A46   A(21,22,23)           119.9139         calculate D2E/DX2 analytically  !
 ! A47   A(21,22,24)           121.512          calculate D2E/DX2 analytically  !
 ! A48   A(23,22,24)           118.574          calculate D2E/DX2 analytically  !
 ! A49   A(22,23,25)           120.9051         calculate D2E/DX2 analytically  !
 ! A50   A(22,23,32)           118.9352         calculate D2E/DX2 analytically  !
 ! A51   A(25,23,32)           120.1333         calculate D2E/DX2 analytically  !
 ! A52   A(22,24,26)           120.552          calculate D2E/DX2 analytically  !
 ! A53   A(22,24,33)           119.3079         calculate D2E/DX2 analytically  !
 ! A54   A(26,24,33)           120.1362         calculate D2E/DX2 analytically  !
 ! A55   A(23,25,27)           120.128          calculate D2E/DX2 analytically  !
 ! A56   A(23,25,34)           119.4882         calculate D2E/DX2 analytically  !
 ! A57   A(27,25,34)           120.3822         calculate D2E/DX2 analytically  !
 ! A58   A(24,26,27)           120.441          calculate D2E/DX2 analytically  !
 ! A59   A(24,26,35)           119.2171         calculate D2E/DX2 analytically  !
 ! A60   A(27,26,35)           120.3405         calculate D2E/DX2 analytically  !
 ! A61   A(25,27,26)           119.2795         calculate D2E/DX2 analytically  !
 ! A62   A(25,27,36)           120.4851         calculate D2E/DX2 analytically  !
 ! A63   A(26,27,36)           120.2351         calculate D2E/DX2 analytically  !
 ! A64   A(19,37,38)           129.677          calculate D2E/DX2 analytically  !
 ! A65   A(19,37,45)           114.199          calculate D2E/DX2 analytically  !
 ! A66   A(38,37,45)           114.5829         calculate D2E/DX2 analytically  !
 ! A67   A(37,38,39)           113.2961         calculate D2E/DX2 analytically  !
 ! A68   A(37,38,41)           111.5672         calculate D2E/DX2 analytically  !
 ! A69   A(37,38,46)           109.2147         calculate D2E/DX2 analytically  !
 ! A70   A(39,38,41)           108.7091         calculate D2E/DX2 analytically  !
 ! A71   A(39,38,46)           104.9123         calculate D2E/DX2 analytically  !
 ! A72   A(41,38,46)           108.8602         calculate D2E/DX2 analytically  !
 ! A73   A(38,39,40)           119.7791         calculate D2E/DX2 analytically  !
 ! A74   A(38,39,51)           116.3695         calculate D2E/DX2 analytically  !
 ! A75   A(40,39,51)           123.8353         calculate D2E/DX2 analytically  !
 ! A76   A(38,41,42)           112.5088         calculate D2E/DX2 analytically  !
 ! A77   A(38,41,47)           108.7551         calculate D2E/DX2 analytically  !
 ! A78   A(38,41,48)           109.8182         calculate D2E/DX2 analytically  !
 ! A79   A(42,41,47)           107.0282         calculate D2E/DX2 analytically  !
 ! A80   A(42,41,48)           110.4152         calculate D2E/DX2 analytically  !
 ! A81   A(47,41,48)           108.1727         calculate D2E/DX2 analytically  !
 ! A82   A(41,42,43)           115.64           calculate D2E/DX2 analytically  !
 ! A83   A(41,42,44)           121.4997         calculate D2E/DX2 analytically  !
 ! A84   A(43,42,44)           122.8399         calculate D2E/DX2 analytically  !
 ! A85   A(42,43,49)           118.7152         calculate D2E/DX2 analytically  !
 ! A86   A(42,43,50)           121.3294         calculate D2E/DX2 analytically  !
 ! A87   A(49,43,50)           119.9553         calculate D2E/DX2 analytically  !
 ! A88   A(39,51,52)           120.0576         calculate D2E/DX2 analytically  !
 ! A89   A(39,51,63)           117.9466         calculate D2E/DX2 analytically  !
 ! A90   A(52,51,63)           118.5467         calculate D2E/DX2 analytically  !
 ! A91   A(51,52,53)           109.134          calculate D2E/DX2 analytically  !
 ! A92   A(51,52,55)           113.226          calculate D2E/DX2 analytically  !
 ! A93   A(51,52,64)           105.288          calculate D2E/DX2 analytically  !
 ! A94   A(53,52,55)           115.386          calculate D2E/DX2 analytically  !
 ! A95   A(53,52,64)           106.9578         calculate D2E/DX2 analytically  !
 ! A96   A(55,52,64)           106.1154         calculate D2E/DX2 analytically  !
 ! A97   A(52,53,54)           118.0761         calculate D2E/DX2 analytically  !
 ! A98   A(52,53,62)           113.9971         calculate D2E/DX2 analytically  !
 ! A99   A(54,53,62)           127.9218         calculate D2E/DX2 analytically  !
 ! A100  A(52,55,56)           120.6228         calculate D2E/DX2 analytically  !
 ! A101  A(52,55,65)           106.816          calculate D2E/DX2 analytically  !
 ! A102  A(52,55,66)           105.3482         calculate D2E/DX2 analytically  !
 ! A103  A(56,55,65)           108.3012         calculate D2E/DX2 analytically  !
 ! A104  A(56,55,66)           108.8916         calculate D2E/DX2 analytically  !
 ! A105  A(65,55,66)           105.964          calculate D2E/DX2 analytically  !
 ! A106  A(55,56,57)           115.2827         calculate D2E/DX2 analytically  !
 ! A107  A(55,56,67)           110.3176         calculate D2E/DX2 analytically  !
 ! A108  A(55,56,68)           106.4955         calculate D2E/DX2 analytically  !
 ! A109  A(57,56,67)           108.2717         calculate D2E/DX2 analytically  !
 ! A110  A(57,56,68)           109.5092         calculate D2E/DX2 analytically  !
 ! A111  A(67,56,68)           106.6239         calculate D2E/DX2 analytically  !
 ! A112  A(56,57,58)           108.0668         calculate D2E/DX2 analytically  !
 ! A113  A(56,57,69)           111.0304         calculate D2E/DX2 analytically  !
 ! A114  A(56,57,70)           110.8001         calculate D2E/DX2 analytically  !
 ! A115  A(58,57,69)           108.7765         calculate D2E/DX2 analytically  !
 ! A116  A(58,57,70)           110.5604         calculate D2E/DX2 analytically  !
 ! A117  A(69,57,70)           107.6001         calculate D2E/DX2 analytically  !
 ! A118  A(57,58,59)           127.2484         calculate D2E/DX2 analytically  !
 ! A119  A(57,58,71)           114.5093         calculate D2E/DX2 analytically  !
 ! A120  A(59,58,71)           115.0594         calculate D2E/DX2 analytically  !
 ! A121  A(58,59,60)           120.9834         calculate D2E/DX2 analytically  !
 ! A122  A(58,59,61)           118.1866         calculate D2E/DX2 analytically  !
 ! A123  A(60,59,61)           120.7405         calculate D2E/DX2 analytically  !
 ! A124  A(59,60,72)           116.3564         calculate D2E/DX2 analytically  !
 ! A125  A(59,60,73)           118.5638         calculate D2E/DX2 analytically  !
 ! A126  A(72,60,73)           115.3829         calculate D2E/DX2 analytically  !
 ! A127  A(59,61,74)           116.458          calculate D2E/DX2 analytically  !
 ! A128  A(59,61,75)           116.795          calculate D2E/DX2 analytically  !
 ! A129  A(74,61,75)           116.7433         calculate D2E/DX2 analytically  !
 ! D1    D(9,1,2,3)            -15.3253         calculate D2E/DX2 analytically  !
 ! D2    D(9,1,2,5)           -143.5158         calculate D2E/DX2 analytically  !
 ! D3    D(9,1,2,10)            98.4007         calculate D2E/DX2 analytically  !
 ! D4    D(15,1,2,3)           105.2692         calculate D2E/DX2 analytically  !
 ! D5    D(15,1,2,5)           -22.9214         calculate D2E/DX2 analytically  !
 ! D6    D(15,1,2,10)         -141.0049         calculate D2E/DX2 analytically  !
 ! D7    D(16,1,2,3)          -137.01           calculate D2E/DX2 analytically  !
 ! D8    D(16,1,2,5)            94.7995         calculate D2E/DX2 analytically  !
 ! D9    D(16,1,2,10)          -23.284          calculate D2E/DX2 analytically  !
 ! D10   D(1,2,3,4)             63.0164         calculate D2E/DX2 analytically  !
 ! D11   D(1,2,3,17)          -115.7643         calculate D2E/DX2 analytically  !
 ! D12   D(5,2,3,4)           -170.1399         calculate D2E/DX2 analytically  !
 ! D13   D(5,2,3,17)            11.0794         calculate D2E/DX2 analytically  !
 ! D14   D(10,2,3,4)           -52.8782         calculate D2E/DX2 analytically  !
 ! D15   D(10,2,3,17)          128.3411         calculate D2E/DX2 analytically  !
 ! D16   D(1,2,5,6)            -67.6664         calculate D2E/DX2 analytically  !
 ! D17   D(1,2,5,11)            58.8328         calculate D2E/DX2 analytically  !
 ! D18   D(1,2,5,12)           177.6402         calculate D2E/DX2 analytically  !
 ! D19   D(3,2,5,6)            167.3394         calculate D2E/DX2 analytically  !
 ! D20   D(3,2,5,11)           -66.1614         calculate D2E/DX2 analytically  !
 ! D21   D(3,2,5,12)            52.6461         calculate D2E/DX2 analytically  !
 ! D22   D(10,2,5,6)            51.213          calculate D2E/DX2 analytically  !
 ! D23   D(10,2,5,11)          177.7122         calculate D2E/DX2 analytically  !
 ! D24   D(10,2,5,12)          -63.4804         calculate D2E/DX2 analytically  !
 ! D25   D(2,3,17,18)         -170.2278         calculate D2E/DX2 analytically  !
 ! D26   D(2,3,17,28)           -7.6432         calculate D2E/DX2 analytically  !
 ! D27   D(4,3,17,18)           11.0611         calculate D2E/DX2 analytically  !
 ! D28   D(4,3,17,28)          173.6458         calculate D2E/DX2 analytically  !
 ! D29   D(2,5,6,7)            121.5815         calculate D2E/DX2 analytically  !
 ! D30   D(2,5,6,8)            -60.1405         calculate D2E/DX2 analytically  !
 ! D31   D(11,5,6,7)            -5.1396         calculate D2E/DX2 analytically  !
 ! D32   D(11,5,6,8)           173.1384         calculate D2E/DX2 analytically  !
 ! D33   D(12,5,6,7)          -121.7965         calculate D2E/DX2 analytically  !
 ! D34   D(12,5,6,8)            56.4815         calculate D2E/DX2 analytically  !
 ! D35   D(5,6,7,13)          -175.6136         calculate D2E/DX2 analytically  !
 ! D36   D(5,6,7,14)           -22.4976         calculate D2E/DX2 analytically  !
 ! D37   D(8,6,7,13)             6.1753         calculate D2E/DX2 analytically  !
 ! D38   D(8,6,7,14)           159.2913         calculate D2E/DX2 analytically  !
 ! D39   D(3,17,18,19)        -126.0622         calculate D2E/DX2 analytically  !
 ! D40   D(3,17,18,21)         107.9674         calculate D2E/DX2 analytically  !
 ! D41   D(3,17,18,29)          -9.8674         calculate D2E/DX2 analytically  !
 ! D42   D(28,17,18,19)         70.9645         calculate D2E/DX2 analytically  !
 ! D43   D(28,17,18,21)        -55.006          calculate D2E/DX2 analytically  !
 ! D44   D(28,17,18,29)       -172.8407         calculate D2E/DX2 analytically  !
 ! D45   D(17,18,19,20)       -113.9547         calculate D2E/DX2 analytically  !
 ! D46   D(17,18,19,37)         63.031          calculate D2E/DX2 analytically  !
 ! D47   D(21,18,19,20)         11.3049         calculate D2E/DX2 analytically  !
 ! D48   D(21,18,19,37)       -171.7094         calculate D2E/DX2 analytically  !
 ! D49   D(29,18,19,20)        131.2418         calculate D2E/DX2 analytically  !
 ! D50   D(29,18,19,37)        -51.7725         calculate D2E/DX2 analytically  !
 ! D51   D(17,18,21,22)         46.1684         calculate D2E/DX2 analytically  !
 ! D52   D(17,18,21,30)        169.6295         calculate D2E/DX2 analytically  !
 ! D53   D(17,18,21,31)        -74.5355         calculate D2E/DX2 analytically  !
 ! D54   D(19,18,21,22)        -77.6387         calculate D2E/DX2 analytically  !
 ! D55   D(19,18,21,30)         45.8224         calculate D2E/DX2 analytically  !
 ! D56   D(19,18,21,31)        161.6574         calculate D2E/DX2 analytically  !
 ! D57   D(29,18,21,22)        162.5576         calculate D2E/DX2 analytically  !
 ! D58   D(29,18,21,30)        -73.9813         calculate D2E/DX2 analytically  !
 ! D59   D(29,18,21,31)         41.8537         calculate D2E/DX2 analytically  !
 ! D60   D(18,19,37,38)         10.411          calculate D2E/DX2 analytically  !
 ! D61   D(18,19,37,45)        175.2901         calculate D2E/DX2 analytically  !
 ! D62   D(20,19,37,38)       -172.5108         calculate D2E/DX2 analytically  !
 ! D63   D(20,19,37,45)         -7.6318         calculate D2E/DX2 analytically  !
 ! D64   D(18,21,22,23)        -88.6256         calculate D2E/DX2 analytically  !
 ! D65   D(18,21,22,24)         91.2647         calculate D2E/DX2 analytically  !
 ! D66   D(30,21,22,23)        149.4703         calculate D2E/DX2 analytically  !
 ! D67   D(30,21,22,24)        -30.6395         calculate D2E/DX2 analytically  !
 ! D68   D(31,21,22,23)         30.6866         calculate D2E/DX2 analytically  !
 ! D69   D(31,21,22,24)       -149.4232         calculate D2E/DX2 analytically  !
 ! D70   D(21,22,23,25)        175.6289         calculate D2E/DX2 analytically  !
 ! D71   D(21,22,23,32)         -2.5063         calculate D2E/DX2 analytically  !
 ! D72   D(24,22,23,25)         -4.2646         calculate D2E/DX2 analytically  !
 ! D73   D(24,22,23,32)        177.6002         calculate D2E/DX2 analytically  !
 ! D74   D(21,22,24,26)       -176.5703         calculate D2E/DX2 analytically  !
 ! D75   D(21,22,24,33)          2.7107         calculate D2E/DX2 analytically  !
 ! D76   D(23,22,24,26)          3.3215         calculate D2E/DX2 analytically  !
 ! D77   D(23,22,24,33)       -177.3976         calculate D2E/DX2 analytically  !
 ! D78   D(22,23,25,27)          2.7521         calculate D2E/DX2 analytically  !
 ! D79   D(22,23,25,34)       -177.6975         calculate D2E/DX2 analytically  !
 ! D80   D(32,23,25,27)       -179.135          calculate D2E/DX2 analytically  !
 ! D81   D(32,23,25,34)          0.4154         calculate D2E/DX2 analytically  !
 ! D82   D(22,24,26,27)         -0.8806         calculate D2E/DX2 analytically  !
 ! D83   D(22,24,26,35)        178.6949         calculate D2E/DX2 analytically  !
 ! D84   D(33,24,26,27)        179.8444         calculate D2E/DX2 analytically  !
 ! D85   D(33,24,26,35)         -0.5801         calculate D2E/DX2 analytically  !
 ! D86   D(23,25,27,26)         -0.2244         calculate D2E/DX2 analytically  !
 ! D87   D(23,25,27,36)        179.5852         calculate D2E/DX2 analytically  !
 ! D88   D(34,25,27,26)       -179.7708         calculate D2E/DX2 analytically  !
 ! D89   D(34,25,27,36)          0.0388         calculate D2E/DX2 analytically  !
 ! D90   D(24,26,27,25)         -0.6995         calculate D2E/DX2 analytically  !
 ! D91   D(24,26,27,36)        179.4904         calculate D2E/DX2 analytically  !
 ! D92   D(35,26,27,25)        179.7298         calculate D2E/DX2 analytically  !
 ! D93   D(35,26,27,36)         -0.0803         calculate D2E/DX2 analytically  !
 ! D94   D(19,37,38,39)       -108.2779         calculate D2E/DX2 analytically  !
 ! D95   D(19,37,38,41)        128.648          calculate D2E/DX2 analytically  !
 ! D96   D(19,37,38,46)          8.2594         calculate D2E/DX2 analytically  !
 ! D97   D(45,37,38,39)         86.8901         calculate D2E/DX2 analytically  !
 ! D98   D(45,37,38,41)        -36.184          calculate D2E/DX2 analytically  !
 ! D99   D(45,37,38,46)       -156.5725         calculate D2E/DX2 analytically  !
 ! D100  D(37,38,39,40)        176.5783         calculate D2E/DX2 analytically  !
 ! D101  D(37,38,39,51)         -4.8252         calculate D2E/DX2 analytically  !
 ! D102  D(41,38,39,40)        -58.7851         calculate D2E/DX2 analytically  !
 ! D103  D(41,38,39,51)        119.8114         calculate D2E/DX2 analytically  !
 ! D104  D(46,38,39,40)         57.5344         calculate D2E/DX2 analytically  !
 ! D105  D(46,38,39,51)       -123.8691         calculate D2E/DX2 analytically  !
 ! D106  D(37,38,41,42)         62.8673         calculate D2E/DX2 analytically  !
 ! D107  D(37,38,41,47)        -55.523          calculate D2E/DX2 analytically  !
 ! D108  D(37,38,41,48)       -173.7181         calculate D2E/DX2 analytically  !
 ! D109  D(39,38,41,42)        -62.7833         calculate D2E/DX2 analytically  !
 ! D110  D(39,38,41,47)        178.8265         calculate D2E/DX2 analytically  !
 ! D111  D(39,38,41,48)         60.6314         calculate D2E/DX2 analytically  !
 ! D112  D(46,38,41,42)       -176.5364         calculate D2E/DX2 analytically  !
 ! D113  D(46,38,41,47)         65.0733         calculate D2E/DX2 analytically  !
 ! D114  D(46,38,41,48)        -53.1218         calculate D2E/DX2 analytically  !
 ! D115  D(38,39,51,52)        173.743          calculate D2E/DX2 analytically  !
 ! D116  D(38,39,51,63)         14.992          calculate D2E/DX2 analytically  !
 ! D117  D(40,39,51,52)         -7.7235         calculate D2E/DX2 analytically  !
 ! D118  D(40,39,51,63)       -166.4745         calculate D2E/DX2 analytically  !
 ! D119  D(38,41,42,43)        141.3382         calculate D2E/DX2 analytically  !
 ! D120  D(38,41,42,44)        -40.2596         calculate D2E/DX2 analytically  !
 ! D121  D(47,41,42,43)        -99.2614         calculate D2E/DX2 analytically  !
 ! D122  D(47,41,42,44)         79.1408         calculate D2E/DX2 analytically  !
 ! D123  D(48,41,42,43)         18.2571         calculate D2E/DX2 analytically  !
 ! D124  D(48,41,42,44)       -163.3407         calculate D2E/DX2 analytically  !
 ! D125  D(41,42,43,49)        178.7718         calculate D2E/DX2 analytically  !
 ! D126  D(41,42,43,50)         -1.3328         calculate D2E/DX2 analytically  !
 ! D127  D(44,42,43,49)          0.3933         calculate D2E/DX2 analytically  !
 ! D128  D(44,42,43,50)       -179.7113         calculate D2E/DX2 analytically  !
 ! D129  D(39,51,52,53)       -120.6612         calculate D2E/DX2 analytically  !
 ! D130  D(39,51,52,55)        109.3461         calculate D2E/DX2 analytically  !
 ! D131  D(39,51,52,64)         -6.1491         calculate D2E/DX2 analytically  !
 ! D132  D(63,51,52,53)         37.964          calculate D2E/DX2 analytically  !
 ! D133  D(63,51,52,55)        -92.0287         calculate D2E/DX2 analytically  !
 ! D134  D(63,51,52,64)        152.476          calculate D2E/DX2 analytically  !
 ! D135  D(51,52,53,54)        -52.1654         calculate D2E/DX2 analytically  !
 ! D136  D(51,52,53,62)        127.0883         calculate D2E/DX2 analytically  !
 ! D137  D(55,52,53,54)         76.6396         calculate D2E/DX2 analytically  !
 ! D138  D(55,52,53,62)       -104.1067         calculate D2E/DX2 analytically  !
 ! D139  D(64,52,53,54)       -165.5916         calculate D2E/DX2 analytically  !
 ! D140  D(64,52,53,62)         13.6621         calculate D2E/DX2 analytically  !
 ! D141  D(51,52,55,56)         66.0322         calculate D2E/DX2 analytically  !
 ! D142  D(51,52,55,65)       -169.9052         calculate D2E/DX2 analytically  !
 ! D143  D(51,52,55,66)        -57.5158         calculate D2E/DX2 analytically  !
 ! D144  D(53,52,55,56)        -60.7267         calculate D2E/DX2 analytically  !
 ! D145  D(53,52,55,65)         63.3359         calculate D2E/DX2 analytically  !
 ! D146  D(53,52,55,66)        175.7253         calculate D2E/DX2 analytically  !
 ! D147  D(64,52,55,56)       -178.9658         calculate D2E/DX2 analytically  !
 ! D148  D(64,52,55,65)        -54.9032         calculate D2E/DX2 analytically  !
 ! D149  D(64,52,55,66)         57.4862         calculate D2E/DX2 analytically  !
 ! D150  D(52,55,56,57)        -54.8384         calculate D2E/DX2 analytically  !
 ! D151  D(52,55,56,67)         68.1607         calculate D2E/DX2 analytically  !
 ! D152  D(52,55,56,68)       -176.5107         calculate D2E/DX2 analytically  !
 ! D153  D(65,55,56,57)       -178.1966         calculate D2E/DX2 analytically  !
 ! D154  D(65,55,56,67)        -55.1975         calculate D2E/DX2 analytically  !
 ! D155  D(65,55,56,68)         60.1311         calculate D2E/DX2 analytically  !
 ! D156  D(66,55,56,57)         67.009          calculate D2E/DX2 analytically  !
 ! D157  D(66,55,56,67)       -169.9919         calculate D2E/DX2 analytically  !
 ! D158  D(66,55,56,68)        -54.6633         calculate D2E/DX2 analytically  !
 ! D159  D(55,56,57,58)         90.065          calculate D2E/DX2 analytically  !
 ! D160  D(55,56,57,69)       -150.716          calculate D2E/DX2 analytically  !
 ! D161  D(55,56,57,70)        -31.2054         calculate D2E/DX2 analytically  !
 ! D162  D(67,56,57,58)        -34.0147         calculate D2E/DX2 analytically  !
 ! D163  D(67,56,57,69)         85.2044         calculate D2E/DX2 analytically  !
 ! D164  D(67,56,57,70)       -155.2851         calculate D2E/DX2 analytically  !
 ! D165  D(68,56,57,58)       -149.9023         calculate D2E/DX2 analytically  !
 ! D166  D(68,56,57,69)        -30.6833         calculate D2E/DX2 analytically  !
 ! D167  D(68,56,57,70)         88.8272         calculate D2E/DX2 analytically  !
 ! D168  D(56,57,58,59)       -160.2663         calculate D2E/DX2 analytically  !
 ! D169  D(56,57,58,71)         -1.6028         calculate D2E/DX2 analytically  !
 ! D170  D(69,57,58,59)         79.097          calculate D2E/DX2 analytically  !
 ! D171  D(69,57,58,71)       -122.2395         calculate D2E/DX2 analytically  !
 ! D172  D(70,57,58,59)        -38.8473         calculate D2E/DX2 analytically  !
 ! D173  D(70,57,58,71)        119.8162         calculate D2E/DX2 analytically  !
 ! D174  D(57,58,59,60)        -12.7091         calculate D2E/DX2 analytically  !
 ! D175  D(57,58,59,61)        170.7061         calculate D2E/DX2 analytically  !
 ! D176  D(71,58,59,60)       -171.2732         calculate D2E/DX2 analytically  !
 ! D177  D(71,58,59,61)         12.1421         calculate D2E/DX2 analytically  !
 ! D178  D(58,59,60,72)        168.2168         calculate D2E/DX2 analytically  !
 ! D179  D(58,59,60,73)         23.6869         calculate D2E/DX2 analytically  !
 ! D180  D(61,59,60,72)        -15.2857         calculate D2E/DX2 analytically  !
 ! D181  D(61,59,60,73)       -159.8156         calculate D2E/DX2 analytically  !
 ! D182  D(58,59,61,74)       -160.364          calculate D2E/DX2 analytically  !
 ! D183  D(58,59,61,75)        -15.8321         calculate D2E/DX2 analytically  !
 ! D184  D(60,59,61,74)         23.0426         calculate D2E/DX2 analytically  !
 ! D185  D(60,59,61,75)        167.5745         calculate D2E/DX2 analytically  !
 --------------------------------------------------------------------------------
 Trust Radius=3.00D-01 FncErr=1.00D-07 GrdErr=1.00D-06 EigMax=2.50D+02 EigMin=1.00D-04
 Number of steps in this run=    399 maximum allowed number of steps=    450.
 GradGradGradGradGradGradGradGradGradGradGradGradGradGradGradGradGradGrad

 Symmetry turned off by external request.
 Stoichiometry    C23H36N9O7(1+)
 Framework group  C1[X(C23H36N9O7)]
 Deg. of freedom   219
 Full point group                 C1      NOp   1
                          Input orientation:                          
 ---------------------------------------------------------------------
 Center     Atomic      Atomic             Coordinates (Angstroms)
 Number     Number       Type             X           Y           Z
 ---------------------------------------------------------------------
      1          7           0       -9.671044    0.853856   -7.005861
      2          6           0       -9.721468   -0.373668   -6.187419
      3          6           0       -8.327776   -0.634113   -5.599853
      4          8           0       -7.853306    0.199633   -4.820718
      5          6           0      -10.328536   -1.558056   -6.948661
      6          6           0      -11.798717   -1.310337   -7.210930
      7          7           0      -12.176917   -1.319613   -8.510590
      8          8           0      -12.572298   -1.148885   -6.279499
      9          1           0       -8.831382    1.414969   -6.828439
     10          1           0      -10.363647   -0.185568   -5.322638
     11          1           0       -9.781993   -1.800973   -7.853799
     12          1           0      -10.295429   -2.436463   -6.301102
     13          1           0      -13.139538   -1.087418   -8.690025
     14          1           0      -11.484706   -1.142066   -9.224890
     15          1           0       -9.685449    0.607184   -8.006326
     16          1           0      -10.496375    1.427075   -6.823571
     17          7           0       -7.675615   -1.757796   -5.986944
     18          6           0       -6.453008   -2.205485   -5.341649
     19          6           0       -5.365708   -2.402342   -6.403436
     20          8           0       -4.890659   -3.497340   -6.681025
     21          6           0       -6.685821   -3.454416   -4.479044
     22          6           0       -7.498913   -4.528859   -5.152294
     23          6           0       -8.890304   -4.516647   -5.048204
     24          6           0       -6.893650   -5.548044   -5.888455
     25          6           0       -9.665432   -5.443717   -5.734040
     26          6           0       -7.665856   -6.488805   -6.560443
     27          6           0       -9.056209   -6.438275   -6.493520
     28          1           0       -8.162621   -2.434608   -6.545875
     29          1           0       -6.144633   -1.391678   -4.689101
     30          1           0       -5.710405   -3.840055   -4.180487
     31          1           0       -7.208621   -3.120273   -3.577644
     32          1           0       -9.365500   -3.748840   -4.444036
     33          1           0       -5.813475   -5.593453   -5.941800
     34          1           0      -10.745613   -5.389995   -5.666509
     35          1           0       -7.173248   -7.258838   -7.143385
     36          1           0       -9.654618   -7.167837   -7.024971
     37          7           0       -4.981519   -1.299713   -7.086273
     38          6           0       -5.289024    0.084515   -6.843523
     39          6           0       -6.258376    0.677878   -7.868300
     40          8           0       -6.652457    1.837463   -7.737610
     41          6           0       -4.020152    0.946640   -6.809590
     42          6           0       -3.281815    0.947079   -8.136908
     43          7           0       -2.742878    2.128377   -8.504988
     44          8           0       -3.164793   -0.073615   -8.804805
     45          1           0       -4.216998   -1.453114   -7.719448
     46          1           0       -5.800823    0.175120   -5.889413
     47          1           0       -3.337597    0.536688   -6.064672
     48          1           0       -4.273303    1.965804   -6.514689
     49          1           0       -2.227967    2.176538   -9.366280
     50          1           0       -2.849090    2.948356   -7.939079
     51          7           0       -6.607346   -0.122299   -8.895772
     52          6           0       -7.615951    0.303383   -9.831078
     53          6           0       -8.790401   -0.726347   -9.821433
     54          8           0       -8.516191   -1.927519   -9.980949
     55          6           0       -7.054970    0.641925  -11.207358
     56          6           0       -6.436295   -0.447555  -12.086741
     57          6           0       -5.311693   -1.250961  -11.435883
     58          7           0       -5.908254   -2.404938  -10.765421
     59          6           0       -5.370331   -3.139851   -9.803288
     60          7           0       -4.069208   -3.037162   -9.502956
     61          7           0       -6.147211   -4.039627   -9.184611
     62          8           0       -9.912725   -0.214289   -9.633992
     63          1           0       -6.412186   -1.096704   -8.816277
     64          1           0       -8.007023    1.234384   -9.427114
     65          1           0       -7.864990    1.121063  -11.771190
     66          1           0       -6.306855    1.423391  -11.031495
     67          1           0       -7.207816   -1.147788  -12.423873
     68          1           0       -6.056350    0.054050  -12.981535
     69          1           0       -4.602166   -1.607368  -12.183296
     70          1           0       -4.757449   -0.634859  -10.720590
     71          1           0       -6.916236   -2.450277  -10.826032
     72          1           0       -3.769700   -3.484259   -8.648505
     73          1           0       -3.586183   -2.182447   -9.736242
     74          1           0       -5.831693   -4.360863   -8.282987
     75          1           0       -7.147823   -3.941445   -9.309043
 ---------------------------------------------------------------------
 Rotational constants (GHZ):           0.1209730           0.0898660           0.0773988
 Standard basis: 6-31G(d) (6D, 7F)
   657 basis functions,  1236 primitive gaussians,   657 cartesian basis functions
   146 alpha electrons      146 beta electrons
       nuclear repulsion energy      5260.8149018397 Hartrees.
 NAtoms=   75 NActive=   75 NUniq=   75 SFac= 1.00D+00 NAtFMM=   60 NAOKFM=T Big=T
 Integral buffers will be    131072 words long.
 Raffenetti 2 integral format.
 Two-electron integral symmetry is turned off.
 Nuclear repulsion after empirical dispersion term =     5260.6867202926 Hartrees.
 One-electron integrals computed using PRISM.
 NBasis=   657 RedAO= T EigKep=  4.55D-04  NBF=   657
 NBsUse=   657 1.00D-06 EigRej= -1.00D+00 NBFU=   657
 ExpMin= 1.61D-01 ExpMax= 5.48D+03 ExpMxC= 8.25D+02 IAcc=3 IRadAn=         5 AccDes= 0.00D+00
 Harris functional with IExCor=  402 and IRadAn=       5 diagonalized for initial guess.
 HarFok:  IExCor=  402 AccDes= 0.00D+00 IRadAn=         5 IDoV= 1 UseB2=F ITyADJ=14
 ICtDFT=  3500011 ScaDFX=  1.000000  1.000000  1.000000  1.000000
 FoFCou: FMM=F IPFlag=           0 FMFlag=      100000 FMFlg1=        2001
         NFxFlg=           0 DoJE=T BraDBF=F KetDBF=T FulRan=T
         wScrn=  0.000000 ICntrl=       500 IOpCl=  0 I1Cent=   200000004 NGrid=           0
         NMat0=    1 NMatS0=      1 NMatT0=    0 NMatD0=    1 NMtDS0=    0 NMtDT0=    0
 Symmetry not used in FoFCou.
 Requested convergence on RMS density matrix=1.00D-08 within 128 cycles.
 Requested convergence on MAX density matrix=1.00D-06.
 Requested convergence on             energy=1.00D-06.
 No special actions if energy rises.
 Integral accuracy reduced to 1.0D-05 until final iterations.
 Initial convergence to 1.0D-05 achieved.  Increase integral accuracy.
 SCF Done:  E(RB3LYP) =  -1917.50635705     A.U. after   15 cycles
            NFock= 15  Conv=0.64D-08     -V/T= 2.0087
 DoSCS=F DFT=T ScalE2(SS,OS)=  1.000000  1.000000
 Range of M.O.s used for correlation:     1   657
 NBasis=   657 NAE=   146 NBE=   146 NFC=     0 NFV=     0
 NROrb=    657 NOA=   146 NOB=   146 NVA=   511 NVB=   511
 Symmetrizing basis deriv contribution to polar:
 IMax=3 JMax=2 DiffMx= 0.00D+00
 G2DrvN: will do    76 centers at a time, making    1 passes.
 Calling FoFCou, ICntrl=  3107 FMM=T I1Cent=   0 AccDes= 0.00D+00.
 End of G2Drv F.D. properties file   721 does not exist.
 End of G2Drv F.D. properties file   722 does not exist.
 End of G2Drv F.D. properties file   788 does not exist.
          IDoAtm=11111111111111111111111111111111111111111111111111
          IDoAtm=1111111111111111111111111
          Differentiating once with respect to nuclear coordinates.
 CalDSu exits because no D1Ps are significant.
          There are   228 degrees of freedom in the 1st order CPHF.  IDoFFX=6 NUNeed=     0.
    222 vectors produced by pass  0 Test12= 7.46D-14 1.00D-09 XBig12= 1.87D-01 1.16D-01.
 AX will form    72 AO Fock derivatives at one time.
    222 vectors produced by pass  1 Test12= 7.46D-14 1.00D-09 XBig12= 4.30D-02 3.21D-02.
    222 vectors produced by pass  2 Test12= 7.46D-14 1.00D-09 XBig12= 2.90D-04 1.38D-03.
    222 vectors produced by pass  3 Test12= 7.46D-14 1.00D-09 XBig12= 1.08D-06 8.27D-05.
    222 vectors produced by pass  4 Test12= 7.46D-14 1.00D-09 XBig12= 1.50D-09 4.56D-06.
    173 vectors produced by pass  5 Test12= 7.46D-14 1.00D-09 XBig12= 1.29D-12 1.62D-07.
      9 vectors produced by pass  6 Test12= 7.46D-14 1.00D-09 XBig12= 1.17D-15 3.81D-09.
 InvSVY:  IOpt=1 It=  1 EMax= 7.22D-16
 Solved reduced A of dimension  1292 with   228 vectors.
 End of Minotr F.D. properties file   721 does not exist.
 End of Minotr F.D. properties file   722 does not exist.
 End of Minotr F.D. properties file   788 does not exist.

 **********************************************************************

            Population analysis using the SCF Density.

 **********************************************************************

 Alpha  occ. eigenvalues --  -19.25465 -19.25334 -19.24738 -19.23596 -19.21280
 Alpha  occ. eigenvalues --  -19.21159 -19.19775 -14.57827 -14.50268 -14.49461
 Alpha  occ. eigenvalues --  -14.48894 -14.48823 -14.48749 -14.48101 -14.47705
 Alpha  occ. eigenvalues --  -14.42659 -10.45499 -10.42918 -10.42415 -10.42023
 Alpha  occ. eigenvalues --  -10.40622 -10.38687 -10.38655 -10.37653 -10.36182
 Alpha  occ. eigenvalues --  -10.36013 -10.34003 -10.32342 -10.32317 -10.31042
 Alpha  occ. eigenvalues --  -10.29918 -10.29724 -10.29208 -10.29078 -10.28354
 Alpha  occ. eigenvalues --  -10.28092 -10.28021 -10.27882 -10.27846  -1.18201
 Alpha  occ. eigenvalues --   -1.17458  -1.16840  -1.15992  -1.15283  -1.14965
 Alpha  occ. eigenvalues --   -1.13543  -1.11943  -1.07444  -1.06633  -1.06273
 Alpha  occ. eigenvalues --   -1.04567  -1.03975  -1.03338  -1.03103  -0.98438
 Alpha  occ. eigenvalues --   -0.95475  -0.92718  -0.91462  -0.90614  -0.89367
 Alpha  occ. eigenvalues --   -0.85816  -0.84740  -0.83884  -0.81416  -0.81077
 Alpha  occ. eigenvalues --   -0.78638  -0.77787  -0.76123  -0.74205  -0.72778
 Alpha  occ. eigenvalues --   -0.72550  -0.71987  -0.71522  -0.71282  -0.70850
 Alpha  occ. eigenvalues --   -0.70031  -0.69927  -0.68517  -0.67906  -0.67623
 Alpha  occ. eigenvalues --   -0.67052  -0.66375  -0.65636  -0.63805  -0.63668
 Alpha  occ. eigenvalues --   -0.62595  -0.62308  -0.62221  -0.61264  -0.60450
 Alpha  occ. eigenvalues --   -0.59940  -0.59645  -0.59257  -0.58971  -0.58055
 Alpha  occ. eigenvalues --   -0.57437  -0.57054  -0.56743  -0.56290  -0.55501
 Alpha  occ. eigenvalues --   -0.55236  -0.55117  -0.54538  -0.54344  -0.54159
 Alpha  occ. eigenvalues --   -0.54036  -0.53284  -0.52941  -0.52794  -0.52345
 Alpha  occ. eigenvalues --   -0.51734  -0.51431  -0.51219  -0.50993  -0.50481
 Alpha  occ. eigenvalues --   -0.50124  -0.49673  -0.49383  -0.49204  -0.48868
 Alpha  occ. eigenvalues --   -0.47805  -0.47645  -0.46576  -0.45553  -0.45461
 Alpha  occ. eigenvalues --   -0.45321  -0.44670  -0.43535  -0.43122  -0.41902
 Alpha  occ. eigenvalues --   -0.40968  -0.40635  -0.39867  -0.39321  -0.39083
 Alpha  occ. eigenvalues --   -0.38649  -0.38624  -0.38223  -0.37560  -0.36405
 Alpha  occ. eigenvalues --   -0.35392  -0.35044  -0.34534  -0.33913  -0.33848
 Alpha  occ. eigenvalues --   -0.33677
 Alpha virt. eigenvalues --   -0.13486  -0.11964  -0.10808  -0.10702  -0.09921
 Alpha virt. eigenvalues --   -0.09638  -0.09350  -0.07444  -0.06416  -0.05999
 Alpha virt. eigenvalues --   -0.04633  -0.03479  -0.02145  -0.01727  -0.01282
 Alpha virt. eigenvalues --   -0.00424   0.00050   0.00296   0.00822   0.01269
 Alpha virt. eigenvalues --    0.01600   0.02327   0.02667   0.02951   0.03179
 Alpha virt. eigenvalues --    0.03465   0.03757   0.04083   0.04172   0.04557
 Alpha virt. eigenvalues --    0.04905   0.05340   0.05514   0.05769   0.06379
 Alpha virt. eigenvalues --    0.06708   0.07123   0.07165   0.07578   0.07846
 Alpha virt. eigenvalues --    0.07989   0.08368   0.08810   0.08839   0.09661
 Alpha virt. eigenvalues --    0.10494   0.10565   0.11297   0.11578   0.11806
 Alpha virt. eigenvalues --    0.12259   0.12487   0.13103   0.13341   0.14040
 Alpha virt. eigenvalues --    0.14252   0.14872   0.15249   0.15551   0.16202
 Alpha virt. eigenvalues --    0.16762   0.17010   0.18112   0.18313   0.20792
 Alpha virt. eigenvalues --    0.21433   0.22015   0.22421   0.23212   0.23973
 Alpha virt. eigenvalues --    0.24365   0.24819   0.25597   0.25825   0.26329
 Alpha virt. eigenvalues --    0.26799   0.27642   0.28337   0.28957   0.29966
 Alpha virt. eigenvalues --    0.32349   0.32694   0.34941   0.36324   0.37086
 Alpha virt. eigenvalues --    0.37423   0.38791   0.39131   0.39854   0.40374
 Alpha virt. eigenvalues --    0.40788   0.41200   0.41831   0.42321   0.42956
 Alpha virt. eigenvalues --    0.43291   0.43515   0.44628   0.44833   0.45409
 Alpha virt. eigenvalues --    0.45630   0.46156   0.46582   0.46763   0.47432
 Alpha virt. eigenvalues --    0.47874   0.48093   0.48660   0.48740   0.49240
 Alpha virt. eigenvalues --    0.49467   0.49635   0.50223   0.50640   0.51637
 Alpha virt. eigenvalues --    0.52023   0.52305   0.52794   0.53087   0.53186
 Alpha virt. eigenvalues --    0.53436   0.53825   0.53910   0.54319   0.54404
 Alpha virt. eigenvalues --    0.54864   0.55143   0.55587   0.55827   0.56618
 Alpha virt. eigenvalues --    0.57180   0.57446   0.57558   0.58118   0.59088
 Alpha virt. eigenvalues --    0.59759   0.60152   0.60873   0.61568   0.61981
 Alpha virt. eigenvalues --    0.62549   0.62830   0.63244   0.63809   0.64357
 Alpha virt. eigenvalues --    0.64805   0.65170   0.66069   0.66422   0.66991
 Alpha virt. eigenvalues --    0.67320   0.68749   0.68833   0.69385   0.70150
 Alpha virt. eigenvalues --    0.70300   0.70809   0.71100   0.72138   0.72620
 Alpha virt. eigenvalues --    0.73071   0.73722   0.74013   0.74312   0.74662
 Alpha virt. eigenvalues --    0.74866   0.75206   0.75785   0.76064   0.76410
 Alpha virt. eigenvalues --    0.76579   0.76951   0.77160   0.77521   0.77951
 Alpha virt. eigenvalues --    0.78631   0.78856   0.79227   0.79871   0.79935
 Alpha virt. eigenvalues --    0.80580   0.81059   0.81229   0.81965   0.82171
 Alpha virt. eigenvalues --    0.82537   0.82891   0.83221   0.83418   0.84269
 Alpha virt. eigenvalues --    0.84497   0.84590   0.84833   0.85179   0.85870
 Alpha virt. eigenvalues --    0.86724   0.87007   0.87546   0.87630   0.88183
 Alpha virt. eigenvalues --    0.88884   0.89687   0.90856   0.91093   0.91855
 Alpha virt. eigenvalues --    0.92375   0.92963   0.93448   0.94079   0.95442
 Alpha virt. eigenvalues --    0.95909   0.96612   0.96895   0.98368   0.99000
 Alpha virt. eigenvalues --    0.99633   0.99727   0.99954   1.00814   1.01258
 Alpha virt. eigenvalues --    1.02259   1.03390   1.03587   1.04287   1.04650
 Alpha virt. eigenvalues --    1.05132   1.05660   1.06257   1.07189   1.08035
 Alpha virt. eigenvalues --    1.09030   1.09604   1.09869   1.11083   1.11718
 Alpha virt. eigenvalues --    1.12967   1.13970   1.14346   1.15185   1.15580
 Alpha virt. eigenvalues --    1.16243   1.16937   1.18168   1.18656   1.18926
 Alpha virt. eigenvalues --    1.20105   1.21794   1.21831   1.22502   1.23089
 Alpha virt. eigenvalues --    1.24183   1.25081   1.25599   1.26729   1.27746
 Alpha virt. eigenvalues --    1.27977   1.28346   1.29630   1.30613   1.31483
 Alpha virt. eigenvalues --    1.32408   1.32866   1.33246   1.33982   1.34064
 Alpha virt. eigenvalues --    1.34834   1.35125   1.36218   1.37392   1.37816
 Alpha virt. eigenvalues --    1.38228   1.38564   1.39675   1.40379   1.40609
 Alpha virt. eigenvalues --    1.40905   1.42236   1.42804   1.43998   1.44610
 Alpha virt. eigenvalues --    1.46693   1.47606   1.48209   1.48768   1.49030
 Alpha virt. eigenvalues --    1.50518   1.51715   1.53255   1.53713   1.54300
 Alpha virt. eigenvalues --    1.55083   1.57154   1.57634   1.59006   1.59968
 Alpha virt. eigenvalues --    1.61261   1.61970   1.62471   1.62763   1.63304
 Alpha virt. eigenvalues --    1.64070   1.65375   1.65604   1.65991   1.66185
 Alpha virt. eigenvalues --    1.67117   1.67436   1.68116   1.69695   1.70030
 Alpha virt. eigenvalues --    1.70666   1.71493   1.71981   1.72124   1.72780
 Alpha virt. eigenvalues --    1.73389   1.73500   1.73891   1.74856   1.74953
 Alpha virt. eigenvalues --    1.75989   1.76806   1.77457   1.77628   1.78102
 Alpha virt. eigenvalues --    1.78250   1.78806   1.79330   1.79764   1.80033
 Alpha virt. eigenvalues --    1.80521   1.81433   1.81942   1.82745   1.83291
 Alpha virt. eigenvalues --    1.83498   1.84036   1.84215   1.85095   1.85740
 Alpha virt. eigenvalues --    1.86434   1.86660   1.86882   1.88737   1.89139
 Alpha virt. eigenvalues --    1.89608   1.90186   1.91218   1.92077   1.92649
 Alpha virt. eigenvalues --    1.93274   1.94069   1.94275   1.95588   1.95969
 Alpha virt. eigenvalues --    1.96674   1.96874   1.98332   1.98808   1.99385
 Alpha virt. eigenvalues --    1.99675   1.99963   2.01046   2.01844   2.02822
 Alpha virt. eigenvalues --    2.03317   2.03914   2.04274   2.04916   2.05854
 Alpha virt. eigenvalues --    2.06149   2.06957   2.07627   2.08372   2.09105
 Alpha virt. eigenvalues --    2.09947   2.10802   2.11823   2.12754   2.14262
 Alpha virt. eigenvalues --    2.14623   2.16055   2.16498   2.17196   2.18092
 Alpha virt. eigenvalues --    2.18963   2.19707   2.20022   2.21331   2.21645
 Alpha virt. eigenvalues --    2.22028   2.22607   2.23048   2.24143   2.24492
 Alpha virt. eigenvalues --    2.25748   2.26055   2.27626   2.27964   2.28579
 Alpha virt. eigenvalues --    2.29658   2.30516   2.32478   2.32879   2.33769
 Alpha virt. eigenvalues --    2.34708   2.35580   2.36121   2.37380   2.38407
 Alpha virt. eigenvalues --    2.39737   2.40842   2.42025   2.42671   2.43611
 Alpha virt. eigenvalues --    2.44559   2.45612   2.46011   2.46962   2.47375
 Alpha virt. eigenvalues --    2.48973   2.49891   2.50232   2.50679   2.51649
 Alpha virt. eigenvalues --    2.51929   2.53020   2.53410   2.54239   2.54550
 Alpha virt. eigenvalues --    2.55292   2.56390   2.57443   2.58458   2.60141
 Alpha virt. eigenvalues --    2.60881   2.61215   2.62688   2.63741   2.64280
 Alpha virt. eigenvalues --    2.65190   2.66184   2.66363   2.66449   2.68618
 Alpha virt. eigenvalues --    2.68929   2.71665   2.74114   2.75335   2.75855
 Alpha virt. eigenvalues --    2.77650   2.80265   2.83860   2.85812   2.87191
 Alpha virt. eigenvalues --    2.88537   2.89243   2.90590   2.90988   2.92522
 Alpha virt. eigenvalues --    2.93315   2.93926   2.94929   2.97233   2.97392
 Alpha virt. eigenvalues --    2.99113   3.00719   3.03454   3.03940   3.07436
 Alpha virt. eigenvalues --    3.10909   3.33270   3.69249   3.74372   3.74820
 Alpha virt. eigenvalues --    3.81498   3.83183   3.88286   3.92516   3.95389
 Alpha virt. eigenvalues --    3.97216   3.97762   4.00467   4.01347   4.02385
 Alpha virt. eigenvalues --    4.04081   4.06731   4.08504   4.10654   4.11714
 Alpha virt. eigenvalues --    4.14596   4.15034   4.16792   4.20966   4.22979
 Alpha virt. eigenvalues --    4.24164   4.26440   4.27787   4.34573   4.37622
 Alpha virt. eigenvalues --    4.37869   4.40103   4.41096   4.43368   4.46329
 Alpha virt. eigenvalues --    4.50835   4.57827   4.60352   4.64294   4.66612
 Alpha virt. eigenvalues --    4.72119
          Condensed to atoms (all electrons):
 Mulliken charges:
               1
     1  N   -0.787885
     2  C   -0.088307
     3  C    0.587293
     4  O   -0.507240
     5  C   -0.445700
     6  C    0.553391
     7  N   -0.742205
     8  O   -0.503600
     9  H    0.430159
    10  H    0.251594
    11  H    0.210317
    12  H    0.206285
    13  H    0.346402
    14  H    0.384694
    15  H    0.443905
    16  H    0.422688
    17  N   -0.602049
    18  C   -0.088396
    19  C    0.608957
    20  O   -0.540718
    21  C   -0.352019
    22  C    0.130912
    23  C   -0.205664
    24  C   -0.190456
    25  C   -0.131419
    26  C   -0.141118
    27  C   -0.126214
    28  H    0.367223
    29  H    0.217411
    30  H    0.186229
    31  H    0.177038
    32  H    0.136860
    33  H    0.159585
    34  H    0.158610
    35  H    0.151345
    36  H    0.157501
    37  N   -0.634061
    38  C   -0.077585
    39  C    0.596049
    40  O   -0.551933
    41  C   -0.376881
    42  C    0.619828
    43  N   -0.726727
    44  O   -0.548479
    45  H    0.368992
    46  H    0.222250
    47  H    0.205639
    48  H    0.197236
    49  H    0.364813
    50  H    0.367610
    51  N   -0.605902
    52  C   -0.070211
    53  C    0.621658
    54  O   -0.602854
    55  C   -0.274116
    56  C   -0.318984
    57  C   -0.159728
    58  N   -0.595798
    59  C    0.706575
    60  N   -0.754441
    61  N   -0.759857
    62  O   -0.588785
    63  H    0.362154
    64  H    0.165750
    65  H    0.175029
    66  H    0.157424
    67  H    0.175869
    68  H    0.177724
    69  H    0.188939
    70  H    0.188861
    71  H    0.395872
    72  H    0.376185
    73  H    0.398342
    74  H    0.395903
    75  H    0.382228
 Sum of Mulliken charges =   1.00000
 Mulliken charges with hydrogens summed into heavy atoms:
               1
     1  N    0.508868
     2  C    0.163287
     3  C    0.587293
     4  O   -0.507240
     5  C   -0.029098
     6  C    0.553391
     7  N   -0.011109
     8  O   -0.503600
    17  N   -0.234825
    18  C    0.129016
    19  C    0.608957
    20  O   -0.540718
    21  C    0.011248
    22  C    0.130912
    23  C   -0.068803
    24  C   -0.030871
    25  C    0.027191
    26  C    0.010227
    27  C    0.031287
    37  N   -0.265069
    38  C    0.144666
    39  C    0.596049
    40  O   -0.551933
    41  C    0.025994
    42  C    0.619828
    43  N    0.005696
    44  O   -0.548479
    51  N   -0.243747
    52  C    0.095539
    53  C    0.621658
    54  O   -0.602854
    55  C    0.058337
    56  C    0.034608
    57  C    0.218072
    58  N   -0.199926
    59  C    0.706575
    60  N    0.020086
    61  N    0.018273
    62  O   -0.588785
 APT charges:
               1
     1  N   -1.481956
     2  C   -0.087082
     3  C    2.202364
     4  O   -2.040405
     5  C   -1.066527
     6  C   -1.912640
     7  N   -1.089525
     8  O    0.627121
     9  H   -0.728448
    10  H    0.433405
    11  H    0.552241
    12  H    0.111592
    13  H    2.716920
    14  H    0.204029
    15  H    0.893682
    16  H    1.763600
    17  N   -2.424644
    18  C    0.904231
    19  C   -0.250284
    20  O   -0.069644
    21  C   -0.015261
    22  C   -2.200604
    23  C   -0.570669
    24  C   -0.576684
    25  C   -0.327888
    26  C   -0.516025
    27  C   -0.008846
    28  H    1.699221
    29  H   -0.592786
    30  H   -0.409635
    31  H    0.156687
    32  H    0.068833
    33  H   -0.539594
    34  H    1.706730
    35  H    1.036343
    36  H    2.235874
    37  N   -0.507316
    38  C   -0.174271
    39  C   -1.150551
    40  O    0.174592
    41  C    0.400877
    42  C   -1.168412
    43  N   -0.962718
    44  O    0.419466
    45  H    0.516866
    46  H   -0.106633
    47  H   -0.645975
    48  H    0.326911
    49  H    1.577936
    50  H    0.039108
    51  N    0.954182
    52  C   -0.867939
    53  C   -0.685464
    54  O   -0.219164
    55  C   -1.345448
    56  C   -2.914224
    57  C    0.280138
    58  N   -0.347193
    59  C    0.198784
    60  N   -0.147109
    61  N   -0.311018
    62  O    0.864267
    63  H    0.190067
    64  H    0.465539
    65  H    1.797497
    66  H   -0.383319
    67  H    1.453342
    68  H    1.387493
    69  H    1.023033
    70  H   -0.806565
    71  H    1.319164
    72  H   -0.814998
    73  H    0.030411
    74  H   -0.889755
    75  H    1.624672
 Sum of APT charges =   1.00000
 APT charges with hydrogens summed into heavy atoms:
               1
     1  N    0.446878
     2  C    0.346324
     3  C    2.202364
     4  O   -2.040405
     5  C   -0.402694
     6  C   -1.912640
     7  N    1.831424
     8  O    0.627121
    17  N   -0.725423
    18  C    0.311444
    19  C   -0.250284
    20  O   -0.069644
    21  C   -0.268209
    22  C   -2.200604
    23  C   -0.501836
    24  C   -1.116278
    25  C    1.378843
    26  C    0.520317
    27  C    2.227028
    37  N    0.009549
    38  C   -0.280905
    39  C   -1.150551
    40  O    0.174592
    41  C    0.081813
    42  C   -1.168412
    43  N    0.654325
    44  O    0.419466
    51  N    1.144249
    52  C   -0.402400
    53  C   -0.685464
    54  O   -0.219164
    55  C    0.068731
    56  C   -0.073389
    57  C    0.496606
    58  N    0.971971
    59  C    0.198784
    60  N   -0.931695
    61  N    0.423899
    62  O    0.864267
 Electronic spatial extent (au):  <R**2>=         135595.6183
 Charge=              1.0000 electrons
 Dipole moment (field-independent basis, Debye):
    X=            -28.0280    Y=             -2.9854    Z=            -39.3943  Tot=             48.4396
 Quadrupole moment (field-independent basis, Debye-Ang):
   XX=            -31.1713   YY=           -184.1756   ZZ=            116.8813
   XY=             25.0825   XZ=            227.1313   YZ=             21.1070
 Traceless Quadrupole moment (field-independent basis, Debye-Ang):
   XX=              1.6506   YY=           -151.3537   ZZ=            149.7032
   XY=             25.0825   XZ=            227.1313   YZ=             21.1070
 Octapole moment (field-independent basis, Debye-Ang**2):
  XXX=           3401.0381  YYY=            942.7809  ZZZ=           2051.6331  XYY=           1348.9847
  XXY=            234.9759  XXZ=            143.0442  XZZ=           -295.7448  YZZ=            201.9946
  YYZ=           1416.3026  XYZ=           -186.7325
 Hexadecapole moment (field-independent basis, Debye-Ang**3):
 XXXX=         -67022.2255 YYYY=          -9305.7641 ZZZZ=         -55059.2652 XXXY=          -8323.4285
 XXXZ=         -23953.7414 YYYX=          -7130.5536 YYYZ=          -6235.2988 ZZZX=         -19686.1174
 ZZZY=          -6173.6046 XXYY=         -12524.5098 XXZZ=         -14153.1848 YYZZ=         -13632.5285
 XXYZ=          -1482.6769 YYXZ=         -10213.1868 ZZXY=          -1373.0275
 N-N= 5.260686720293D+03 E-N=-1.495949531759D+04  KE= 1.900944711140D+03
  Exact polarizability:       0.000       0.000       0.000       0.000       0.000       0.000
 Approx polarizability:     466.174      -7.560     496.961      -5.589      55.525     414.496
 Calling FoFJK, ICntrl=    100127 FMM=F ISym2X=0 I1Cent= 0 IOpClX= 0 NMat=1 NMatS=1 NMatT=0.
 -------------------------------------------------------------------
 Center     Atomic                   Forces (Hartrees/Bohr)
 Number     Number              X              Y              Z
 -------------------------------------------------------------------
      1        7          -0.003475667    0.013067426    0.001104237
      2        6           0.000917143   -0.032650606    0.015290174
      3        6           0.007138045    0.011541675    0.010718027
      4        8          -0.002898624   -0.005411514   -0.010393754
      5        6           0.003416923    0.001356259    0.001340129
      6        6          -0.013533685   -0.001689758   -0.012316041
      7        7          -0.000540530   -0.002113426    0.008093301
      8        8          -0.001484575    0.003988455    0.011885784
      9        1           0.005333079    0.004191839    0.002849451
     10        1           0.000095481    0.002547967   -0.000537495
     11        1           0.002540382   -0.000389656   -0.003586086
     12        1           0.000338611    0.000278022    0.003331916
     13        1          -0.005218767    0.000561792   -0.001580203
     14        1           0.006507109    0.000369352   -0.007512542
     15        1          -0.003545477   -0.003479668   -0.021452235
     16        1          -0.001461182    0.003711106   -0.001397258
     17        7          -0.001698427    0.008117529    0.001084064
     18        6           0.002470690   -0.003118605    0.001785807
     19        6          -0.007636279    0.011422591    0.002116292
     20        8           0.008539264   -0.013742993    0.000236610
     21        6          -0.000474658   -0.001940685    0.003689450
     22        6           0.002929938   -0.001615619    0.003377292
     23        6          -0.001477557    0.006756446   -0.001471479
     24        6           0.003338612   -0.000780196   -0.002608589
     25        6          -0.005902633   -0.002136413    0.000166992
     26        6           0.001347022   -0.003036469   -0.002575901
     27        6          -0.000612285   -0.000111757   -0.002097959
     28        1          -0.003054632   -0.005540194   -0.003928106
     29        1           0.000919711    0.001998206    0.003191782
     30        1           0.001858088   -0.000439432    0.001870044
     31        1           0.000991291    0.000231500    0.001364821
     32        1          -0.001696355   -0.000174129    0.001406594
     33        1           0.000964378   -0.000231590   -0.000036277
     34        1          -0.002181054   -0.001068748    0.000641681
     35        1           0.000044140   -0.002470633   -0.000237472
     36        1          -0.001499213   -0.001223610   -0.000851521
     37        7           0.002793606   -0.004940385    0.003461204
     38        6          -0.004559428    0.007241062    0.001178337
     39        6           0.001376835   -0.002818438   -0.001292908
     40        8          -0.003816534    0.004034398    0.005401603
     41        6           0.002918676    0.002733932    0.001937254
     42        6           0.001361985    0.014495973    0.007309355
     43        7          -0.004681055   -0.009562422    0.001698443
     44        8           0.000676181   -0.017282454   -0.013782564
     45        1           0.006882559    0.002343999   -0.006881838
     46        1           0.000597585    0.004398037    0.003395088
     47        1           0.002293147   -0.000772886    0.004079886
     48        1          -0.003513709   -0.000435019    0.001980744
     49        1           0.004575807    0.001906315   -0.004635782
     50        1           0.000289360    0.007264498    0.001177222
     51        7           0.001281390    0.009208910    0.009533473
     52        6          -0.013762258   -0.004220839   -0.003810088
     53        6           0.024500623    0.015436452   -0.011258716
     54        8           0.003164983   -0.023139494    0.001197827
     55        6          -0.000612503    0.007819309   -0.004725440
     56        6          -0.003140515    0.002685059   -0.000348286
     57        6           0.005862198   -0.002280196   -0.002882874
     58        7           0.006637174    0.002222320   -0.001093268
     59        6          -0.001520089    0.003528356   -0.009711135
     60        7           0.003702692   -0.002559509    0.001967979
     61        7          -0.002683552   -0.002097070    0.000967212
     62        8          -0.020138404    0.011114869    0.010552917
     63        1           0.002590240   -0.010457531    0.000139901
     64        1          -0.000437497    0.002732307   -0.001700010
     65        1           0.000118446   -0.000437648   -0.000664080
     66        1           0.002014520    0.001019710   -0.001264269
     67        1          -0.001019080    0.000555421   -0.002807941
     68        1           0.001272569   -0.001808497   -0.000963216
     69        1           0.002001424   -0.001340079   -0.003277336
     70        1           0.000633160    0.000930156    0.001118221
     71        1          -0.012481790    0.001498049    0.003017426
     72        1           0.002084253   -0.001977586    0.004001782
     73        1           0.004057177    0.002543580   -0.003007141
     74        1          -0.001192841   -0.004693071    0.006928272
     75        1          -0.001425642   -0.001664056    0.000101214
 -------------------------------------------------------------------
 Cartesian Forces:  Max     0.032650606 RMS     0.006243030
 FormGI is forming the generalized inverse of G from B-inverse, IUseBI=4.

 GradGradGradGradGradGradGradGradGradGradGradGradGradGradGradGradGradGrad
 Berny optimization.
 Internal  Forces:  Max     0.030089976 RMS     0.006863309
 Search for a local minimum.
 Step number   1 out of a maximum of  399
 All quantities printed in internal units (Hartrees-Bohrs-Radians)
 Mixed Optimization -- RFO/linear search
 Second derivative matrix not updated -- analytic derivatives used.
 ITU=  0
     Eigenvalues ---   -0.00526  -0.00036   0.00014   0.00043   0.00132
     Eigenvalues ---    0.00191   0.00234   0.00260   0.00327   0.00387
     Eigenvalues ---    0.00549   0.00611   0.00651   0.00781   0.00792
     Eigenvalues ---    0.00856   0.00925   0.01062   0.01190   0.01278
     Eigenvalues ---    0.01422   0.01542   0.01600   0.01748   0.01809
     Eigenvalues ---    0.01826   0.01843   0.01913   0.01979   0.02084
     Eigenvalues ---    0.02266   0.02299   0.02499   0.02554   0.02647
     Eigenvalues ---    0.02765   0.02831   0.02858   0.02870   0.03288
     Eigenvalues ---    0.03688   0.03836   0.04012   0.04035   0.04106
     Eigenvalues ---    0.04133   0.04171   0.04206   0.04263   0.04303
     Eigenvalues ---    0.04389   0.04498   0.04533   0.04647   0.04753
     Eigenvalues ---    0.04814   0.04913   0.04983   0.05031   0.05177
     Eigenvalues ---    0.05317   0.05516   0.05743   0.05901   0.06037
     Eigenvalues ---    0.06167   0.06519   0.06667   0.06772   0.07127
     Eigenvalues ---    0.07302   0.07375   0.07780   0.07926   0.08163
     Eigenvalues ---    0.08343   0.08486   0.08598   0.08797   0.08925
     Eigenvalues ---    0.10831   0.11059   0.11288   0.11383   0.11441
     Eigenvalues ---    0.11592   0.11940   0.12049   0.12208   0.12338
     Eigenvalues ---    0.12555   0.12653   0.12751   0.12871   0.12951
     Eigenvalues ---    0.13261   0.13470   0.13510   0.13966   0.14246
     Eigenvalues ---    0.14707   0.15332   0.16075   0.16174   0.16448
     Eigenvalues ---    0.16813   0.17957   0.18315   0.18758   0.18889
     Eigenvalues ---    0.19216   0.19473   0.19595   0.19809   0.19948
     Eigenvalues ---    0.20412   0.20514   0.20709   0.21163   0.21360
     Eigenvalues ---    0.22027   0.22464   0.22775   0.22991   0.23195
     Eigenvalues ---    0.23913   0.24210   0.24437   0.24614   0.25768
     Eigenvalues ---    0.26020   0.26413   0.26701   0.27053   0.27714
     Eigenvalues ---    0.27882   0.28399   0.29100   0.29385   0.30087
     Eigenvalues ---    0.30186   0.30738   0.31094   0.31908   0.32419
     Eigenvalues ---    0.32524   0.33222   0.33738   0.33905   0.33937
     Eigenvalues ---    0.33944   0.34136   0.34405   0.34501   0.34547
     Eigenvalues ---    0.34775   0.34949   0.35152   0.35320   0.35329
     Eigenvalues ---    0.35554   0.35700   0.35907   0.35988   0.36515
     Eigenvalues ---    0.36538   0.36636   0.36752   0.36980   0.37484
     Eigenvalues ---    0.37643   0.38340   0.38642   0.38958   0.41501
     Eigenvalues ---    0.42212   0.42707   0.43268   0.43858   0.44268
     Eigenvalues ---    0.44907   0.45347   0.46226   0.46611   0.47087
     Eigenvalues ---    0.47486   0.47582   0.47953   0.48207   0.48520
     Eigenvalues ---    0.48701   0.48861   0.49204   0.49812   0.49932
     Eigenvalues ---    0.50296   0.50447   0.51078   0.51535   0.52677
     Eigenvalues ---    0.53144   0.53779   0.54645   0.59001   0.62492
     Eigenvalues ---    0.66460   0.69643   0.74495   0.78526   0.80097
     Eigenvalues ---    0.82879   0.84107   0.84651   0.86008   0.87961
     Eigenvalues ---    1.37449   2.77501   6.65781   8.77417
 RFO step:  Lambda=-2.83102552D-02 EMin=-5.26374971D-03
 Linear search not attempted -- first point.
 Iteration  1 RMS(Cart)=  0.15786966 RMS(Int)=  0.00630737
 Iteration  2 RMS(Cart)=  0.04435837 RMS(Int)=  0.00033121
 Iteration  3 RMS(Cart)=  0.00088702 RMS(Int)=  0.00015961
 Iteration  4 RMS(Cart)=  0.00000046 RMS(Int)=  0.00015961
 Variable       Old X    -DE/DX   Delta X   Delta X   Delta X     New X
                                 (Linear)    (Quad)   (Total)
    R1        2.78964   0.02491   0.00000   0.07361   0.07361   2.86325
    R2        1.93765   0.00715   0.00000   0.02065   0.02065   1.95829
    R3        1.94741   0.02171   0.00000   0.06252   0.06252   2.00993
    R4        1.92991   0.00301   0.00000   0.00392   0.00392   1.93383
    R5        2.90025   0.00916   0.00000   0.01169   0.01169   2.91194
    R6        2.89738   0.00150   0.00000  -0.00762  -0.00762   2.88976
    R7        2.06631  -0.00004   0.00000  -0.00079  -0.00079   2.06552
    R8        2.33540  -0.01132   0.00000  -0.01891  -0.01891   2.31649
    R9        2.56183  -0.00178   0.00000   0.00824   0.00824   2.57007
   R10        2.86066   0.01429   0.00000   0.04092   0.04092   2.90158
   R11        2.05015   0.00436   0.00000   0.01399   0.01399   2.06414
   R12        2.06320   0.00176   0.00000   0.00350   0.00350   2.06670
   R13        2.55794   0.00076   0.00000  -0.00155  -0.00155   2.55639
   R14        2.30830   0.01053   0.00000   0.00712   0.00712   2.31541
   R15        1.90174   0.00540   0.00000   0.01023   0.01023   1.91197
[...]
 4829,-0.00002514,-0.00077858,-0.00099116,-0.00003845,0.00008702,-0.000
 00933,-0.00001557,-0.00001283,-0.00000166,-0.00000504,0.00002048,0.000
 01479,-0.00002559,-0.00000363,0.00008969,0.00004920,-0.00001052,-0.000
 01408,-0.00004985,0.00016279,-0.00021727,0.00008288,-0.00010233,0.0002
 7012,-0.00005587,-0.00009098,-0.00004263,-0.00001567,0.00013593,-0.000
 15079,0.00011858,-0.00001072,0.00026630,0.00010824,0.00057342,-0.00059
 484,-0.00248193,-0.00110821,0.00075180,-0.00206156,0.00108209,-0.00423
 167,0.00063327,-0.00983050,0.00882215,0.14489367,0.12156500,-0.1889941
 9,-0.00302215,0.00247703,0.00280518,0.00001576,0.00003042,-0.00002696,
 0.00015098,-0.00037942,0.00022522,-0.00001206,0.00002826,-0.00005860,0
 .00000890,-0.00010455,-0.00008437,-0.00000679,-0.00001067,-0.00001446,
 0.00017062,-0.00016755,0.00016926,-0.00000196,0.00000932,-0.00001195,-
 0.00010315,0.00021040,-0.00102723,0.00025908,0.00156543,0.00029337,0.0
 0024110,-0.00019544,-0.00019132,0.02433810,0.01094131,-0.00686797,-0.1
 6233760,-0.12693900,0.19181154,-0.00002646,-0.00001612,0.00000673,-0.0
 0002740,0.00002023,0.00004023,-0.00011508,0.00002846,-0.00004119,-0.00
 003314,-0.00004916,-0.00004324,0.00010271,0.00006996,-0.00012069,-0.00
 000080,-0.00001507,0.00003291,-0.00001981,-0.00003019,-0.00000653,-0.0
 0002528,0.00000470,-0.00000588,0.00001192,-0.00000715,-0.00000039,-0.0
 0000033,0.00001911,0.00001081,-0.00000137,-0.00006032,-0.00001878,-0.0
 0004572,0.00000166,0.00002202,0.00000291,0.00001550,0.00000709,0.00006
 329,-0.00001583,0.00000458,0.00002046,-0.00000805,-0.00003362,0.000011
 00,0.00000380,0.00000050,-0.00005175,-0.00008829,0.00018873,0.00026421
 ,0.00004969,-0.00001798,0.00088854,-0.00305439,-0.00032520,-0.00033784
 ,0.00200156,0.00123750,0.00004566,0.00014401,0.00000200,0.00091663,-0.
 00026876,-0.00000335,-0.00092741,-0.00018443,-0.00021091,-0.00007433,0
 .00003849,0.00100221,-0.00072053,0.00075602,0.00038774,0.00061256,0.00
 002108,0.00004683,-0.00050107,-0.00011983,-0.00039161,-0.00008974,0.00
 065543,0.00004991,-0.00010103,-0.00003704,0.00002361,-0.00003330,-0.00
 001701,-0.00009974,-0.00005398,-0.00005733,0.00000903,0.00001406,-0.00
 001823,-0.00009960,-0.00027637,0.00045463,-0.00066256,0.00005483,0.000
 00286,-0.00001658,0.00001736,0.00021640,-0.00007610,-0.00002744,0.0000
 0100,-0.00003437,-0.00000141,0.00116712,-0.00057250,0.00008909,-0.0003
 0291,-0.00011611,0.00019618,0.00009094,0.00031645,-0.00012364,0.000023
 04,-0.00010484,-0.00006194,0.00005816,-0.00000247,-0.00005795,-0.00009
 054,0.00008718,0.00002891,0.00005481,-0.00005428,0.00001121,0.00008952
 ,-0.00014188,-0.00008836,-0.00007059,0.00018247,0.00000148,0.00005353,
 -0.00000246,-0.00001136,-0.00002668,-0.00000915,0.00003116,0.00003476,
 -0.00001806,0.00000553,-0.00000077,0.00001458,0.00000286,-0.00001246,0
 .00000754,-0.00010526,-0.00009337,-0.00025274,-0.00000285,-0.00001098,
 0.00009086,-0.00000077,-0.00025033,-0.00019527,0.00030686,0.00042272,-
 0.00031583,0.00001662,0.00005959,0.00006937,-0.00031977,0.00000780,0.0
 0019532,0.00101322,0.00044199,0.00055467,-0.00413929,-0.00152504,0.003
 87543,0.01550018,-0.02352674,0.01446323,-0.00127277,0.00127564,0.00044
 208,-0.10002948,0.07219971,-0.05480667,-0.00007022,0.00007245,0.000071
 64,0.00009012,0.00010445,0.00012741,0.00001014,0.00001137,-0.00002000,
 0.00000898,-0.00003394,-0.00002564,0.00000301,-0.00001158,-0.00001400,
 -0.00000525,0.00001648,-0.00001509,0.00008429,-0.00012881,0.00003602,-
 0.00011415,-0.00017300,0.00027432,0.00000787,-0.00006438,-0.00000833,-
 0.00123768,0.00004294,0.00013369,-0.00245630,-0.00176410,0.00051616,0.
 00001669,0.00011413,-0.00029476,0.09504694,-0.00012528,-0.00001999,0.0
 0003868,0.00003074,0.00004450,0.00001904,0.00078746,-0.00067751,-0.000
 14994,-0.00016684,0.00046108,0.00037682,0.00005120,0.00014509,-0.00016
 999,0.00018123,-0.00003683,0.00004974,-0.00012895,-0.00009180,0.000001
 59,-0.00017664,0.00002759,0.00002138,0.00006662,-0.00005082,0.00000128
 ,-0.00001729,0.00006436,0.00000752,0.00002756,-0.00016730,0.00004488,-
 0.00001094,0.00005910,-0.00005596,0.00002573,0.00004950,0.00000459,0.0
 0015513,0.00002181,-0.00002166,0.00007789,-0.00002215,-0.00011206,0.00
 005716,0.00000973,-0.00001336,-0.00108210,-0.00002483,0.00069968,-0.00
 013517,0.00042210,-0.00106137,0.00018975,-0.00296548,-0.00117733,0.000
 77294,0.00140637,0.00192724,0.00017721,0.00004539,-0.00021907,-0.00148
 198,0.00091852,0.00169541,0.00177694,-0.00030374,0.00073559,0.00162376
 ,0.00149769,0.00050464,0.00029528,-0.00103696,-0.00048655,0.00093436,-
 0.00122349,-0.00166144,-0.00289287,0.00047663,-0.00017166,0.00154483,-
 0.00104173,-0.00151764,-0.00008455,-0.00015359,0.00018067,-0.00004656,
 -0.00006294,-0.00007028,-0.00010969,-0.00016387,-0.00005146,0.00015104
 ,-0.00003432,-0.00019357,-0.00003007,0.00011475,0.00000767,0.00011303,
 -0.00002290,-0.00015136,0.00003763,-0.00033171,0.00021103,0.00007307,0
 .00001094,0.00003941,0.00018582,0.00071643,0.00001954,0.00009627,-0.00
 043434,-0.00012486,0.00021809,-0.00016155,-0.00005307,-0.00024869,0.00
 018869,0.00003960,-0.00007991,0.00005913,0.00001404,-0.00017145,-0.000
 40073,0.00001635,0.00014456,0.00020596,-0.00008386,0.00014047,0.000332
 37,0.00001177,-0.00028201,-0.00016598,0.00007421,-0.00001962,0.0000710
 0,-0.00000105,0.00000098,-0.00002394,-0.00001077,0.00002655,0.00004289
 ,-0.00002439,-0.00002952,-0.00000857,0.00001775,-0.00001602,-0.0000285
 2,-0.00000647,-0.00000733,0.00021867,-0.00003701,0.00006123,-0.0000406
 5,0.00010039,0.00016035,-0.00042217,-0.00024942,-0.00018040,0.00057999
 ,-0.00003022,-0.00002971,-0.00001924,-0.00003345,0.00025419,0.00001298
 ,-0.00013275,-0.00004773,0.00204573,0.00114554,0.00076570,0.00228868,-
 0.00115602,0.00065618,-0.00627882,-0.00198599,0.00092977,-0.00041035,-
 0.00133666,0.07552429,-0.26338040,0.20841451,-0.00026924,0.00019838,0.
 00022047,-0.00004552,-0.00012651,0.00007917,-0.00000474,0.00001847,-0.
 00000010,-0.00001527,0.00001808,-0.00000224,0.00000994,-0.00000932,0.0
 0000997,-0.00002899,-0.00000736,0.00002325,-0.00004141,0.00006572,-0.0
 0007267,-0.00015221,-0.00031664,0.00022338,0.00014287,0.00007477,-0.00
 021768,-0.00028029,-0.00090870,-0.00045021,-0.00160263,0.00076573,0.00
 032143,0.00004900,-0.00018793,-0.00007366,-0.07679912,0.26373548,-0.00
 003096,0.00009604,-0.00034390,0.00009421,-0.00015446,0.00010611,0.0007
 1547,-0.00101602,-0.00017710,-0.00017692,0.00058877,0.00015073,-0.0002
 8635,-0.00006137,0.00017279,0.00013397,0.00009481,0.00043846,0.0000189
 5,-0.00002234,-0.00035131,0.00005367,-0.00007606,-0.00023276,0.0000269
 4,-0.00004547,0.00009487,0.00000608,-0.00003987,-0.00005564,-0.0001002
 3,0.00011153,0.00014354,0.00013190,-0.00003071,-0.00000367,-0.00001371
 ,-0.00003053,-0.00001158,-0.00030221,-0.00000104,0.00013597,-0.0001203
 8,0.00004925,0.00056498,0.00001524,0.00003120,0.00003233,-0.00035665,0
 .00097394,-0.00063559,0.00026373,-0.00051392,0.00034502,-0.00074178,-0
 .00274126,0.00059626,0.00054066,0.00130121,-0.00081798,-0.00041041,-0.
 00026696,-0.00032192,0.00151716,-0.00202166,-0.00247821,0.00038167,-0.
 00028400,-0.00015739,-0.00216820,-0.00005977,0.00073128,-0.00047925,0.
 00053617,-0.00019297,0.00172162,0.00237729,0.00085294,0.00022895,0.000
 55489,-0.00044166,0.00044095,-0.00136203,0.00050412,0.00001595,0.00010
 272,-0.00004513,0.00008132,0.00009606,0.00005260,0.00008690,0.00023691
 ,0.00015889,-0.00022253,0.00006249,0.00017725,-0.00001370,0.00012468,-
 0.00008227,-0.00014380,-0.00010481,0.00012118,0.00003803,-0.00057870,0
 .00017714,-0.00024120,-0.00023317,0.00003541,0.00012028,0.00093462,-0.
 00118410,0.00010979,-0.00026101,-0.00003611,0.00001986,0.00061872,0.00
 142318,0.00026040,-0.00024088,-0.00061268,-0.00007769,0.00003478,-0.00
 008762,0.00001154,0.00037166,0.00037392,-0.00006462,-0.00015174,-0.000
 08604,-0.00004048,-0.00032101,-0.00051705,0.00004505,0.00018447,0.0004
 4323,-0.00004480,-0.00001829,-0.00002151,-0.00002563,-0.00003330,-0.00
 000682,0.00005429,0.00003604,-0.00001661,0.00003463,0.00002689,0.00001
 283,0.00000953,-0.00000102,0.00003409,-0.00037761,-0.00075745,-0.00082
 117,0.00001873,0.00009083,0.00004621,-0.00043875,0.00168704,0.00075095
 ,0.00091456,-0.00170388,-0.00022811,0.00001819,0.00012120,0.00007651,-
 0.00001850,0.00026348,-0.00027287,-0.00004534,0.00172212,0.00014518,0.
 00544310,-0.00026999,0.00354468,0.00114617,0.01935326,-0.02499443,-0.0
 0537198,-0.00170791,0.00077640,-0.05365511,0.17625365,-0.14716868,0.00
 066059,-0.00065084,-0.00085903,0.00025039,0.00045441,0.00019137,-0.000
 01349,-0.00001851,-0.00002607,0.00003219,-0.00007201,-0.00004039,-0.00
 001955,-0.00002247,-0.00001233,-0.00000872,-0.00001863,-0.00003666,-0.
 00003688,-0.00005307,0.00001927,-0.00031592,-0.00031126,0.00039671,0.0
 0002595,-0.00010831,0.00011953,-0.00199091,0.00009806,-0.00050037,0.00
 052638,0.00057028,0.00262753,-0.00011204,-0.00083981,-0.00101835,0.052
 95012,-0.19650082,0.17222705,-0.00018217,-0.00016799,-0.00010126,0.000
 24344,0.00018719,0.00011130,0.00058196,-0.00032655,0.00005297,-0.00026
 930,0.00010123,-0.00003271,-0.00024150,-0.00014606,-0.00006473,-0.0003
 3749,0.00051388,0.00045456,0.00004342,-0.00056006,-0.00012166,0.000354
 11,-0.00036326,-0.00032154,0.00009695,-0.00002018,0.00003076,-0.000015
 84,-0.00006893,-0.00006239,-0.00001661,0.00080074,0.00016784,-0.000112
 27,-0.00001712,0.00033696,-0.00000951,-0.00002536,-0.00009105,-0.00014
 299,0.00064234,-0.00021035,0.00010988,0.00007575,-0.00003419,0.0000684
 8,0.00010819,0.00003684,-0.00055482,0.00014107,0.00021047,0.00010250,0
 .00005649,-0.00009968,0.00001702,-0.00048110,-0.00047783,0.00005783,0.
 00030983,0.00051142,-0.00003982,0.00001956,-0.00001696,0.00010576,-0.0
 0003054,-0.00001931,-0.00004782,0.00011069,-0.00000043,-0.00019696,-0.
 00016759,0.00012705,-0.00006348,0.00003415,-0.00008873,0.00009496,-0.0
 0000254,0.00017439,-0.00003631,-0.00002335,-0.00003365,0.00062865,0.00
 000423,-0.00025880,-0.00002306,-0.00002939,0.00000667,-0.00000837,0.00
 000590,-0.00003054,-0.00001124,-0.00001444,0.00001761,-0.00001008,0.00
 000116,0.00005353,-0.00002987,0.00004341,-0.00005668,-0.00012084,-0.00
 007332,0.00011193,-0.00002048,0.00005892,-0.00002316,0.00000602,-0.000
 06025,0.00000356,0.00009347,0.00017361,0.00017611,0.00003934,-0.000145
 98,-0.00004973,0.00020512,-0.00025841,-0.00033788,-0.00033611,0.000168
 37,0.00015041,-0.00001831,0.00003341,0.00001821,-0.00004727,-0.0002422
 2,-0.00008317,0.00005135,0.00011591,-0.00001405,0.00003976,0.00020611,
 0.00012883,-0.00009086,-0.00007708,-0.00005094,0.00000883,0.00002261,0
 .00000417,-0.00000548,-0.00000770,-0.00000111,0.00000625,0.00001521,-0
 .00000328,-0.00001080,-0.00001371,0.00000405,0.00000068,-0.00001229,-0
 .00000642,-0.00004566,0.00035909,0.00015407,0.00014739,-0.00015684,-0.
 00002171,0.00018497,0.00046739,0.00019317,-0.00112713,-0.00062187,0.00
 013719,-0.00005376,-0.00006694,-0.00015662,0.00031613,-0.00004861,-0.0
 0004827,-0.00040956,0.00011297,0.00130590,0.00134059,0.00321914,-0.003
 56976,-0.02521924,-0.00128192,-0.00571577,0.00130792,-0.00299878,0.002
 73110,-0.40428819,-0.00556015,-0.11300511,-0.00022631,-0.00019554,0.00
 021404,-0.00012989,-0.00023429,-0.00007349,-0.00006201,-0.00001744,0.0
 0001798,-0.00001333,0.00005914,0.00001455,-0.00002937,-0.00000150,0.00
 004688,-0.00000275,-0.00002000,-0.00000298,-0.00007380,0.00011321,-0.0
 0004624,0.00006750,0.00002378,-0.00013579,0.00023529,0.00023621,-0.000
 29798,0.00217158,-0.00183693,0.00028028,0.00017067,0.00014859,-0.00024
 433,-0.00046800,0.00064670,-0.00014176,-0.00190889,-0.00167612,-0.0006
 9884,0.42815974,0.00004264,0.00011493,0.00024674,-0.00030188,-0.000265
 56,0.00002778,0.00005578,-0.00028022,-0.00029848,0.00020957,0.00031255
 ,0.00038176,0.00035783,0.00045180,-0.00082272,0.00077773,-0.00011745,0
 .00063733,-0.00037775,-0.00030610,-0.00019411,-0.00059708,0.00029278,-
 0.00003008,-0.00005990,-0.00004680,-0.00002569,0.00002353,0.00015031,0
 .00011518,0.00041797,-0.00120858,-0.00024053,0.00002996,0.00005976,-0.
 00003648,0.00004727,0.00010622,0.00004678,0.00046547,0.00013250,0.0000
 7440,0.00001028,-0.00017902,-0.00040389,0.00004313,-0.00008124,-0.0000
 3771,-0.00009021,-0.00025910,0.00051005,-0.00043275,0.00035671,-0.0002
 0932,-0.00041119,0.00068725,0.00040301,0.00019723,-0.00054080,-0.00061
 419,0.00012003,0.00001742,-0.00000950,0.00002213,-0.00013420,0.0000452
 8,-0.00000046,-0.00007008,0.00025151,-0.00017799,-0.00020301,0.0003934
 0,-0.00031966,0.00047728,0.00007354,0.00044170,0.00007191,-0.00000698,
 -0.00001233,0.00005457,-0.00061115,0.00001140,-0.00028239,-0.00206029,
 0.00007392,-0.00002838,0.00007993,-0.00001376,-0.00007926,0.00002110,-
 0.00001236,-0.00001016,-0.00003585,0.00004178,-0.00003623,-0.00013465,
 -0.00004124,0.00004638,-0.00008342,-0.00000789,0.00000231,0.00003827,0
 .00002119,-0.00003972,0.00001733,-0.00008187,-0.00018896,0.00007100,0.
 00002803,-0.00029840,-0.00003492,-0.00014929,0.00019351,-0.00003051,-0
 .00033889,-0.00021326,-0.00039830,0.00026867,0.00006603,0.00009014,0.0
 0002708,-0.00009911,0.00000322,-0.00008539,0.00011941,0.00014302,0.000
 04402,-0.00005328,-0.00003351,0.00012175,-0.00016921,-0.00011083,0.000
 07472,0.00014290,0.00010929,-0.00000745,-0.00004103,0.00000129,0.00004
 037,0.00002254,-0.00000371,-0.00002338,-0.00002256,-0.00000851,-0.0000
 2016,0.00001814,0.00000015,-0.00002730,-0.00000355,-0.00000046,0.00051
 590,0.00054603,0.00007000,-0.00014140,-0.00013944,0.00024096,-0.000166
 28,-0.00304040,-0.00126494,0.00064047,0.00323063,-0.00118636,0.0000141
 8,0.00003704,0.00025363,-0.00023405,0.00009258,-0.00002560,0.00027665,
 -0.00057696,-0.00079679,0.00093675,-0.00261719,0.00262098,-0.00574043,
 0.00123961,-0.01557411,-0.00163162,0.00181146,0.00211770,-0.02884521,-
 0.03674156,0.03029733,-0.00054086,0.00111269,0.00060185,-0.00017851,0.
 00010346,0.00012214,0.00009198,0.00004827,-0.00002420,0.00000627,-0.00
 005074,-0.00002876,0.00007467,-0.00000341,-0.00008444,-0.00001502,0.00
 002572,0.00009423,0.00007853,-0.00006583,0.00000492,0.00011850,0.00000
 975,-0.00011253,-0.00010483,-0.00013493,0.00014331,-0.00264148,-0.0001
 2670,0.00298951,0.00018929,-0.00129834,0.00073340,0.00006855,0.0020111
 6,0.00074598,0.02808678,0.00434935,0.00354692,0.00871621,0.03153820,0.
 00006646,0.00019828,-0.00019360,-0.00019824,-0.00033072,-0.00005448,0.
 00043846,-0.00069213,-0.00026467,0.00007283,0.00053230,0.00037450,-0.0
 0009288,0.00036952,-0.00051121,0.00084276,0.00001343,0.00117165,-0.000
 20024,-0.00016497,-0.00061031,-0.00047537,0.00016254,-0.00028034,-0.00
 001340,-0.00001595,0.00001737,0.00001363,0.00010668,0.00006014,0.00006
 532,-0.00081640,0.00066796,0.00034305,0.00000898,-0.00035624,0.0000153
 3,0.00002602,-0.00001545,-0.00034899,0.00013798,0.00029813,-0.00009286
 ,-0.00003406,0.00050244,0.00001650,-0.00004243,0.00001356,-0.00025155,
 0.00018344,0.00013348,-0.00039379,0.00028155,0.00009618,-0.00068639,0.
 00097837,0.00047466,-0.00015680,-0.00071719,-0.00088450,0.00006147,-0.
 00005925,-0.00003526,-0.00038328,0.00007360,-0.00011377,-0.00007139,-0
 .00058367,0.00002314,0.00019940,0.00039952,-0.00034376,0.00049339,-0.0
 0016286,0.00044566,-0.00022410,0.00000392,-0.00029728,-0.00009203,0.00
 026041,0.00033492,-0.00034304,-0.00114865,-0.00205845,0.00013647,0.000
 00578,0.00004949,0.00002815,-0.00001923,0.00006062,0.00001261,0.000035
 94,-0.00001771,0.00002268,0.00002959,-0.00004795,0.00005451,-0.0000989
 7,0.00010877,0.00003370,0.00006675,-0.00005509,0.00005166,-0.00009347,
 0.00003864,-0.00001621,-0.00006332,0.00000316,0.00013878,-0.00017807,-
 0.00007274,-0.00004975,0.00001152,0.00002569,-0.00023866,0.00007955,0.
 00034193,0.00022785,-0.00005231,-0.00023734,0.00000725,-0.00003578,-0.
 00002961,-0.00001729,0.00005708,0.00010104,-0.00000051,-0.00000476,-0.
 00004036,-0.00001358,-0.00003347,-0.00011428,0.00003672,0.00003968,0.0
 0003366,-0.00004333,-0.00002596,-0.00001266,0.00000440,0.00000379,-0.0
 0000100,-0.00000003,-0.00000288,0.00000241,0.00000986,0.00000513,0.000
 01095,0.00000228,-0.00000280,0.00000992,0.00001524,0.00005733,-0.00035
 005,0.00008934,-0.00017863,0.00012424,-0.00043286,0.00142795,0.0010378
 4,0.00016615,-0.00183755,-0.00118935,-0.00002331,0.00006620,0.00005481
 ,-0.00014989,0.00005926,0.00006028,0.00019122,-0.00034132,-0.00072070,
 -0.00005870,-0.00235344,-0.00023592,0.03439649,-0.00294681,0.00856538,
 0.00217124,0.00434167,-0.00414139,-0.13820418,0.03114519,-0.08526782,0
 .00063701,-0.00057672,-0.00088825,-0.00003325,0.00001129,0.00006358,-0
 .00004823,-0.00002019,-0.00002203,0.00001772,-0.00002639,-0.00003534,-
 0.00001708,-0.00002643,-0.00001074,-0.00002494,0.00003499,-0.00005477,
 0.00003063,-0.00007594,0.00003094,0.00001848,0.00004666,-0.00001549,-0
 .00025742,-0.00015332,0.00018227,0.00036342,0.00296302,-0.00012814,0.0
 0015100,-0.00053871,-0.00007626,0.00144662,0.00045083,0.00076800,-0.01
 830256,-0.00743018,-0.00390441,0.11886604,-0.02279083,0.08740136\\0.00
 000845,0.00000270,0.00000197,0.00000360,0.00000767,-0.00000532,-0.0000
 0247,0.00000229,0.00000668,-0.00000211,-0.00000683,-0.00000346,0.00000
 182,-0.00000050,0.00000727,-0.00000569,-0.00002083,-0.00000030,0.00000
 368,0.00000335,-0.00000193,0.00000196,0.00000378,0.00000202,-0.0000008
 5,0.00000568,0.00000763,-0.00000236,0.00000063,0.00000306,0.00000129,-
 0.00000242,-0.00000105,0.00000155,0.00000154,0.00000278,-0.00000257,-0
 .00000010,-0.00000211,-0.00000635,0.00000645,-0.00000441,-0.00000874,-
 0.00000506,-0.00000680,-0.00000494,0.00000472,0.00000119,0.00000875,0.
 00000894,-0.00000661,0.00000442,0.00000263,0.00000063,-0.00001262,0.00
 002583,0.00001249,0.00001063,-0.00000815,0.00000988,-0.00000052,-0.000
 00392,-0.00000342,0.00000103,0.00000136,-0.00000265,-0.00000111,0.0000
 0163,0.00000097,-0.00000250,-0.00000384,0.00000405,-0.00000032,-0.0000
 0116,0.00000090,0.00000024,-0.00000105,-0.00000001,-0.00000027,0.00000
 163,-0.00000013,-0.00000695,-0.00000536,0.00000687,-0.00000342,-0.0000
 0389,0.00000316,0.00000065,0.00000025,-0.00000058,0.00000044,0.0000005
 2,0.00000113,-0.00000113,0.00000178,-0.00000054,-0.00000062,-0.0000019
 0,0.00000175,-0.00000069,0.00000034,0.00000041,-0.00000055,-0.00000078
 ,0.00000056,-0.00000108,-0.00000031,0.00000048,0.00002159,0.00000302,0
 .00000292,-0.00003510,-0.00002247,0.00002564,0.00001166,-0.00000290,-0
 .00001468,0.00000322,-0.00000102,0.00000288,-0.00000371,-0.00000003,-0
 .00000578,0.00001155,0.00001862,0.00000967,-0.00000640,-0.00001059,0.0
 0000080,0.00000302,-0.00000991,-0.00001043,-0.00000491,-0.00000452,-0.
 00000008,0.00000132,0.00000210,0.00000224,0.00000066,0.00000046,0.0000
 0122,0.00000073,0.00000033,-0.00000114,0.00000163,-0.00000056,-0.00000
 246,0.00000140,0.00000080,0.00000023,0.00005412,0.00004909,-0.00001442
 ,-0.00003195,-0.00002214,0.00003169,0.00001588,-0.00001058,-0.00001370
 ,-0.00000407,0.00000262,0.00000820,-0.00000877,-0.00000611,-0.00000540
 ,-0.00000598,-0.00000761,0.00001226,0.00001480,0.00000263,-0.00000076,
 -0.00000788,0.00000347,-0.00000916,-0.00000885,0.00000873,-0.00001443,
 0.00000727,-0.00000647,-0.00000760,-0.00001937,0.00000120,0.00000094,-
 0.00000380,0.00000381,-0.00000376,0.00000500,-0.00001556,-0.00002241,-
 0.00000377,0.00001035,-0.00001149,0.00000042,0.00000042,0.00000103,0.0
 0000026,0.00000267,-0.00000054,-0.00000059,-0.00000027,-0.00000128,-0.
 00000170,-0.00000096,-0.00000161,0.00000167,0.00000026,-0.00000123,-0.
 00000086,-0.00000060,0.00000395,0.00000887,0.00000266,0.00000946,-0.00
 000065,-0.00000664,0.00000229,-0.00000181,-0.00000054,-0.00000497,-0.0
 0000037,0.00000091,-0.00000487,0.00000485,-0.00000230,0.00000024\\\@
 The archive entry for this job was punched.


 IF YOU DON'T HAVE THE LAW - ARGUE THE FACTS.
 IF YOU DON'T HAVE THE FACTS - ARGUE THE LAW.
 IF YOU DON'T HAVE EITHER - POUND THE TABLE.
 Job cpu time:       0 days  8 hours 11 minutes 18.6 seconds.
 Elapsed time:       0 days  1 hours  1 minutes 27.4 seconds.
 File lengths (MBytes):  RWF=   3960 Int=      0 D2E=      0 Chk=     48 Scr=     16
 Normal termination of Gaussian 16 at Tue May 31 21:22:07 2022.
