 Entering Gaussian System, Link 0=/opt/software/Gaussian/g16-AVX2-C.01/g16/g16
 Input=opt_freq-conf-355.com
 Output=opt_freq-conf-355.log
 Initial command:
 /opt/software/Gaussian/g16-AVX2-C.01/g16/l1.exe "/mnt/gs18/scratch/users/kengmith/Gau-123368.inp" -scrdir="/mnt/gs18/scratch/users/kengmith/"
 Entering Link 1 = /opt/software/Gaussian/g16-AVX2-C.01/g16/l1.exe PID=    123378.
  
 Copyright (c) 1988-2019, Gaussian, Inc.  All Rights Reserved.
  
 This is part of the Gaussian(R) 16 program.  It is based on
 the Gaussian(R) 09 system (copyright 2009, Gaussian, Inc.),
 the Gaussian(R) 03 system (copyright 2003, Gaussian, Inc.),
 the Gaussian(R) 98 system (copyright 1998, Gaussian, Inc.),
 the Gaussian(R) 94 system (copyright 1995, Gaussian, Inc.),
 the Gaussian 92(TM) system (copyright 1992, Gaussian, Inc.),
 the Gaussian 90(TM) system (copyright 1990, Gaussian, Inc.),
 the Gaussian 88(TM) system (copyright 1988, Gaussian, Inc.),
 the Gaussian 86(TM) system (copyright 1986, Carnegie Mellon
 University), and the Gaussian 82(TM) system (copyright 1983,
 Carnegie Mellon University). Gaussian is a federally registered
 trademark of Gaussian, Inc.
  
 This software contains proprietary and confidential information,
 including trade secrets, belonging to Gaussian, Inc.
  
 This software is provided under written license and may be
 used, copied, transmitted, or stored only in accord with that
 written license.
  
 The following legend is applicable only to US Government
 contracts under FAR:
  
                    RESTRICTED RIGHTS LEGEND
  
 Use, reproduction and disclosure by the US Government is
 subject to restrictions as set forth in subparagraphs (a)
 and (c) of the Commercial Computer Software - Restricted
 Rights clause in FAR 52.227-19.
  
 Gaussian, Inc.
 340 Quinnipiac St., Bldg. 40, Wallingford CT 06492
  
  
 ---------------------------------------------------------------
 Warning -- This program may not be used in any manner that
 competes with the business of Gaussian, Inc. or will provide
 assistance to any competitor of Gaussian, Inc.  The licensee
 of this program is prohibited from giving any competitor of
 Gaussian, Inc. access to this program.  By using this program,
 the user acknowledges that Gaussian, Inc. is engaged in the
 business of creating and licensing software in the field of
 computational chemistry and represents and warrants to the
 licensee that it is not a competitor of Gaussian, Inc. and that
 it will not use this program in any manner prohibited above.
 ---------------------------------------------------------------
  

 Cite this work as:
 Gaussian 16, Revision C.01,
 M. J. Frisch, G. W. Trucks, H. B. Schlegel, G. E. Scuseria, 
 M. A. Robb, J. R. Cheeseman, G. Scalmani, V. Barone, 
 G. A. Petersson, H. Nakatsuji, X. Li, M. Caricato, A. V. Marenich, 
 J. Bloino, B. G. Janesko, R. Gomperts, B. Mennucci, H. P. Hratchian, 
 J. V. Ortiz, A. F. Izmaylov, J. L. Sonnenberg, D. Williams-Young, 
 F. Ding, F. Lipparini, F. Egidi, J. Goings, B. Peng, A. Petrone, 
 T. Henderson, D. Ranasinghe, V. G. Zakrzewski, J. Gao, N. Rega, 
 G. Zheng, W. Liang, M. Hada, M. Ehara, K. Toyota, R. Fukuda, 
 J. Hasegawa, M. Ishida, T. Nakajima, Y. Honda, O. Kitao, H. Nakai, 
 T. Vreven, K. Throssell, J. A. Montgomery, Jr., J. E. Peralta, 
 F. Ogliaro, M. J. Bearpark, J. J. Heyd, E. N. Brothers, K. N. Kudin, 
 V. N. Staroverov, T. A. Keith, R. Kobayashi, J. Normand, 
 K. Raghavachari, A. P. Rendell, J. C. Burant, S. S. Iyengar, 
 J. Tomasi, M. Cossi, J. M. Millam, M. Klene, C. Adamo, R. Cammi, 
 J. W. Ochterski, R. L. Martin, K. Morokuma, O. Farkas, 
 J. B. Foresman, and D. J. Fox, Gaussian, Inc., Wallingford CT, 2019.
 
 ******************************************
 Gaussian 16:  ES64L-G16RevC.01  3-Jul-2019
                31-May-2022 
 ******************************************
 %mem=12gb
 %nproc=8
 Will use up to    8 processors via shared memory.
 %chk=conf-355.chk
 ----------------------------------------------------------------------
 # B3LYP/6-31G* empiricaldispersion=gd3 opt=calcfc freq=noraman nosymm 
 integral(ultrafinegrid)
 ----------------------------------------------------------------------
 1/10=4,18=20,19=15,26=4,38=1/1,3;
 2/9=110,12=2,15=1,17=6,18=5,40=1/2;
 3/5=1,6=6,7=1,11=2,25=1,30=1,71=2,74=-5,75=-5,124=31,140=1/1,2,3;
 4//1;
 5/5=2,38=5/2;
 8/6=4,10=90,11=11/1;
 11/6=1,8=1,9=11,15=111,16=1,31=1/1,2,10;
 10/6=1,13=1,31=1/2;
 6/7=2,8=2,9=2,10=2,28=1/1;
 7/10=1,25=1,30=1/1,2,3,16;
 1/10=4,18=20,19=15,26=4/3(2);
 2/9=110,15=1/2;
 99//99;
 2/9=110,15=1/2;
 3/5=1,6=6,7=1,11=2,25=1,30=1,71=1,74=-5,75=-5,124=31/1,2,3;
 4/5=5,16=3,69=1/1;
 5/5=2,38=5/2;
 7/30=1/1,2,3,16;
 1/18=20,19=15,26=4/3(-5);
 2/9=110,15=1/2;
 6/7=2,8=2,9=2,10=2,19=2,28=1/1;
 99/9=1/99;
 ------------------------------------------------------------
 Candidate Structure: Conf:355 OPT and FREQ calc in gas phase
 ------------------------------------------------------------
 Symbolic Z-matrix:
 Charge =  1 Multiplicity = 1
 N                    -8.58937  -2.79214  -5.22046 
 C                    -8.16189  -1.38922  -5.11001 
 C                    -8.66689  -0.61021  -6.33742 
 O                    -9.89976  -0.38039  -6.44144 
 C                    -6.66654  -1.21631  -4.87864 
 C                    -6.29997  -1.72544  -3.50827 
 N                    -5.39861  -2.734    -3.47836 
 O                    -6.79223  -1.21569  -2.51421 
 H                    -7.7874   -3.35807  -5.52642 
 H                    -8.6774   -0.92609  -4.26228 
 H                    -6.07668  -1.67866  -5.66382 
 H                    -6.46302  -0.13394  -4.8571 
 H                    -5.20136  -3.13097  -2.57508 
 H                    -5.25063  -3.28456  -4.31185 
 H                    -8.8906   -3.14173  -4.31064 
 H                    -9.34371  -2.93874  -5.9048 
 N                    -7.72286  -0.21319  -7.25971 
 C                    -8.03927   0.83946  -8.21385 
 C                    -7.63309   0.36895  -9.6205 
 O                    -6.73463   0.90328  -10.2662 
 C                    -7.39701   2.19847  -7.83396 
 C                    -7.23225   2.388    -6.34077 
 C                    -8.32398   2.31702  -5.47817 
 C                    -5.95881   2.52857  -5.7938 
 C                    -8.13479   2.32308  -4.09573 
 C                    -5.76836   2.57094  -4.41618 
 C                    -6.8574    2.45164  -3.5623 
 H                    -6.75099  -0.30598  -7.02292 
 H                    -9.12561   0.93221  -8.19892 
 H                    -6.41506   2.29323  -8.29771 
 H                    -8.02511   2.97966  -8.26872 
 H                    -9.31888   2.12842  -5.88458 
 H                    -5.10285   2.57703  -6.45731 
 H                    -8.99628   2.18402  -3.4523 
 H                    -4.7639    2.65075  -4.01656 
 H                    -6.71077   2.42634  -2.48702 
 N                    -8.26478  -0.71045  -10.1239 
 C                    -9.24178  -1.57966  -9.51904 
 C                    -8.64037  -2.72493  -8.70173 
 O                    -9.37971  -3.35339  -7.93951 
 C                    -10.14494  -2.22276  -10.59227 
 C                    -9.34578  -3.3425   -11.26857 
 N                    -9.72485  -4.60627  -10.89164 
 O                    -8.40606  -3.06915  -12.0385 
 H                    -7.94484  -0.93641  -11.0529 
 H                    -9.84533  -1.01201  -8.80947 
 H                    -10.38033  -1.50046  -11.36864 
 H                    -11.05275  -2.62031  -10.14496 
 H                    -9.06695  -5.31008  -11.19003 
 H                    -10.17635  -4.72007  -9.99653 
 N                    -7.35173  -3.07253  -8.93438 
 C                    -6.78054  -4.15568  -8.17269 
 C                    -5.80915  -3.60323  -7.06664 
 O                    -4.83444  -2.91996  -7.42802 
 C                    -6.09606  -5.27522  -8.99517 
 C                    -6.02549  -5.06891  -10.51918 
 C                    -4.75119  -4.38007  -10.99305 
 N                    -4.48727  -3.13443  -10.2867 
 C                    -4.95137  -1.90918  -10.5604 
 N                    -5.5724   -1.64075  -11.71881 
 N                    -4.69267  -0.94338  -9.68875 
 O                    -6.10231  -3.95855  -5.90571 
 H                    -6.72945  -2.46688  -9.44391 
 H                    -7.62118  -4.58341  -7.6278 
 H                    -5.08591  -5.42474  -8.59811 
 H                    -6.63688  -6.20495  -8.78086 
 H                    -6.07356  -6.04606  -11.00988 
 H                    -6.87282  -4.5004   -10.88321 
 H                    -3.89042  -5.02622  -10.80483 
 H                    -4.77407  -4.19622  -12.07305 
 H                    -4.16795  -3.25251  -9.32857 
 H                    -5.96747  -0.72027  -11.82926 
 H                    -6.01799  -2.38749  -12.22661 
 H                    -5.10316  -0.03811  -9.85091 
 H                    -4.43877  -1.19616  -8.7442 
 

 GradGradGradGradGradGradGradGradGradGradGradGradGradGradGradGradGradGrad
 Berny optimization.
 Initialization pass.
                           ----------------------------
                           !    Initial Parameters    !
                           ! (Angstroms and Degrees)  !
 --------------------------                            --------------------------
 ! Name  Definition              Value          Derivative Info.                !
 --------------------------------------------------------------------------------
 ! R1    R(1,2)                  1.4708         calculate D2E/DX2 analytically  !
 ! R2    R(1,9)                  1.0281         calculate D2E/DX2 analytically  !
 ! R3    R(1,15)                 1.0202         calculate D2E/DX2 analytically  !
 ! R4    R(1,16)                 1.029          calculate D2E/DX2 analytically  !
 ! R5    R(2,3)                  1.539          calculate D2E/DX2 analytically  !
 ! R6    R(2,5)                  1.523          calculate D2E/DX2 analytically  !
 ! R7    R(2,10)                 1.0949         calculate D2E/DX2 analytically  !
 ! R8    R(3,4)                  1.2584         calculate D2E/DX2 analytically  !
 ! R9    R(3,17)                 1.3782         calculate D2E/DX2 analytically  !
 ! R10   R(5,6)                  1.5071         calculate D2E/DX2 analytically  !
 ! R11   R(5,11)                 1.0855         calculate D2E/DX2 analytically  !
 ! R12   R(5,12)                 1.1015         calculate D2E/DX2 analytically  !
 ! R13   R(6,7)                  1.353          calculate D2E/DX2 analytically  !
 ! R14   R(6,8)                  1.2208         calculate D2E/DX2 analytically  !
 ! R15   R(7,13)                 1.0062         calculate D2E/DX2 analytically  !
 ! R16   R(7,14)                 1.0098         calculate D2E/DX2 analytically  !
 ! R17   R(17,18)                1.4555         calculate D2E/DX2 analytically  !
 ! R18   R(17,28)                1.0046         calculate D2E/DX2 analytically  !
 ! R19   R(18,19)                1.5379         calculate D2E/DX2 analytically  !
 ! R20   R(18,21)                1.5504         calculate D2E/DX2 analytically  !
 ! R21   R(18,29)                1.0904         calculate D2E/DX2 analytically  !
 ! R22   R(19,20)                1.2287         calculate D2E/DX2 analytically  !
 ! R23   R(19,37)                1.3482         calculate D2E/DX2 analytically  !
 ! R24   R(21,22)                1.5142         calculate D2E/DX2 analytically  !
 ! R25   R(21,30)                1.0901         calculate D2E/DX2 analytically  !
 ! R26   R(21,31)                1.0926         calculate D2E/DX2 analytically  !
 ! R27   R(22,23)                1.3932         calculate D2E/DX2 analytically  !
 ! R28   R(22,24)                1.393          calculate D2E/DX2 analytically  !
 ! R29   R(23,25)                1.3953         calculate D2E/DX2 analytically  !
 ! R30   R(23,32)                1.0911         calculate D2E/DX2 analytically  !
 ! R31   R(24,26)                1.3914         calculate D2E/DX2 analytically  !
 ! R32   R(24,33)                1.0841         calculate D2E/DX2 analytically  !
 ! R33   R(25,27)                1.3902         calculate D2E/DX2 analytically  !
 ! R34   R(25,34)                1.0842         calculate D2E/DX2 analytically  !
 ! R35   R(26,27)                1.389          calculate D2E/DX2 analytically  !
 ! R36   R(26,35)                1.084          calculate D2E/DX2 analytically  !
 ! R37   R(27,36)                1.0855         calculate D2E/DX2 analytically  !
 ! R38   R(37,38)                1.4408         calculate D2E/DX2 analytically  !
 ! R39   R(37,45)                1.0082         calculate D2E/DX2 analytically  !
 ! R40   R(38,39)                1.5301         calculate D2E/DX2 analytically  !
 ! R41   R(38,41)                1.5431         calculate D2E/DX2 analytically  !
 ! R42   R(38,46)                1.0909         calculate D2E/DX2 analytically  !
 ! R43   R(39,40)                1.2339         calculate D2E/DX2 analytically  !
 ! R44   R(39,51)                1.3548         calculate D2E/DX2 analytically  !
 ! R45   R(41,42)                1.5329         calculate D2E/DX2 analytically  !
 ! R46   R(41,47)                1.0862         calculate D2E/DX2 analytically  !
 ! R47   R(41,48)                1.0873         calculate D2E/DX2 analytically  !
 ! R48   R(42,43)                1.3722         calculate D2E/DX2 analytically  !
 ! R49   R(42,44)                1.2452         calculate D2E/DX2 analytically  !
 ! R50   R(43,49)                1.0086         calculate D2E/DX2 analytically  !
 ! R51   R(43,50)                1.009          calculate D2E/DX2 analytically  !
 ! R52   R(51,52)                1.4421         calculate D2E/DX2 analytically  !
 ! R53   R(51,63)                1.0068         calculate D2E/DX2 analytically  !
 ! R54   R(52,53)                1.5723         calculate D2E/DX2 analytically  !
 ! R55   R(52,55)                1.5487         calculate D2E/DX2 analytically  !
 ! R56   R(52,64)                1.0893         calculate D2E/DX2 analytically  !
 ! R57   R(53,54)                1.244          calculate D2E/DX2 analytically  !
 ! R58   R(53,62)                1.249          calculate D2E/DX2 analytically  !
 ! R59   R(55,56)                1.5395         calculate D2E/DX2 analytically  !
 ! R60   R(55,65)                1.0956         calculate D2E/DX2 analytically  !
 ! R61   R(55,66)                1.0967         calculate D2E/DX2 analytically  !
 ! R62   R(56,57)                1.5241         calculate D2E/DX2 analytically  !
 ! R63   R(56,67)                1.0945         calculate D2E/DX2 analytically  !
 ! R64   R(56,68)                1.0834         calculate D2E/DX2 analytically  !
 ! R65   R(57,58)                1.4561         calculate D2E/DX2 analytically  !
 ! R66   R(57,69)                1.0926         calculate D2E/DX2 analytically  !
 ! R67   R(57,70)                1.0958         calculate D2E/DX2 analytically  !
 ! R68   R(58,59)                1.3385         calculate D2E/DX2 analytically  !
 ! R69   R(58,71)                1.0168         calculate D2E/DX2 analytically  !
 ! R70   R(59,60)                1.3415         calculate D2E/DX2 analytically  !
 ! R71   R(59,61)                1.3264         calculate D2E/DX2 analytically  !
 ! R72   R(60,72)                1.0077         calculate D2E/DX2 analytically  !
 ! R73   R(60,73)                1.007          calculate D2E/DX2 analytically  !
 ! R74   R(61,74)                1.0071         calculate D2E/DX2 analytically  !
 ! R75   R(61,75)                1.0102         calculate D2E/DX2 analytically  !
 ! A1    A(2,1,9)              108.7042         calculate D2E/DX2 analytically  !
 ! A2    A(2,1,15)             110.2261         calculate D2E/DX2 analytically  !
 ! A3    A(2,1,16)             113.5102         calculate D2E/DX2 analytically  !
 ! A4    A(9,1,15)             107.8845         calculate D2E/DX2 analytically  !
 ! A5    A(9,1,16)             107.1868         calculate D2E/DX2 analytically  !
 ! A6    A(15,1,16)            109.1382         calculate D2E/DX2 analytically  !
 ! A7    A(1,2,3)              109.1216         calculate D2E/DX2 analytically  !
 ! A8    A(1,2,5)              113.8969         calculate D2E/DX2 analytically  !
 ! A9    A(1,2,10)             108.9512         calculate D2E/DX2 analytically  !
 ! A10   A(3,2,5)              112.6987         calculate D2E/DX2 analytically  !
 ! A11   A(3,2,10)             104.4114         calculate D2E/DX2 analytically  !
 ! A12   A(5,2,10)             107.2548         calculate D2E/DX2 analytically  !
 ! A13   A(2,3,4)              118.6759         calculate D2E/DX2 analytically  !
 ! A14   A(2,3,17)             117.0499         calculate D2E/DX2 analytically  !
 ! A15   A(4,3,17)             124.2737         calculate D2E/DX2 analytically  !
 ! A16   A(2,5,6)              109.7908         calculate D2E/DX2 analytically  !
 ! A17   A(2,5,11)             112.0427         calculate D2E/DX2 analytically  !
 ! A18   A(2,5,12)             107.2133         calculate D2E/DX2 analytically  !
 ! A19   A(6,5,11)             112.4364         calculate D2E/DX2 analytically  !
 ! A20   A(6,5,12)             105.6178         calculate D2E/DX2 analytically  !
 ! A21   A(11,5,12)            109.4072         calculate D2E/DX2 analytically  !
 ! A22   A(5,6,7)              115.719          calculate D2E/DX2 analytically  !
 ! A23   A(5,6,8)              120.0825         calculate D2E/DX2 analytically  !
 ! A24   A(7,6,8)              124.1871         calculate D2E/DX2 analytically  !
 ! A25   A(6,7,13)             116.3943         calculate D2E/DX2 analytically  !
 ! A26   A(6,7,14)             119.0643         calculate D2E/DX2 analytically  !
 ! A27   A(13,7,14)            119.8121         calculate D2E/DX2 analytically  !
 ! A28   A(3,17,18)            119.8749         calculate D2E/DX2 analytically  !
 ! A29   A(3,17,28)            118.5761         calculate D2E/DX2 analytically  !
 ! A30   A(18,17,28)           115.5697         calculate D2E/DX2 analytically  !
 ! A31   A(17,18,19)           108.7186         calculate D2E/DX2 analytically  !
 ! A32   A(17,18,21)           112.5361         calculate D2E/DX2 analytically  !
 ! A33   A(17,18,29)           105.6121         calculate D2E/DX2 analytically  !
 ! A34   A(19,18,21)           112.5127         calculate D2E/DX2 analytically  !
 ! A35   A(19,18,29)           107.5584         calculate D2E/DX2 analytically  !
 ! A36   A(21,18,29)           109.5598         calculate D2E/DX2 analytically  !
 ! A37   A(18,19,20)           122.7361         calculate D2E/DX2 analytically  !
 ! A38   A(18,19,37)           117.564          calculate D2E/DX2 analytically  !
 ! A39   A(20,19,37)           119.6418         calculate D2E/DX2 analytically  !
 ! A40   A(18,21,22)           113.3552         calculate D2E/DX2 analytically  !
 ! A41   A(18,21,30)           110.1891         calculate D2E/DX2 analytically  !
 ! A42   A(18,21,31)           106.9229         calculate D2E/DX2 analytically  !
 ! A43   A(22,21,30)           108.0971         calculate D2E/DX2 analytically  !
 ! A44   A(22,21,31)           111.4358         calculate D2E/DX2 analytically  !
 ! A45   A(30,21,31)           106.6435         calculate D2E/DX2 analytically  !
 ! A46   A(21,22,23)           121.2607         calculate D2E/DX2 analytically  !
 ! A47   A(21,22,24)           119.9543         calculate D2E/DX2 analytically  !
 ! A48   A(23,22,24)           118.5787         calculate D2E/DX2 analytically  !
 ! A49   A(22,23,25)           120.4617         calculate D2E/DX2 analytically  !
 ! A50   A(22,23,32)           119.5178         calculate D2E/DX2 analytically  !
 ! A51   A(25,23,32)           119.5648         calculate D2E/DX2 analytically  !
 ! A52   A(22,24,26)           121.1289         calculate D2E/DX2 analytically  !
 ! A53   A(22,24,33)           119.0757         calculate D2E/DX2 analytically  !
 ! A54   A(26,24,33)           119.7725         calculate D2E/DX2 analytically  !
 ! A55   A(23,25,27)           120.3401         calculate D2E/DX2 analytically  !
 ! A56   A(23,25,34)           118.6645         calculate D2E/DX2 analytically  !
 ! A57   A(27,25,34)           120.9457         calculate D2E/DX2 analytically  !
 ! A58   A(24,26,27)           119.9159         calculate D2E/DX2 analytically  !
 ! A59   A(24,26,35)           119.6105         calculate D2E/DX2 analytically  !
 ! A60   A(27,26,35)           120.4123         calculate D2E/DX2 analytically  !
 ! A61   A(25,27,26)           119.5024         calculate D2E/DX2 analytically  !
 ! A62   A(25,27,36)           120.1348         calculate D2E/DX2 analytically  !
 ! A63   A(26,27,36)           120.3331         calculate D2E/DX2 analytically  !
 ! A64   A(19,37,38)           130.0899         calculate D2E/DX2 analytically  !
 ! A65   A(19,37,45)           112.013          calculate D2E/DX2 analytically  !
 ! A66   A(38,37,45)           117.827          calculate D2E/DX2 analytically  !
 ! A67   A(37,38,39)           114.158          calculate D2E/DX2 analytically  !
 ! A68   A(37,38,41)           110.8753         calculate D2E/DX2 analytically  !
 ! A69   A(37,38,46)           109.5305         calculate D2E/DX2 analytically  !
 ! A70   A(39,38,41)           106.8348         calculate D2E/DX2 analytically  !
 ! A71   A(39,38,46)           105.0403         calculate D2E/DX2 analytically  !
 ! A72   A(41,38,46)           110.2093         calculate D2E/DX2 analytically  !
 ! A73   A(38,39,40)           118.4024         calculate D2E/DX2 analytically  !
 ! A74   A(38,39,51)           118.304          calculate D2E/DX2 analytically  !
 ! A75   A(40,39,51)           123.0458         calculate D2E/DX2 analytically  !
 ! A76   A(38,41,42)           107.8272         calculate D2E/DX2 analytically  !
 ! A77   A(38,41,47)           110.2928         calculate D2E/DX2 analytically  !
 ! A78   A(38,41,48)           110.7891         calculate D2E/DX2 analytically  !
 ! A79   A(42,41,47)           106.4614         calculate D2E/DX2 analytically  !
 ! A80   A(42,41,48)           110.4682         calculate D2E/DX2 analytically  !
 ! A81   A(47,41,48)           110.8689         calculate D2E/DX2 analytically  !
 ! A82   A(41,42,43)           114.0502         calculate D2E/DX2 analytically  !
 ! A83   A(41,42,44)           120.3889         calculate D2E/DX2 analytically  !
 ! A84   A(43,42,44)           125.4854         calculate D2E/DX2 analytically  !
 ! A85   A(42,43,49)           112.4095         calculate D2E/DX2 analytically  !
 ! A86   A(42,43,50)           118.1115         calculate D2E/DX2 analytically  !
 ! A87   A(49,43,50)           118.4028         calculate D2E/DX2 analytically  !
 ! A88   A(39,51,52)           118.6026         calculate D2E/DX2 analytically  !
 ! A89   A(39,51,63)           121.3625         calculate D2E/DX2 analytically  !
 ! A90   A(52,51,63)           118.3152         calculate D2E/DX2 analytically  !
 ! A91   A(51,52,53)           110.6312         calculate D2E/DX2 analytically  !
 ! A92   A(51,52,55)           115.9454         calculate D2E/DX2 analytically  !
 ! A93   A(51,52,64)           104.6833         calculate D2E/DX2 analytically  !
 ! A94   A(53,52,55)           110.7649         calculate D2E/DX2 analytically  !
 ! A95   A(53,52,64)           105.2411         calculate D2E/DX2 analytically  !
 ! A96   A(55,52,64)           108.8382         calculate D2E/DX2 analytically  !
 ! A97   A(52,53,54)           118.2108         calculate D2E/DX2 analytically  !
 ! A98   A(52,53,62)           114.1351         calculate D2E/DX2 analytically  !
 ! A99   A(54,53,62)           127.6029         calculate D2E/DX2 analytically  !
 ! A100  A(52,55,56)           116.6872         calculate D2E/DX2 analytically  !
 ! A101  A(52,55,65)           108.2816         calculate D2E/DX2 analytically  !
 ! A102  A(52,55,66)           106.9235         calculate D2E/DX2 analytically  !
 ! A103  A(56,55,65)           109.5589         calculate D2E/DX2 analytically  !
 ! A104  A(56,55,66)           109.2474         calculate D2E/DX2 analytically  !
 ! A105  A(65,55,66)           105.5536         calculate D2E/DX2 analytically  !
 ! A106  A(55,56,57)           113.996          calculate D2E/DX2 analytically  !
 ! A107  A(55,56,67)           108.7936         calculate D2E/DX2 analytically  !
 ! A108  A(55,56,68)           111.537          calculate D2E/DX2 analytically  !
 ! A109  A(57,56,67)           107.5073         calculate D2E/DX2 analytically  !
 ! A110  A(57,56,68)           108.1973         calculate D2E/DX2 analytically  !
 ! A111  A(67,56,68)           106.4694         calculate D2E/DX2 analytically  !
 ! A112  A(56,57,58)           112.7901         calculate D2E/DX2 analytically  !
 ! A113  A(56,57,69)           109.7451         calculate D2E/DX2 analytically  !
 ! A114  A(56,57,70)           111.3964         calculate D2E/DX2 analytically  !
 ! A115  A(58,57,69)           106.233          calculate D2E/DX2 analytically  !
 ! A116  A(58,57,70)           109.7774         calculate D2E/DX2 analytically  !
 ! A117  A(69,57,70)           106.5856         calculate D2E/DX2 analytically  !
 ! A118  A(57,58,59)           128.393          calculate D2E/DX2 analytically  !
 ! A119  A(57,58,71)           114.4988         calculate D2E/DX2 analytically  !
 ! A120  A(59,58,71)           114.0717         calculate D2E/DX2 analytically  !
 ! A121  A(58,59,60)           121.3497         calculate D2E/DX2 analytically  !
 ! A122  A(58,59,61)           117.6786         calculate D2E/DX2 analytically  !
 ! A123  A(60,59,61)           120.7995         calculate D2E/DX2 analytically  !
 ! A124  A(59,60,72)           117.3157         calculate D2E/DX2 analytically  !
 ! A125  A(59,60,73)           119.4666         calculate D2E/DX2 analytically  !
 ! A126  A(72,60,73)           116.6535         calculate D2E/DX2 analytically  !
 ! A127  A(59,61,74)           117.9804         calculate D2E/DX2 analytically  !
 ! A128  A(59,61,75)           118.7669         calculate D2E/DX2 analytically  !
 ! A129  A(74,61,75)           118.5482         calculate D2E/DX2 analytically  !
 ! D1    D(9,1,2,3)            102.4022         calculate D2E/DX2 analytically  !
 ! D2    D(9,1,2,5)            -24.4912         calculate D2E/DX2 analytically  !
 ! D3    D(9,1,2,10)          -144.172          calculate D2E/DX2 analytically  !
 ! D4    D(15,1,2,3)          -139.5459         calculate D2E/DX2 analytically  !
 ! D5    D(15,1,2,5)            93.5607         calculate D2E/DX2 analytically  !
 ! D6    D(15,1,2,10)          -26.1201         calculate D2E/DX2 analytically  !
 ! D7    D(16,1,2,3)           -16.7734         calculate D2E/DX2 analytically  !
 ! D8    D(16,1,2,5)          -143.6667         calculate D2E/DX2 analytically  !
 ! D9    D(16,1,2,10)           96.6524         calculate D2E/DX2 analytically  !
 ! D10   D(1,2,3,4)             70.7022         calculate D2E/DX2 analytically  !
 ! D11   D(1,2,3,17)          -109.0502         calculate D2E/DX2 analytically  !
 ! D12   D(5,2,3,4)           -161.7254         calculate D2E/DX2 analytically  !
 ! D13   D(5,2,3,17)            18.5221         calculate D2E/DX2 analytically  !
 ! D14   D(10,2,3,4)           -45.6562         calculate D2E/DX2 analytically  !
 ! D15   D(10,2,3,17)          134.5913         calculate D2E/DX2 analytically  !
 ! D16   D(1,2,5,6)            -68.1327         calculate D2E/DX2 analytically  !
 ! D17   D(1,2,5,11)            57.5503         calculate D2E/DX2 analytically  !
 ! D18   D(1,2,5,12)           177.5987         calculate D2E/DX2 analytically  !
 ! D19   D(3,2,5,6)            166.8589         calculate D2E/DX2 analytically  !
 ! D20   D(3,2,5,11)           -67.4581         calculate D2E/DX2 analytically  !
 ! D21   D(3,2,5,12)            52.5902         calculate D2E/DX2 analytically  !
 ! D22   D(10,2,5,6)            52.5026         calculate D2E/DX2 analytically  !
 ! D23   D(10,2,5,11)          178.1856         calculate D2E/DX2 analytically  !
 ! D24   D(10,2,5,12)          -61.766          calculate D2E/DX2 analytically  !
 ! D25   D(2,3,17,18)         -161.8194         calculate D2E/DX2 analytically  !
 ! D26   D(2,3,17,28)          -10.2151         calculate D2E/DX2 analytically  !
 ! D27   D(4,3,17,18)           18.4434         calculate D2E/DX2 analytically  !
 ! D28   D(4,3,17,28)          170.0478         calculate D2E/DX2 analytically  !
 ! D29   D(2,5,6,7)            120.1597         calculate D2E/DX2 analytically  !
 ! D30   D(2,5,6,8)            -61.0174         calculate D2E/DX2 analytically  !
 ! D31   D(11,5,6,7)            -5.2982         calculate D2E/DX2 analytically  !
 ! D32   D(11,5,6,8)           173.5247         calculate D2E/DX2 analytically  !
 ! D33   D(12,5,6,7)          -124.5533         calculate D2E/DX2 analytically  !
 ! D34   D(12,5,6,8)            54.2696         calculate D2E/DX2 analytically  !
 ! D35   D(5,6,7,13)          -175.296          calculate D2E/DX2 analytically  !
 ! D36   D(5,6,7,14)           -19.6806         calculate D2E/DX2 analytically  !
 ! D37   D(8,6,7,13)             5.9353         calculate D2E/DX2 analytically  !
 ! D38   D(8,6,7,14)           161.5507         calculate D2E/DX2 analytically  !
 ! D39   D(3,17,18,19)        -131.5792         calculate D2E/DX2 analytically  !
 ! D40   D(3,17,18,21)         103.0899         calculate D2E/DX2 analytically  !
 ! D41   D(3,17,18,29)         -16.4024         calculate D2E/DX2 analytically  !
 ! D42   D(28,17,18,19)         75.9996         calculate D2E/DX2 analytically  !
 ! D43   D(28,17,18,21)        -49.3313         calculate D2E/DX2 analytically  !
 ! D44   D(28,17,18,29)       -168.8236         calculate D2E/DX2 analytically  !
 ! D45   D(17,18,19,20)       -114.1939         calculate D2E/DX2 analytically  !
 ! D46   D(17,18,19,37)         63.0201         calculate D2E/DX2 analytically  !
 ! D47   D(21,18,19,20)         11.1507         calculate D2E/DX2 analytically  !
 ! D48   D(21,18,19,37)       -171.6353         calculate D2E/DX2 analytically  !
 ! D49   D(29,18,19,20)        131.8989         calculate D2E/DX2 analytically  !
 ! D50   D(29,18,19,37)        -50.8872         calculate D2E/DX2 analytically  !
 ! D51   D(17,18,21,22)        -30.382          calculate D2E/DX2 analytically  !
 ! D52   D(17,18,21,30)         90.9021         calculate D2E/DX2 analytically  !
 ! D53   D(17,18,21,31)       -153.5759         calculate D2E/DX2 analytically  !
 ! D54   D(19,18,21,22)       -153.6188         calculate D2E/DX2 analytically  !
 ! D55   D(19,18,21,30)        -32.3347         calculate D2E/DX2 analytically  !
 ! D56   D(19,18,21,31)         83.1873         calculate D2E/DX2 analytically  !
 ! D57   D(29,18,21,22)         86.789          calculate D2E/DX2 analytically  !
 ! D58   D(29,18,21,30)       -151.9269         calculate D2E/DX2 analytically  !
 ! D59   D(29,18,21,31)        -36.4049         calculate D2E/DX2 analytically  !
 ! D60   D(18,19,37,38)         -4.0478         calculate D2E/DX2 analytically  !
 ! D61   D(18,19,37,45)        179.1185         calculate D2E/DX2 analytically  !
 ! D62   D(20,19,37,38)        173.2559         calculate D2E/DX2 analytically  !
 ! D63   D(20,19,37,45)         -3.5778         calculate D2E/DX2 analytically  !
 ! D64   D(18,21,22,23)        -57.359          calculate D2E/DX2 analytically  !
 ! D65   D(18,21,22,24)        117.3468         calculate D2E/DX2 analytically  !
 ! D66   D(30,21,22,23)       -179.8113         calculate D2E/DX2 analytically  !
 ! D67   D(30,21,22,24)         -5.1056         calculate D2E/DX2 analytically  !
 ! D68   D(31,21,22,23)         63.3155         calculate D2E/DX2 analytically  !
 ! D69   D(31,21,22,24)       -121.9788         calculate D2E/DX2 analytically  !
 ! D70   D(21,22,23,25)        171.779          calculate D2E/DX2 analytically  !
 ! D71   D(21,22,23,32)         -0.4416         calculate D2E/DX2 analytically  !
 ! D72   D(24,22,23,25)         -2.9977         calculate D2E/DX2 analytically  !
 ! D73   D(24,22,23,32)       -175.2182         calculate D2E/DX2 analytically  !
 ! D74   D(21,22,24,26)       -173.5614         calculate D2E/DX2 analytically  !
 ! D75   D(21,22,24,33)          4.6914         calculate D2E/DX2 analytically  !
 ! D76   D(23,22,24,26)          1.2855         calculate D2E/DX2 analytically  !
 ! D77   D(23,22,24,33)        179.5383         calculate D2E/DX2 analytically  !
 ! D78   D(22,23,25,27)          2.4689         calculate D2E/DX2 analytically  !
 ! D79   D(22,23,25,34)       -174.9924         calculate D2E/DX2 analytically  !
 ! D80   D(32,23,25,27)        174.6858         calculate D2E/DX2 analytically  !
 ! D81   D(32,23,25,34)         -2.7755         calculate D2E/DX2 analytically  !
 ! D82   D(22,24,26,27)          0.9872         calculate D2E/DX2 analytically  !
 ! D83   D(22,24,26,35)        178.1527         calculate D2E/DX2 analytically  !
 ! D84   D(33,24,26,27)       -177.2536         calculate D2E/DX2 analytically  !
 ! D85   D(33,24,26,35)         -0.0881         calculate D2E/DX2 analytically  !
 ! D86   D(23,25,27,26)         -0.1569         calculate D2E/DX2 analytically  !
 ! D87   D(23,25,27,36)       -178.1813         calculate D2E/DX2 analytically  !
 ! D88   D(34,25,27,26)        177.2457         calculate D2E/DX2 analytically  !
 ! D89   D(34,25,27,36)         -0.7787         calculate D2E/DX2 analytically  !
 ! D90   D(24,26,27,25)         -1.5512         calculate D2E/DX2 analytically  !
 ! D91   D(24,26,27,36)        176.4692         calculate D2E/DX2 analytically  !
 ! D92   D(35,26,27,25)       -178.6937         calculate D2E/DX2 analytically  !
 ! D93   D(35,26,27,36)         -0.6733         calculate D2E/DX2 analytically  !
 ! D94   D(19,37,38,39)        -86.0648         calculate D2E/DX2 analytically  !
 ! D95   D(19,37,38,41)        153.2201         calculate D2E/DX2 analytically  !
 ! D96   D(19,37,38,46)         31.3786         calculate D2E/DX2 analytically  !
 ! D97   D(45,37,38,39)         90.6157         calculate D2E/DX2 analytically  !
 ! D98   D(45,37,38,41)        -30.0994         calculate D2E/DX2 analytically  !
 ! D99   D(45,37,38,46)       -151.9409         calculate D2E/DX2 analytically  !
 ! D100  D(37,38,39,40)        165.8441         calculate D2E/DX2 analytically  !
 ! D101  D(37,38,39,51)        -19.6978         calculate D2E/DX2 analytically  !
 ! D102  D(41,38,39,40)        -71.2171         calculate D2E/DX2 analytically  !
 ! D103  D(41,38,39,51)        103.2411         calculate D2E/DX2 analytically  !
 ! D104  D(46,38,39,40)         45.8495         calculate D2E/DX2 analytically  !
 ! D105  D(46,38,39,51)       -139.6924         calculate D2E/DX2 analytically  !
 ! D106  D(37,38,41,42)         76.5337         calculate D2E/DX2 analytically  !
 ! D107  D(37,38,41,47)        -39.3326         calculate D2E/DX2 analytically  !
 ! D108  D(37,38,41,48)       -162.4691         calculate D2E/DX2 analytically  !
 ! D109  D(39,38,41,42)        -48.4269         calculate D2E/DX2 analytically  !
 ! D110  D(39,38,41,47)       -164.2932         calculate D2E/DX2 analytically  !
 ! D111  D(39,38,41,48)         72.5703         calculate D2E/DX2 analytically  !
 ! D112  D(46,38,41,42)       -162.023          calculate D2E/DX2 analytically  !
 ! D113  D(46,38,41,47)         82.1107         calculate D2E/DX2 analytically  !
 ! D114  D(46,38,41,48)        -41.0258         calculate D2E/DX2 analytically  !
 ! D115  D(38,39,51,52)       -179.678          calculate D2E/DX2 analytically  !
 ! D116  D(38,39,51,63)         15.5157         calculate D2E/DX2 analytically  !
 ! D117  D(40,39,51,52)         -5.4944         calculate D2E/DX2 analytically  !
 ! D118  D(40,39,51,63)       -170.3008         calculate D2E/DX2 analytically  !
 ! D119  D(38,41,42,43)        105.3212         calculate D2E/DX2 analytically  !
 ! D120  D(38,41,42,44)        -71.6878         calculate D2E/DX2 analytically  !
 ! D121  D(47,41,42,43)       -136.3255         calculate D2E/DX2 analytically  !
 ! D122  D(47,41,42,44)         46.6654         calculate D2E/DX2 analytically  !
 ! D123  D(48,41,42,43)        -15.8762         calculate D2E/DX2 analytically  !
 ! D124  D(48,41,42,44)        167.1147         calculate D2E/DX2 analytically  !
 ! D125  D(41,42,43,49)       -167.738          calculate D2E/DX2 analytically  !
 ! D126  D(41,42,43,50)        -24.2603         calculate D2E/DX2 analytically  !
 ! D127  D(44,42,43,49)          9.0933         calculate D2E/DX2 analytically  !
 ! D128  D(44,42,43,50)        152.571          calculate D2E/DX2 analytically  !
 ! D129  D(39,51,52,53)       -104.6645         calculate D2E/DX2 analytically  !
 ! D130  D(39,51,52,55)        128.1442         calculate D2E/DX2 analytically  !
 ! D131  D(39,51,52,64)          8.2299         calculate D2E/DX2 analytically  !
 ! D132  D(63,51,52,53)         60.609          calculate D2E/DX2 analytically  !
 ! D133  D(63,51,52,55)        -66.5823         calculate D2E/DX2 analytically  !
 ! D134  D(63,51,52,64)        173.5034         calculate D2E/DX2 analytically  !
 ! D135  D(51,52,53,54)        -59.2067         calculate D2E/DX2 analytically  !
 ! D136  D(51,52,53,62)        123.1949         calculate D2E/DX2 analytically  !
 ! D137  D(55,52,53,54)         70.7888         calculate D2E/DX2 analytically  !
 ! D138  D(55,52,53,62)       -106.8096         calculate D2E/DX2 analytically  !
 ! D139  D(64,52,53,54)       -171.745          calculate D2E/DX2 analytically  !
 ! D140  D(64,52,53,62)         10.6565         calculate D2E/DX2 analytically  !
 ! D141  D(51,52,55,56)          3.5735         calculate D2E/DX2 analytically  !
 ! D142  D(51,52,55,65)        127.6757         calculate D2E/DX2 analytically  !
 ! D143  D(51,52,55,66)       -119.015          calculate D2E/DX2 analytically  !
 ! D144  D(53,52,55,56)       -123.5511         calculate D2E/DX2 analytically  !
 ! D145  D(53,52,55,65)          0.5511         calculate D2E/DX2 analytically  !
 ! D146  D(53,52,55,66)        113.8604         calculate D2E/DX2 analytically  !
 ! D147  D(64,52,55,56)        121.2086         calculate D2E/DX2 analytically  !
 ! D148  D(64,52,55,65)       -114.6892         calculate D2E/DX2 analytically  !
 ! D149  D(64,52,55,66)         -1.3798         calculate D2E/DX2 analytically  !
 ! D150  D(52,55,56,57)         91.776          calculate D2E/DX2 analytically  !
 ! D151  D(52,55,56,67)       -148.2693         calculate D2E/DX2 analytically  !
 ! D152  D(52,55,56,68)        -31.1239         calculate D2E/DX2 analytically  !
 ! D153  D(65,55,56,57)        -31.6716         calculate D2E/DX2 analytically  !
 ! D154  D(65,55,56,67)         88.2831         calculate D2E/DX2 analytically  !
 ! D155  D(65,55,56,68)       -154.5714         calculate D2E/DX2 analytically  !
 ! D156  D(66,55,56,57)       -146.8511         calculate D2E/DX2 analytically  !
 ! D157  D(66,55,56,67)        -26.8964         calculate D2E/DX2 analytically  !
 ! D158  D(66,55,56,68)         90.249          calculate D2E/DX2 analytically  !
 ! D159  D(55,56,57,58)        -52.3232         calculate D2E/DX2 analytically  !
 ! D160  D(55,56,57,69)         65.904          calculate D2E/DX2 analytically  !
 ! D161  D(55,56,57,70)       -176.2971         calculate D2E/DX2 analytically  !
 ! D162  D(67,56,57,58)       -172.9991         calculate D2E/DX2 analytically  !
 ! D163  D(67,56,57,69)        -54.7718         calculate D2E/DX2 analytically  !
 ! D164  D(67,56,57,70)         63.027          calculate D2E/DX2 analytically  !
 ! D165  D(68,56,57,58)         72.3796         calculate D2E/DX2 analytically  !
 ! D166  D(68,56,57,69)       -169.3932         calculate D2E/DX2 analytically  !
 ! D167  D(68,56,57,70)        -51.5943         calculate D2E/DX2 analytically  !
 ! D168  D(56,57,58,59)        -85.78           calculate D2E/DX2 analytically  !
 ! D169  D(56,57,58,71)         73.1256         calculate D2E/DX2 analytically  !
 ! D170  D(69,57,58,59)        153.9557         calculate D2E/DX2 analytically  !
 ! D171  D(69,57,58,71)        -47.1387         calculate D2E/DX2 analytically  !
 ! D172  D(70,57,58,59)         39.0815         calculate D2E/DX2 analytically  !
 ! D173  D(70,57,58,71)       -162.0129         calculate D2E/DX2 analytically  !
 ! D174  D(57,58,59,60)        -11.9941         calculate D2E/DX2 analytically  !
 ! D175  D(57,58,59,61)        172.7377         calculate D2E/DX2 analytically  !
 ! D176  D(71,58,59,60)       -170.9739         calculate D2E/DX2 analytically  !
 ! D177  D(71,58,59,61)         13.7579         calculate D2E/DX2 analytically  !
 ! D178  D(58,59,60,72)        174.8597         calculate D2E/DX2 analytically  !
 ! D179  D(58,59,60,73)         24.1998         calculate D2E/DX2 analytically  !
 ! D180  D(61,59,60,72)        -10.019          calculate D2E/DX2 analytically  !
 ! D181  D(61,59,60,73)       -160.6789         calculate D2E/DX2 analytically  !
 ! D182  D(58,59,61,74)       -175.048          calculate D2E/DX2 analytically  !
 ! D183  D(58,59,61,75)        -19.6787         calculate D2E/DX2 analytically  !
 ! D184  D(60,59,61,74)          9.6564         calculate D2E/DX2 analytically  !
 ! D185  D(60,59,61,75)        165.0257         calculate D2E/DX2 analytically  !
 --------------------------------------------------------------------------------
 Trust Radius=3.00D-01 FncErr=1.00D-07 GrdErr=1.00D-06 EigMax=2.50D+02 EigMin=1.00D-04
 Number of steps in this run=    399 maximum allowed number of steps=    450.
 GradGradGradGradGradGradGradGradGradGradGradGradGradGradGradGradGradGrad

 Symmetry turned off by external request.
 Stoichiometry    C23H36N9O7(1+)
 Framework group  C1[X(C23H36N9O7)]
 Deg. of freedom   219
 Full point group                 C1      NOp   1
                          Input orientation:                          
 ---------------------------------------------------------------------
 Center     Atomic      Atomic             Coordinates (Angstroms)
 Number     Number       Type             X           Y           Z
 ---------------------------------------------------------------------
      1          7           0       -8.589372   -2.792144   -5.220459
      2          6           0       -8.161886   -1.389225   -5.110013
      3          6           0       -8.666893   -0.610211   -6.337425
      4          8           0       -9.899759   -0.380387   -6.441444
      5          6           0       -6.666535   -1.216308   -4.878635
      6          6           0       -6.299967   -1.725440   -3.508272
      7          7           0       -5.398607   -2.734002   -3.478356
      8          8           0       -6.792233   -1.215686   -2.514207
      9          1           0       -7.787398   -3.358073   -5.526419
     10          1           0       -8.677401   -0.926087   -4.262280
     11          1           0       -6.076679   -1.678656   -5.663819
     12          1           0       -6.463022   -0.133938   -4.857098
     13          1           0       -5.201360   -3.130968   -2.575076
     14          1           0       -5.250634   -3.284558   -4.311851
     15          1           0       -8.890601   -3.141733   -4.310636
     16          1           0       -9.343705   -2.938741   -5.904804
     17          7           0       -7.722860   -0.213195   -7.259709
     18          6           0       -8.039267    0.839456   -8.213847
     19          6           0       -7.633095    0.368954   -9.620497
     20          8           0       -6.734634    0.903281  -10.266204
     21          6           0       -7.397011    2.198470   -7.833963
     22          6           0       -7.232248    2.388003   -6.340774
     23          6           0       -8.323980    2.317020   -5.478165
     24          6           0       -5.958812    2.528572   -5.793803
     25          6           0       -8.134791    2.323081   -4.095734
     26          6           0       -5.768360    2.570938   -4.416179
     27          6           0       -6.857404    2.451635   -3.562300
     28          1           0       -6.750990   -0.305984   -7.022924
     29          1           0       -9.125613    0.932214   -8.198922
     30          1           0       -6.415059    2.293226   -8.297705
     31          1           0       -8.025114    2.979660   -8.268724
     32          1           0       -9.318877    2.128418   -5.884578
     33          1           0       -5.102853    2.577028   -6.457314
     34          1           0       -8.996282    2.184020   -3.452299
     35          1           0       -4.763898    2.650747   -4.016556
     36          1           0       -6.710768    2.426335   -2.487017
     37          7           0       -8.264783   -0.710448  -10.123896
     38          6           0       -9.241784   -1.579661   -9.519043
     39          6           0       -8.640371   -2.724926   -8.701729
     40          8           0       -9.379708   -3.353390   -7.939509
     41          6           0      -10.144937   -2.222760  -10.592268
     42          6           0       -9.345779   -3.342496  -11.268570
     43          7           0       -9.724848   -4.606269  -10.891638
     44          8           0       -8.406064   -3.069150  -12.038499
     45          1           0       -7.944844   -0.936407  -11.052904
     46          1           0       -9.845328   -1.012011   -8.809473
     47          1           0      -10.380329   -1.500465  -11.368638
     48          1           0      -11.052752   -2.620312  -10.144963
     49          1           0       -9.066946   -5.310085  -11.190034
     50          1           0      -10.176354   -4.720065   -9.996530
     51          7           0       -7.351729   -3.072526   -8.934382
     52          6           0       -6.780545   -4.155677   -8.172686
     53          6           0       -5.809149   -3.603229   -7.066645
     54          8           0       -4.834438   -2.919964   -7.428022
     55          6           0       -6.096058   -5.275219   -8.995172
     56          6           0       -6.025491   -5.068905  -10.519183
     57          6           0       -4.751190   -4.380070  -10.993050
     58          7           0       -4.487270   -3.134428  -10.286696
     59          6           0       -4.951371   -1.909181  -10.560397
     60          7           0       -5.572402   -1.640750  -11.718809
     61          7           0       -4.692668   -0.943384   -9.688750
     62          8           0       -6.102309   -3.958550   -5.905709
     63          1           0       -6.729451   -2.466885   -9.443909
     64          1           0       -7.621184   -4.583407   -7.627804
     65          1           0       -5.085905   -5.424742   -8.598112
     66          1           0       -6.636882   -6.204953   -8.780859
     67          1           0       -6.073556   -6.046059  -11.009885
     68          1           0       -6.872820   -4.500398  -10.883212
     69          1           0       -3.890425   -5.026219  -10.804834
     70          1           0       -4.774065   -4.196216  -12.073046
     71          1           0       -4.167952   -3.252514   -9.328568
     72          1           0       -5.967467   -0.720273  -11.829260
     73          1           0       -6.017990   -2.387486  -12.226615
     74          1           0       -5.103163   -0.038106   -9.850911
     75          1           0       -4.438766   -1.196160   -8.744200
 ---------------------------------------------------------------------
 Rotational constants (GHZ):           0.1482226           0.0814972           0.0733911
 Standard basis: 6-31G(d) (6D, 7F)
   657 basis functions,  1236 primitive gaussians,   657 cartesian basis functions
   146 alpha electrons      146 beta electrons
       nuclear repulsion energy      5293.0242573250 Hartrees.
 NAtoms=   75 NActive=   75 NUniq=   75 SFac= 1.00D+00 NAtFMM=   60 NAOKFM=T Big=T
 Integral buffers will be    131072 words long.
 Raffenetti 2 integral format.
 Two-electron integral symmetry is turned off.
 Nuclear repulsion after empirical dispersion term =     5292.8895993931 Hartrees.
 One-electron integrals computed using PRISM.
 NBasis=   657 RedAO= T EigKep=  4.52D-04  NBF=   657
 NBsUse=   657 1.00D-06 EigRej= -1.00D+00 NBFU=   657
 ExpMin= 1.61D-01 ExpMax= 5.48D+03 ExpMxC= 8.25D+02 IAcc=3 IRadAn=         5 AccDes= 0.00D+00
 Harris functional with IExCor=  402 and IRadAn=       5 diagonalized for initial guess.
 HarFok:  IExCor=  402 AccDes= 0.00D+00 IRadAn=         5 IDoV= 1 UseB2=F ITyADJ=14
 ICtDFT=  3500011 ScaDFX=  1.000000  1.000000  1.000000  1.000000
 FoFCou: FMM=F IPFlag=           0 FMFlag=      100000 FMFlg1=        2001
         NFxFlg=           0 DoJE=T BraDBF=F KetDBF=T FulRan=T
         wScrn=  0.000000 ICntrl=       500 IOpCl=  0 I1Cent=   200000004 NGrid=           0
         NMat0=    1 NMatS0=      1 NMatT0=    0 NMatD0=    1 NMtDS0=    0 NMtDT0=    0
 Symmetry not used in FoFCou.
 Requested convergence on RMS density matrix=1.00D-08 within 128 cycles.
 Requested convergence on MAX density matrix=1.00D-06.
 Requested convergence on             energy=1.00D-06.
 No special actions if energy rises.
 Integral accuracy reduced to 1.0D-05 until final iterations.
 Initial convergence to 1.0D-05 achieved.  Increase integral accuracy.
 SCF Done:  E(RB3LYP) =  -1917.49168398     A.U. after   15 cycles
            NFock= 15  Conv=0.85D-08     -V/T= 2.0089
 DoSCS=F DFT=T ScalE2(SS,OS)=  1.000000  1.000000
 Range of M.O.s used for correlation:     1   657
 NBasis=   657 NAE=   146 NBE=   146 NFC=     0 NFV=     0
 NROrb=    657 NOA=   146 NOB=   146 NVA=   511 NVB=   511
 Symmetrizing basis deriv contribution to polar:
 IMax=3 JMax=2 DiffMx= 0.00D+00
 G2DrvN: will do    76 centers at a time, making    1 passes.
 Calling FoFCou, ICntrl=  3107 FMM=T I1Cent=   0 AccDes= 0.00D+00.
 End of G2Drv F.D. properties file   721 does not exist.
 End of G2Drv F.D. properties file   722 does not exist.
 End of G2Drv F.D. properties file   788 does not exist.
          IDoAtm=11111111111111111111111111111111111111111111111111
          IDoAtm=1111111111111111111111111
          Differentiating once with respect to nuclear coordinates.
 CalDSu exits because no D1Ps are significant.
          There are   228 degrees of freedom in the 1st order CPHF.  IDoFFX=6 NUNeed=     0.
    222 vectors produced by pass  0 Test12= 7.46D-14 1.00D-09 XBig12= 1.87D-01 1.20D-01.
 AX will form    72 AO Fock derivatives at one time.
    222 vectors produced by pass  1 Test12= 7.46D-14 1.00D-09 XBig12= 5.76D-02 4.86D-02.
    222 vectors produced by pass  2 Test12= 7.46D-14 1.00D-09 XBig12= 3.76D-04 1.60D-03.
    222 vectors produced by pass  3 Test12= 7.46D-14 1.00D-09 XBig12= 1.37D-06 9.69D-05.
    222 vectors produced by pass  4 Test12= 7.46D-14 1.00D-09 XBig12= 2.09D-09 3.60D-06.
    175 vectors produced by pass  5 Test12= 7.46D-14 1.00D-09 XBig12= 2.08D-12 1.48D-07.
      8 vectors produced by pass  6 Test12= 7.46D-14 1.00D-09 XBig12= 2.11D-15 3.26D-09.
 InvSVY:  IOpt=1 It=  1 EMax= 7.77D-16
 Solved reduced A of dimension  1293 with   228 vectors.
 End of Minotr F.D. properties file   721 does not exist.
 End of Minotr F.D. properties file   722 does not exist.
 End of Minotr F.D. properties file   788 does not exist.

 **********************************************************************

            Population analysis using the SCF Density.

 **********************************************************************

 Alpha  occ. eigenvalues --  -19.25966 -19.25406 -19.25354 -19.25025 -19.21615
 Alpha  occ. eigenvalues --  -19.21450 -19.19647 -14.57183 -14.50827 -14.50236
 Alpha  occ. eigenvalues --  -14.50205 -14.49885 -14.49752 -14.49427 -14.48105
 Alpha  occ. eigenvalues --  -14.42855 -10.46877 -10.42989 -10.42916 -10.42341
 Alpha  occ. eigenvalues --  -10.42167 -10.38992 -10.38119 -10.37479 -10.37263
 Alpha  occ. eigenvalues --  -10.36136 -10.35284 -10.33122 -10.32526 -10.30481
 Alpha  occ. eigenvalues --  -10.30372 -10.30344 -10.29749 -10.28808 -10.27750
 Alpha  occ. eigenvalues --  -10.27556 -10.27491 -10.27470 -10.27218  -1.18599
 Alpha  occ. eigenvalues --   -1.17659  -1.16298  -1.16163  -1.15541  -1.15354
 Alpha  occ. eigenvalues --   -1.13063  -1.11825  -1.07708  -1.06719  -1.06186
 Alpha  occ. eigenvalues --   -1.05501  -1.05155  -1.04242  -1.03177  -0.98564
 Alpha  occ. eigenvalues --   -0.94928  -0.92608  -0.92012  -0.91211  -0.88802
 Alpha  occ. eigenvalues --   -0.86397  -0.84451  -0.83283  -0.81711  -0.80588
 Alpha  occ. eigenvalues --   -0.79758  -0.77544  -0.77085  -0.74122  -0.73868
 Alpha  occ. eigenvalues --   -0.73010  -0.72284  -0.71827  -0.71470  -0.70915
 Alpha  occ. eigenvalues --   -0.70279  -0.69355  -0.68984  -0.68384  -0.67434
 Alpha  occ. eigenvalues --   -0.66958  -0.66126  -0.65235  -0.64467  -0.64035
 Alpha  occ. eigenvalues --   -0.63621  -0.63267  -0.62364  -0.61321  -0.60601
 Alpha  occ. eigenvalues --   -0.60099  -0.59784  -0.59712  -0.59443  -0.58732
 Alpha  occ. eigenvalues --   -0.58244  -0.57595  -0.56823  -0.56455  -0.56017
 Alpha  occ. eigenvalues --   -0.55925  -0.55173  -0.54807  -0.54051  -0.53833
 Alpha  occ. eigenvalues --   -0.53754  -0.53539  -0.52973  -0.52734  -0.52465
 Alpha  occ. eigenvalues --   -0.51819  -0.51698  -0.51534  -0.51002  -0.50592
 Alpha  occ. eigenvalues --   -0.50330  -0.49532  -0.49391  -0.49283  -0.49002
 Alpha  occ. eigenvalues --   -0.47890  -0.46833  -0.46518  -0.46383  -0.45997
 Alpha  occ. eigenvalues --   -0.45835  -0.44455  -0.42787  -0.42776  -0.42588
 Alpha  occ. eigenvalues --   -0.41963  -0.41302  -0.40685  -0.40129  -0.39382
 Alpha  occ. eigenvalues --   -0.38888  -0.38401  -0.38320  -0.37745  -0.37462
 Alpha  occ. eigenvalues --   -0.35813  -0.35159  -0.34105  -0.34003  -0.33755
 Alpha  occ. eigenvalues --   -0.33321
 Alpha virt. eigenvalues --   -0.13718  -0.12709  -0.12530  -0.11777  -0.10953
 Alpha virt. eigenvalues --   -0.09231  -0.08908  -0.07313  -0.06633  -0.05851
 Alpha virt. eigenvalues --   -0.05690  -0.03881  -0.03617  -0.01999  -0.01558
 Alpha virt. eigenvalues --   -0.01155  -0.00592  -0.00387   0.00340   0.00936
 Alpha virt. eigenvalues --    0.01386   0.01651   0.02194   0.02507   0.02963
 Alpha virt. eigenvalues --    0.03022   0.03482   0.03990   0.04277   0.04443
 Alpha virt. eigenvalues --    0.04634   0.04737   0.05088   0.05734   0.06125
 Alpha virt. eigenvalues --    0.06593   0.06619   0.07009   0.07394   0.07508
 Alpha virt. eigenvalues --    0.08084   0.08486   0.08830   0.09306   0.09458
 Alpha virt. eigenvalues --    0.10002   0.10633   0.10723   0.11476   0.11603
 Alpha virt. eigenvalues --    0.12346   0.12639   0.13095   0.13257   0.13735
 Alpha virt. eigenvalues --    0.14100   0.14623   0.14912   0.15073   0.15944
 Alpha virt. eigenvalues --    0.16582   0.16994   0.18348   0.18641   0.18981
 Alpha virt. eigenvalues --    0.20934   0.22408   0.22505   0.23032   0.23248
 Alpha virt. eigenvalues --    0.23640   0.23979   0.24652   0.25480   0.26159
 Alpha virt. eigenvalues --    0.26904   0.27703   0.27831   0.28928   0.30372
 Alpha virt. eigenvalues --    0.31084   0.31707   0.33995   0.35364   0.36208
 Alpha virt. eigenvalues --    0.37007   0.37547   0.38050   0.39012   0.39366
 Alpha virt. eigenvalues --    0.39806   0.40833   0.41775   0.42503   0.42700
 Alpha virt. eigenvalues --    0.43349   0.43536   0.44255   0.44444   0.44880
 Alpha virt. eigenvalues --    0.45881   0.46537   0.46657   0.46918   0.47108
 Alpha virt. eigenvalues --    0.47508   0.47848   0.48114   0.48423   0.48800
 Alpha virt. eigenvalues --    0.49442   0.49713   0.50211   0.50847   0.51626
 Alpha virt. eigenvalues --    0.52097   0.52327   0.52725   0.52848   0.53054
 Alpha virt. eigenvalues --    0.53123   0.53384   0.54042   0.54166   0.54520
 Alpha virt. eigenvalues --    0.54583   0.55254   0.55718   0.55833   0.56292
 Alpha virt. eigenvalues --    0.56872   0.57967   0.58135   0.58741   0.58853
 Alpha virt. eigenvalues --    0.59234   0.59748   0.60190   0.60469   0.61217
 Alpha virt. eigenvalues --    0.61564   0.62998   0.63354   0.63831   0.64433
 Alpha virt. eigenvalues --    0.65413   0.65584   0.65873   0.66504   0.66741
 Alpha virt. eigenvalues --    0.67405   0.68634   0.68821   0.69477   0.69506
 Alpha virt. eigenvalues --    0.70357   0.70746   0.71195   0.71295   0.72034
 Alpha virt. eigenvalues --    0.72385   0.72829   0.73004   0.74261   0.74630
 Alpha virt. eigenvalues --    0.75251   0.75632   0.75835   0.75944   0.76128
 Alpha virt. eigenvalues --    0.76464   0.77163   0.77320   0.77733   0.78172
 Alpha virt. eigenvalues --    0.78260   0.78975   0.79279   0.79305   0.80041
 Alpha virt. eigenvalues --    0.80473   0.80670   0.80856   0.81290   0.81541
 Alpha virt. eigenvalues --    0.82373   0.82915   0.83116   0.83382   0.84318
 Alpha virt. eigenvalues --    0.84724   0.85441   0.85929   0.86613   0.87244
 Alpha virt. eigenvalues --    0.87712   0.88238   0.88686   0.89635   0.89687
 Alpha virt. eigenvalues --    0.90036   0.90467   0.91358   0.92112   0.92253
 Alpha virt. eigenvalues --    0.92980   0.94205   0.94445   0.95064   0.95531
 Alpha virt. eigenvalues --    0.96065   0.96731   0.97446   0.97907   0.98421
 Alpha virt. eigenvalues --    0.99172   1.00031   1.00688   1.01544   1.02219
 Alpha virt. eigenvalues --    1.02527   1.03595   1.04001   1.04405   1.04854
 Alpha virt. eigenvalues --    1.05427   1.06501   1.07227   1.07650   1.08431
 Alpha virt. eigenvalues --    1.08626   1.09737   1.10193   1.10786   1.11498
 Alpha virt. eigenvalues --    1.11643   1.13014   1.13616   1.14572   1.15537
 Alpha virt. eigenvalues --    1.16355   1.16755   1.17217   1.17609   1.18519
 Alpha virt. eigenvalues --    1.19832   1.20166   1.21786   1.21959   1.23106
 Alpha virt. eigenvalues --    1.24612   1.25843   1.26081   1.27262   1.28075
 Alpha virt. eigenvalues --    1.28351   1.29278   1.29773   1.30558   1.31415
 Alpha virt. eigenvalues --    1.32210   1.32482   1.33044   1.33977   1.34446
 Alpha virt. eigenvalues --    1.35862   1.35998   1.36868   1.36971   1.37465
 Alpha virt. eigenvalues --    1.38174   1.38742   1.39491   1.40013   1.40855
 Alpha virt. eigenvalues --    1.41338   1.41827   1.42617   1.43706   1.44030
 Alpha virt. eigenvalues --    1.46298   1.47211   1.47786   1.48920   1.50299
 Alpha virt. eigenvalues --    1.51191   1.52690   1.53271   1.54343   1.55210
 Alpha virt. eigenvalues --    1.56037   1.57419   1.58105   1.58692   1.59676
 Alpha virt. eigenvalues --    1.60268   1.61083   1.61306   1.62130   1.63018
 Alpha virt. eigenvalues --    1.63855   1.64137   1.64222   1.65360   1.66018
 Alpha virt. eigenvalues --    1.66731   1.67154   1.67373   1.68925   1.69529
 Alpha virt. eigenvalues --    1.69970   1.70413   1.71268   1.71612   1.72695
 Alpha virt. eigenvalues --    1.73086   1.73527   1.74389   1.74578   1.74936
 Alpha virt. eigenvalues --    1.75354   1.76355   1.76624   1.77509   1.77739
 Alpha virt. eigenvalues --    1.78279   1.78440   1.79301   1.79376   1.79908
 Alpha virt. eigenvalues --    1.80312   1.80805   1.81358   1.82202   1.82440
 Alpha virt. eigenvalues --    1.83251   1.83733   1.84900   1.85562   1.86767
 Alpha virt. eigenvalues --    1.87201   1.87550   1.87935   1.88333   1.88857
 Alpha virt. eigenvalues --    1.89908   1.90145   1.91108   1.91800   1.92921
 Alpha virt. eigenvalues --    1.93081   1.93635   1.94406   1.95086   1.95298
 Alpha virt. eigenvalues --    1.96248   1.96978   1.97437   1.97598   1.98424
 Alpha virt. eigenvalues --    2.00043   2.00594   2.01175   2.01525   2.01688
 Alpha virt. eigenvalues --    2.02312   2.03424   2.05225   2.06423   2.06950
 Alpha virt. eigenvalues --    2.07754   2.08108   2.08274   2.09991   2.10210
 Alpha virt. eigenvalues --    2.10534   2.11168   2.12020   2.13238   2.13773
 Alpha virt. eigenvalues --    2.14915   2.15050   2.16779   2.17381   2.18998
 Alpha virt. eigenvalues --    2.19553   2.20322   2.20611   2.20959   2.21675
 Alpha virt. eigenvalues --    2.22732   2.23038   2.23582   2.24483   2.24865
 Alpha virt. eigenvalues --    2.25198   2.26388   2.27473   2.28714   2.28937
 Alpha virt. eigenvalues --    2.29153   2.29953   2.31796   2.32652   2.33765
 Alpha virt. eigenvalues --    2.34418   2.35070   2.35529   2.35826   2.37032
 Alpha virt. eigenvalues --    2.38465   2.39925   2.40580   2.42215   2.42750
 Alpha virt. eigenvalues --    2.44302   2.45825   2.46154   2.47445   2.48359
 Alpha virt. eigenvalues --    2.48748   2.49092   2.50181   2.50268   2.50943
 Alpha virt. eigenvalues --    2.51691   2.52283   2.52727   2.54916   2.55345
 Alpha virt. eigenvalues --    2.55821   2.56413   2.57439   2.59103   2.59321
 Alpha virt. eigenvalues --    2.59874   2.60464   2.61201   2.64071   2.64143
 Alpha virt. eigenvalues --    2.64471   2.65725   2.66593   2.67036   2.67703
 Alpha virt. eigenvalues --    2.68384   2.70288   2.71745   2.73285   2.75916
 Alpha virt. eigenvalues --    2.76359   2.80842   2.83988   2.84421   2.86353
 Alpha virt. eigenvalues --    2.87791   2.88240   2.90550   2.90737   2.91230
 Alpha virt. eigenvalues --    2.91983   2.92121   2.93351   2.94681   2.98054
 Alpha virt. eigenvalues --    2.98340   2.98841   3.01546   3.02923   3.06057
 Alpha virt. eigenvalues --    3.09117   3.33862   3.71978   3.74475   3.74676
 Alpha virt. eigenvalues --    3.79784   3.81588   3.86783   3.89336   3.94985
 Alpha virt. eigenvalues --    3.96710   3.97090   3.98751   4.02157   4.04448
 Alpha virt. eigenvalues --    4.05916   4.07363   4.09364   4.11505   4.13133
 Alpha virt. eigenvalues --    4.14779   4.18361   4.18827   4.22807   4.25811
 Alpha virt. eigenvalues --    4.29045   4.30967   4.32228   4.33212   4.34268
 Alpha virt. eigenvalues --    4.36416   4.37479   4.42949   4.46664   4.49345
 Alpha virt. eigenvalues --    4.52648   4.57770   4.59598   4.66485   4.67923
 Alpha virt. eigenvalues --    4.71457
          Condensed to atoms (all electrons):
 Mulliken charges:
               1
     1  N   -0.784019
     2  C   -0.087248
     3  C    0.602246
     4  O   -0.518639
     5  C   -0.448298
     6  C    0.561601
     7  N   -0.745569
     8  O   -0.507432
     9  H    0.440643
    10  H    0.249416
    11  H    0.198930
    12  H    0.224934
    13  H    0.345939
    14  H    0.381670
    15  H    0.416698
    16  H    0.439798
    17  N   -0.607057
    18  C   -0.077652
    19  C    0.608092
    20  O   -0.541828
    21  C   -0.375182
    22  C    0.160526
    23  C   -0.201850
    24  C   -0.205181
    25  C   -0.141909
    26  C   -0.131306
    27  C   -0.117688
    28  H    0.357939
    29  H    0.218693
    30  H    0.174074
    31  H    0.191149
    32  H    0.151895
    33  H    0.131952
    34  H    0.154251
    35  H    0.154896
    36  H    0.164435
    37  N   -0.606994
    38  C   -0.063676
    39  C    0.609799
    40  O   -0.582565
    41  C   -0.362039
    42  C    0.566239
    43  N   -0.703721
    44  O   -0.541371
    45  H    0.351849
    46  H    0.224897
    47  H    0.211136
    48  H    0.199510
    49  H    0.354872
    50  H    0.369110
    51  N   -0.606411
    52  C   -0.052000
    53  C    0.605052
    54  O   -0.599032
    55  C   -0.321819
    56  C   -0.301699
    57  C   -0.186349
    58  N   -0.564489
    59  C    0.671497
    60  N   -0.746429
    61  N   -0.759324
    62  O   -0.582245
    63  H    0.371497
    64  H    0.178255
    65  H    0.171910
    66  H    0.173442
    67  H    0.170579
    68  H    0.173900
    69  H    0.198661
    70  H    0.181637
    71  H    0.388392
    72  H    0.375981
    73  H    0.397065
    74  H    0.400485
    75  H    0.395482
 Sum of Mulliken charges =   1.00000
 Mulliken charges with hydrogens summed into heavy atoms:
               1
     1  N    0.513120
     2  C    0.162168
     3  C    0.602246
     4  O   -0.518639
     5  C   -0.024434
     6  C    0.561601
     7  N   -0.017960
     8  O   -0.507432
    17  N   -0.249118
    18  C    0.141042
    19  C    0.608092
    20  O   -0.541828
    21  C   -0.009958
    22  C    0.160526
    23  C   -0.049955
    24  C   -0.073230
    25  C    0.012343
    26  C    0.023591
    27  C    0.046747
    37  N   -0.255145
    38  C    0.161221
    39  C    0.609799
    40  O   -0.582565
    41  C    0.048608
    42  C    0.566239
    43  N    0.020262
    44  O   -0.541371
    51  N   -0.234914
    52  C    0.126255
    53  C    0.605052
    54  O   -0.599032
    55  C    0.023532
    56  C    0.042780
    57  C    0.193948
    58  N   -0.176097
    59  C    0.671497
    60  N    0.026616
    61  N    0.036643
    62  O   -0.582245
 APT charges:
               1
     1  N   -1.985334
     2  C    0.047882
     3  C   -2.067546
     4  O    1.757382
     5  C    0.027452
     6  C    0.628345
     7  N   -1.126161
     8  O   -0.756723
     9  H    0.102544
    10  H    0.236870
    11  H    0.273583
    12  H   -0.016605
    13  H   -0.056828
    14  H    0.916967
    15  H    0.343695
    16  H    1.985594
    17  N    1.351878
    18  C   -2.140306
    19  C   -0.313002
    20  O   -0.243352
    21  C   -1.126547
    22  C    1.201525
    23  C   -0.133823
    24  C   -0.807764
    25  C   -0.516316
    26  C   -0.811784
    27  C   -0.782874
    28  H   -0.933832
    29  H    1.534264
    30  H   -0.136107
    31  H    1.548148
    32  H    1.582484
    33  H    0.128665
    34  H    0.900365
    35  H   -0.677561
    36  H   -0.343016
    37  N   -0.682007
    38  C    0.211350
    39  C    0.691292
    40  O   -0.229296
    41  C   -2.984859
    42  C   -0.142271
    43  N    0.827928
    44  O   -0.148038
    45  H    1.420404
    46  H    0.197472
    47  H    1.594653
    48  H    1.109157
    49  H    0.473324
    50  H   -0.274584
    51  N   -0.797454
    52  C   -0.402335
    53  C    1.506626
    54  O   -1.356257
    55  C   -0.023340
    56  C   -2.998149
    57  C   -1.637155
    58  N    0.983216
    59  C    0.134815
    60  N   -1.404332
    61  N   -0.812331
    62  O   -1.165838
    63  H    0.205588
    64  H    0.526241
    65  H   -0.697111
    66  H    1.094369
    67  H    1.578951
    68  H    0.872256
    69  H    0.001725
    70  H    1.825940
    71  H   -0.938676
    72  H    0.975900
    73  H    2.204376
    74  H    0.827020
    75  H   -1.160731
 Sum of APT charges =   1.00000
 APT charges with hydrogens summed into heavy atoms:
               1
     1  N    0.446499
     2  C    0.284752
     3  C   -2.067546
     4  O    1.757382
     5  C    0.284430
     6  C    0.628345
     7  N   -0.266022
     8  O   -0.756723
    17  N    0.418047
    18  C   -0.606042
    19  C   -0.313002
    20  O   -0.243352
    21  C    0.285494
    22  C    1.201525
    23  C    1.448661
    24  C   -0.679099
    25  C    0.384049
    26  C   -1.489345
    27  C   -1.125890
    37  N    0.738397
    38  C    0.408821
    39  C    0.691292
    40  O   -0.229296
    41  C   -0.281049
    42  C   -0.142271
    43  N    1.026668
    44  O   -0.148038
    51  N   -0.591867
    52  C    0.123906
    53  C    1.506626
    54  O   -1.356257
    55  C    0.373919
    56  C   -0.546942
    57  C    0.190511
    58  N    0.044540
    59  C    0.134815
    60  N    1.775944
    61  N   -1.146042
    62  O   -1.165838
 Electronic spatial extent (au):  <R**2>=         135600.5044
 Charge=              1.0000 electrons
 Dipole moment (field-independent basis, Debye):
    X=            -35.4192    Y=            -12.4925    Z=            -42.5382  Tot=             56.7457
 Quadrupole moment (field-independent basis, Debye-Ang):
   XX=             55.7898   YY=           -163.8550   ZZ=            179.3678
   XY=             94.6782   XZ=            304.2133   YZ=            115.5806
 Traceless Quadrupole moment (field-independent basis, Debye-Ang):
   XX=             32.0223   YY=           -187.6225   ZZ=            155.6003
   XY=             94.6782   XZ=            304.2133   YZ=            115.5806
 Octapole moment (field-independent basis, Debye-Ang**2):
  XXX=           2500.3918  YYY=            665.3016  ZZZ=           1212.9755  XYY=           1170.6942
  XXY=           -447.7011  XXZ=           -607.9663  XZZ=          -1199.7882  YZZ=           -837.1272
  YYZ=           1201.6596  XYZ=           -815.9709
 Hexadecapole moment (field-independent basis, Debye-Ang**3):
 XXXX=         -53034.6754 YYYY=          -9038.8006 ZZZZ=         -50006.7635 XXXY=           -123.9845
 XXXZ=         -18297.7707 YYYX=          -4563.4113 YYYZ=          -6448.6043 ZZZX=         -10360.5296
 ZZZY=           2701.8583 XXYY=         -10400.4732 XXZZ=          -5958.0099 YYZZ=         -11486.8215
 XXYZ=           3189.1269 YYXZ=          -8779.4044 ZZXY=           5465.1247
 N-N= 5.292889599393D+03 E-N=-1.502283040991D+04  KE= 1.900550400186D+03
  Exact polarizability:       0.000       0.000       0.000       0.000       0.000       0.000
 Approx polarizability:     496.125      17.535     404.878     -32.533     -10.604     491.785
 Calling FoFJK, ICntrl=    100127 FMM=F ISym2X=0 I1Cent= 0 IOpClX= 0 NMat=1 NMatS=1 NMatT=0.
 -------------------------------------------------------------------
 Center     Atomic                   Forces (Hartrees/Bohr)
 Number     Number              X              Y              Z
 -------------------------------------------------------------------
      1        7          -0.009883232   -0.011060503    0.006448918
      2        6           0.004350037    0.039180749   -0.006005605
      3        6          -0.035447682    0.009882707   -0.005934345
      4        8           0.047179258   -0.011070667   -0.002568820
      5        6          -0.000487187    0.005682211   -0.002330876
      6        6           0.012325328   -0.007954055    0.008802823
      7        7          -0.003097657    0.005498652    0.002293233
      8        8          -0.008928754    0.005148649    0.007434180
      9        1           0.016475012   -0.015329449   -0.004825972
     10        1          -0.000869176   -0.002710858   -0.001133317
     11        1           0.003079823    0.000520593   -0.000916563
     12        1          -0.002028583   -0.003841852    0.000169816
     13        1           0.002180064   -0.002361224    0.004351252
     14        1           0.002640490   -0.005039552   -0.007356270
     15        1          -0.000550169   -0.003354248    0.002771568
     16        1          -0.002419842    0.001979658   -0.003870203
     17        7          -0.020101345   -0.004883769    0.006015947
     18        6          -0.000413889    0.003781676   -0.003497593
     19        6          -0.004716708    0.000222723    0.012388320
     20        8           0.010185646    0.007973407   -0.008421509
     21        6           0.001905360    0.002528868    0.002170832
     22        6          -0.002682843   -0.000568960   -0.006070820
     23        6          -0.007356829   -0.006326251    0.002495580
     24        6           0.004128384   -0.001006415   -0.003103056
     25        6          -0.007200743   -0.001259647   -0.003507539
     26        6           0.004549452   -0.000799292    0.000844990
     27        6           0.000466855   -0.000917041    0.007430429
     28        1           0.005129105   -0.002229116    0.003548100
     29        1          -0.001887175    0.000693193    0.001709736
     30        1           0.000643014   -0.001493234   -0.004593110
     31        1          -0.000234388    0.002372604   -0.001257400
     32        1           0.001763465    0.004063965    0.001875182
     33        1           0.002829392    0.000955572   -0.001098023
     34        1          -0.000305107    0.001977077    0.002664647
     35        1           0.001218539    0.001220382    0.001038611
     36        1          -0.000004258    0.000490970    0.000062203
     37        7           0.001536217   -0.000196002   -0.006384736
     38        6          -0.003980348    0.001229026    0.007365804
     39        6           0.010390891    0.005170338   -0.005066227
     40        8          -0.007790155   -0.001833981    0.007013900
     41        6           0.007989613   -0.008520280   -0.007415812
     42        6          -0.000221279    0.004706133   -0.000686847
     43        7           0.016829281    0.016789134   -0.014857928
     44        8          -0.012646369   -0.008459107    0.010691646
     45        1          -0.003839027   -0.007799664   -0.005692351
     46        1          -0.003534041    0.000060443   -0.000908826
     47        1          -0.004921209    0.005319453   -0.000073143
     48        1          -0.002769109    0.002973296    0.002415199
     49        1          -0.001660720   -0.009678866    0.001662471
     50        1          -0.002816947   -0.002913716    0.001642753
     51        7          -0.011067681    0.000730231    0.004827915
     52        6           0.007702390   -0.003907742    0.018180152
     53        6          -0.008701141   -0.015230126   -0.024139531
     54        8           0.012905083    0.016055432   -0.007121762
     55        6          -0.000100822   -0.003416357   -0.002270050
     56        6          -0.000191695   -0.007010277    0.000382745
     57        6           0.001694986   -0.001609492   -0.005885245
     58        7           0.000447712    0.002324921    0.001322891
     59        6           0.013235738   -0.019293790   -0.007404062
     60        7           0.000268177    0.000700269    0.000294539
     61        7           0.001201069    0.009318062    0.004928318
     62        8          -0.010840237   -0.001334142    0.020976058
     63        1          -0.006563028    0.002917468    0.000721358
     64        1           0.001226571   -0.001646951   -0.003346839
     65        1           0.000814424   -0.001736350   -0.000879321
     66        1           0.001282724    0.001082009   -0.002115890
     67        1           0.001010920   -0.000873683   -0.001714483
     68        1          -0.006633418    0.002318563   -0.000974000
     69        1           0.001996326    0.000585707   -0.000322295
     70        1           0.000462545    0.000201134    0.000523302
     71        1          -0.001041543    0.002038003    0.006406804
     72        1          -0.000790343    0.006397171   -0.001635508
     73        1          -0.002994076   -0.002345040   -0.003607183
     74        1          -0.003481610    0.008956882    0.000681417
     75        1           0.003156478   -0.004035627    0.004439421
 -------------------------------------------------------------------
 Cartesian Forces:  Max     0.047179258 RMS     0.007881957
 FormGI is forming the generalized inverse of G from B-inverse, IUseBI=4.

 GradGradGradGradGradGradGradGradGradGradGradGradGradGradGradGradGradGrad
 Berny optimization.
 Internal  Forces:  Max     0.048030957 RMS     0.007969339
 Search for a local minimum.
 Step number   1 out of a maximum of  399
 All quantities printed in internal units (Hartrees-Bohrs-Radians)
 Mixed Optimization -- RFO/linear search
 Second derivative matrix not updated -- analytic derivatives used.
 ITU=  0
     Eigenvalues ---   -0.00195  -0.00138   0.00021   0.00051   0.00094
     Eigenvalues ---    0.00144   0.00239   0.00294   0.00412   0.00535
     Eigenvalues ---    0.00602   0.00635   0.00780   0.00805   0.00910
     Eigenvalues ---    0.01014   0.01120   0.01206   0.01327   0.01344
     Eigenvalues ---    0.01383   0.01516   0.01679   0.01748   0.01777
     Eigenvalues ---    0.01860   0.01889   0.01935   0.02130   0.02149
     Eigenvalues ---    0.02312   0.02498   0.02595   0.02611   0.02745
     Eigenvalues ---    0.02815   0.02851   0.02886   0.03010   0.03230
     Eigenvalues ---    0.03579   0.03845   0.03996   0.04038   0.04100
     Eigenvalues ---    0.04147   0.04159   0.04278   0.04375   0.04413
     Eigenvalues ---    0.04463   0.04550   0.04583   0.04643   0.04782
     Eigenvalues ---    0.04802   0.05035   0.05099   0.05300   0.05400
     Eigenvalues ---    0.05488   0.05627   0.05962   0.06028   0.06138
     Eigenvalues ---    0.06447   0.06577   0.06726   0.06849   0.07198
     Eigenvalues ---    0.07284   0.07550   0.07635   0.07970   0.08179
     Eigenvalues ---    0.08285   0.08308   0.08380   0.09088   0.09262
     Eigenvalues ---    0.10845   0.11286   0.11387   0.11533   0.11892
     Eigenvalues ---    0.11994   0.12126   0.12348   0.12374   0.12475
     Eigenvalues ---    0.12577   0.12665   0.12691   0.12937   0.13016
     Eigenvalues ---    0.13313   0.13397   0.13833   0.13953   0.14413
     Eigenvalues ---    0.14616   0.15420   0.15977   0.16198   0.16769
     Eigenvalues ---    0.17126   0.17515   0.17866   0.18247   0.19039
     Eigenvalues ---    0.19256   0.19391   0.19570   0.19753   0.20327
     Eigenvalues ---    0.20601   0.20758   0.20968   0.21133   0.21265
     Eigenvalues ---    0.21614   0.22099   0.22282   0.22427   0.22884
     Eigenvalues ---    0.23223   0.23644   0.24137   0.24650   0.25313
     Eigenvalues ---    0.25763   0.25979   0.26381   0.26929   0.27232
     Eigenvalues ---    0.27988   0.28179   0.28575   0.28955   0.29759
     Eigenvalues ---    0.30776   0.30843   0.31749   0.32249   0.32863
     Eigenvalues ---    0.32968   0.33045   0.33255   0.33746   0.33826
     Eigenvalues ---    0.33896   0.34010   0.34023   0.34358   0.34482
     Eigenvalues ---    0.34599   0.34764   0.35092   0.35238   0.35340
     Eigenvalues ---    0.35848   0.35854   0.36127   0.36187   0.36393
     Eigenvalues ---    0.36442   0.36486   0.36613   0.36656   0.36749
     Eigenvalues ---    0.37266   0.37473   0.37658   0.38413   0.40283
     Eigenvalues ---    0.41599   0.42315   0.42735   0.43518   0.43714
     Eigenvalues ---    0.43874   0.44529   0.45189   0.45552   0.46037
     Eigenvalues ---    0.47005   0.47249   0.47820   0.47999   0.48419
     Eigenvalues ---    0.48427   0.48441   0.48754   0.48782   0.49142
     Eigenvalues ---    0.49225   0.49925   0.50593   0.50911   0.52881
     Eigenvalues ---    0.53198   0.55923   0.56711   0.60963   0.62639
     Eigenvalues ---    0.66640   0.67337   0.68161   0.73283   0.74492
     Eigenvalues ---    0.80054   0.82455   0.83627   0.86362   0.90843
     Eigenvalues ---    1.31233   2.48431   5.04245   8.99158
 RFO step:  Lambda=-3.95568977D-02 EMin=-1.94878676D-03
 Linear search not attempted -- first point.
 Maximum step size (   0.300) exceeded in Quadratic search.
    -- Step size scaled by   0.987
 Iteration  1 RMS(Cart)=  0.13749878 RMS(Int)=  0.01261536
 Iteration  2 RMS(Cart)=  0.06542865 RMS(Int)=  0.00130356
 Iteration  3 RMS(Cart)=  0.00227170 RMS(Int)=  0.00109253
 Iteration  4 RMS(Cart)=  0.00000202 RMS(Int)=  0.00109253
 Iteration  5 RMS(Cart)=  0.00000001 RMS(Int)=  0.00109253
 Variable       Old X    -DE/DX   Delta X   Delta X   Delta X     New X
                                 (Linear)    (Quad)   (Total)
    R1        2.77933   0.02539   0.00000   0.06974   0.06974   2.84907
    R2        1.94288   0.02273   0.00000   0.06293   0.06293   2.00582
    R3        1.92783   0.00378   0.00000   0.00553   0.00553   1.93336
    R4        1.94452   0.00407   0.00000   0.00972   0.00972   1.95424
    R5        2.90824   0.00563   0.00000   0.00110   0.00110   2.90934
    R6        2.87804   0.00720   0.00000   0.00770   0.00770   2.88574
    R7        2.06915  -0.00161   0.00000  -0.00470  -0.00470   2.06445
    R8        2.37805  -0.04803   0.00000  -0.06877  -0.06877   2.30928
    R9        2.60441  -0.02007   0.00000  -0.02455  -0.02455   2.57986
   R10        2.84809   0.01695   0.00000   0.04226   0.04226   2.89035
   R11        2.05121   0.00211   0.00000   0.01087   0.01087   2.06208
   R12        2.08162  -0.00415   0.00000  -0.01227  -0.01227   2.06935
   R13        2.55675   0.00255   0.00000   0.00472   0.00472   2.56147
[...]
 04901,-0.00004300,0.00001201,-0.00001006,-0.00000522,-0.00000647,0.000
 00427,-0.00002549,0.00001239,-0.00008950,0.00000128,0.00017249,0.00007
 948,-0.00010911,0.00004381,-0.00041845,0.00042222,0.00022398,-0.000269
 84,0.00010482,0.00000046,0.00003984,-0.00026613,-0.00037496,-0.0000010
 8,0.00001695,0.00033467,0.00018279,0.00011836,-0.00009937,-0.00059786,
 -0.00001942,-0.00053200,-0.00067406,0.00128503,0.00199249,0.00398806,-
 0.00218184,0.00035054,-0.01483256,-0.01857683,-0.02093300,-0.11362303,
 -0.11771866,-0.09569752,-0.00308254,0.00369886,0.00047458,-0.00008211,
 0.00020913,0.00032441,0.00030320,-0.00006634,-0.00151258,0.00004694,-0
 .00006500,0.00007754,0.00002662,-0.00001261,0.00005578,-0.00001683,-0.
 00001997,-0.00000879,0.00011937,-0.00028570,0.00012002,0.00051881,0.00
 041272,0.00010034,0.00003769,-0.00000046,-0.00034680,0.00040135,-0.000
 98346,0.00009195,0.00037196,-0.00002868,-0.00084042,0.00216566,0.00136
 324,-0.00078001,0.12698704,0.13470546,0.11795576,-0.00023602,0.0000710
 8,-0.00010662,0.00009609,-0.00011175,0.00002303,-0.00063606,-0.0001115
 9,0.00062316,0.00030227,0.00005583,-0.00038310,0.00004916,0.00013195,-
 0.00007430,0.00006072,-0.00006082,0.00023029,-0.00008298,-0.00000879,-
 0.00014617,-0.00006201,0.00004339,-0.00013832,0.00034735,-0.00001033,-
 0.00014782,-0.00001695,0.00003827,-0.00002586,0.00002053,-0.00002542,0
 .00000363,-0.00000601,0.00000790,0.00002107,0.00002228,-0.00001270,0.0
 0000960,0.00002421,-0.00000743,0.00002995,0.00001961,-0.00001317,0.000
 10142,0.00006275,-0.00002783,0.00018846,0.00008839,0.00014366,-0.00099
 839,0.00059574,-0.00038599,0.00085761,-0.01200880,-0.00772829,0.006947
 67,0.00678596,0.00273657,-0.00514101,0.00023681,0.00016177,-0.00028089
 ,-0.00008975,-0.00003648,0.00030905,0.00000762,-0.00006347,-0.00014572
 ,0.00020927,-0.00016107,-0.00020544,-0.00003887,0.00001082,0.00004195,
 -0.00005871,0.00002164,-0.00000470,-0.00001070,0.00000293,-0.00005471,
 0.00044368,-0.00031031,0.00017240,-0.00025192,-0.00001623,-0.00030062,
 0.00022635,0.00042106,0.00048711,0.00005647,0.00014571,0.00004438,-0.0
 0005756,0.00006513,0.00002195,-0.00000479,0.00004045,-0.00000217,0.000
 00765,0.00000099,-0.00001773,-0.00001018,0.00000020,-0.00004994,-0.000
 01046,0.00000277,-0.00001501,0.00420911,0.00475908,0.00093107,-0.00160
 584,-0.00067583,0.00090335,0.00126571,-0.00056093,0.00024502,-0.000338
 17,0.00063826,-0.00063678,-0.00003771,0.00019075,-0.00026700,-0.000058
 30,-0.00067841,-0.00039562,0.00003405,0.00039975,0.00019635,-0.0001918
 4,0.00069701,0.00049577,0.00010159,-0.00065501,-0.00095580,0.00013041,
 0.00019106,-0.00009258,-0.00012345,-0.00005723,-0.00000380,0.00009232,
 0.00014508,0.00012629,0.00004952,-0.00002773,-0.00003022,-0.00001751,-
 0.00006378,-0.00001028,-0.00080903,0.00075982,0.00004641,0.00035915,-0
 .00045191,0.00005236,0.00195184,-0.00026832,-0.00117981,-0.00134588,-0
 .00045270,0.00128606,-0.00011264,-0.00001530,-0.00010376,0.00022347,0.
 00025246,0.00001750,0.00260619,0.00022075,-0.00050306,-0.00033223,-0.0
 0407530,-0.00398413,0.01130907,-0.01571035,0.00724182,-0.00303007,-0.0
 0027338,-0.00060869,-0.13699641,0.19308502,-0.01845478,-0.00097632,0.0
 0075682,0.00067901,0.00046725,-0.00077418,-0.00024834,-0.00001783,0.00
 003372,-0.00001854,-0.00004247,0.00010255,-0.00000377,-0.00002810,-0.0
 0001074,0.00007462,-0.00004192,-0.00003201,0.00004331,-0.00005796,-0.0
 0002751,0.00001437,-0.00026202,-0.00062833,-0.00034088,-0.00007401,-0.
 00014062,-0.00009892,-0.00125607,0.00025592,-0.00107626,0.00110748,-0.
 00126342,-0.00289035,-0.00037292,0.00022830,0.00045080,0.13436727,0.00
 025920,-0.00008465,-0.00023893,-0.00005838,0.00021697,0.00007314,0.000
 06062,0.00004245,-0.00004120,0.00003182,-0.00016981,0.00009100,-0.0000
 1975,-0.00006955,0.00003788,0.00004716,0.00021252,0.00003121,-0.000018
 32,-0.00008124,-0.00004573,-0.00001650,-0.00018140,-0.00003453,-0.0005
 0318,-0.00002141,0.00037847,0.00001146,-0.00004056,0.00000546,-0.00000
 845,0.00007833,0.00001788,0.00001992,0.00002465,-0.00003485,-0.0000080
 4,0.00000409,0.00000163,-0.00000227,0.00004794,-0.00003051,0.00001450,
 0.00000912,0.00009255,-0.00000390,0.00001708,0.00007818,-0.00001573,-0
 .00048654,0.00006050,-0.00064248,0.00096154,-0.00010622,0.00292675,0.0
 0354317,-0.00268429,-0.00239115,-0.00383994,0.00285740,0.00049073,-0.0
 0042442,0.00000904,-0.00028487,-0.00004951,-0.00022654,0.00006209,0.00
 000507,0.00018851,-0.00004389,-0.00002214,0.00010913,-0.00004471,-0.00
 000142,0.00000064,0.00000548,-0.00002497,0.00000185,-0.00000613,-0.000
 02103,0.00006414,-0.00043962,0.00041782,0.00024381,0.00002399,-0.00009
 080,0.00008911,-0.00006034,0.00034768,-0.00079574,0.00019253,-0.000216
 81,-0.00007583,0.00001794,0.00000173,-0.00002444,-0.00000237,0.0000599
 2,-0.00004572,-0.00000490,0.00001537,0.00002536,0.00001599,0.00001625,
 0.00002216,0.00000428,0.00001483,0.00001449,-0.00201203,-0.00288219,-0
 .00015155,0.00063638,0.00008214,-0.00036879,-0.00155171,0.00038420,0.0
 0034031,0.00055419,-0.00016144,-0.00020390,0.00003269,-0.00011806,0.00
 008629,-0.00039119,0.00003581,0.00025332,0.00015864,0.00000877,-0.0000
 2059,0.00056047,-0.00017563,-0.00027810,-0.00041541,0.00043833,0.00030
 478,-0.00000967,-0.00004371,0.00003627,0.00006006,0.00003060,0.0000119
 2,-0.00004772,-0.00005369,-0.00007007,-0.00004939,-0.00000260,-0.00002
 767,-0.00002970,0.00002889,-0.00000267,0.00102770,-0.00026794,0.000010
 59,-0.00004149,0.00003416,-0.00003858,-0.00144810,-0.00018504,0.001233
 48,0.00100211,0.00064043,-0.00118040,0.00004987,-0.00004099,0.00010045
 ,-0.00012461,0.00031444,0.00039353,0.00143057,-0.00035776,-0.00095611,
 -0.00241152,0.00357590,-0.00260438,0.00700233,-0.02659453,-0.00603786,
 0.00208405,0.00045748,0.00489385,0.17644255,-0.32253401,-0.02765857,0.
 00081715,-0.00042422,-0.00105409,-0.00060799,-0.00019361,-0.00002547,0
 .00000800,0.00002967,-0.00000988,0.00000267,-0.00007868,0.00000250,0.0
 0003557,0.00002502,-0.00004167,0.00016695,0.00017229,-0.00005915,0.000
 00283,0.00000483,-0.00000892,-0.00008832,-0.00009236,-0.00009743,0.000
 02760,0.00000535,-0.00002345,-0.00011618,-0.00006258,0.00069701,-0.000
 59906,0.00229725,-0.00083513,-0.00056211,-0.00047207,0.00046195,-0.179
 49406,0.34603967,0.00003407,-0.00005204,-0.00002440,0.00000691,0.00009
 506,0.00002522,0.00029602,0.00009839,-0.00032822,-0.00024859,-0.000031
 38,0.00007733,-0.00000088,-0.00004271,0.00004281,-0.00000447,0.0001101
 5,-0.00009173,0.00000367,-0.00002469,0.00004295,-0.00000196,-0.0000979
 7,0.00004834,-0.00008207,0.00001010,0.00003590,0.00000137,-0.00001532,
 0.00000197,-0.00000452,0.00003588,-0.00001088,0.00001341,0.00001650,-0
 .00001793,-0.00000386,0.00000260,-0.00001326,0.00000110,0.00002588,-0.
 00003613,0.00000086,0.00001408,-0.00000297,0.00001829,0.00002590,0.000
 02443,-0.00016495,-0.00032352,0.00003617,0.00013905,0.00061246,-0.0001
 8010,0.00116189,-0.00061143,0.00102897,0.00050846,0.00041575,-0.003395
 48,0.00156034,-0.00051023,-0.00012997,-0.00054400,0.00013803,-0.000249
 56,0.00012650,0.00001887,0.00026274,0.00008088,-0.00001118,0.00004635,
 -0.00007684,0.00001476,0.00001556,-0.00003869,0.00000437,-0.00001523,-
 0.00001177,-0.00000742,0.00005886,0.00009293,0.00033719,-0.00022155,-0
 .00010309,-0.00011376,0.00003227,-0.00061869,-0.00036942,-0.00098177,-
 0.00027804,0.00015924,0.00011164,0.00000092,-0.00000779,-0.00002091,-0
 .00007743,-0.00000792,-0.00005530,-0.00000820,0.00001387,0.00003867,0.
 00001484,0.00000270,0.00002663,-0.00000335,0.00001002,0.00002238,0.000
 55804,0.00035013,-0.00013087,-0.00006985,-0.00003740,0.00006992,0.0002
 0193,-0.00000381,0.00009115,-0.00005865,-0.00000538,-0.00007393,0.0000
 3420,0.00002100,-0.00002648,-0.00010061,-0.00005751,0.00007823,0.00002
 753,0.00005020,-0.00003348,0.00012165,0.00006771,-0.00012464,-0.000057
 06,-0.00007720,0.00004076,0.00003280,0.00003538,0.00001301,-0.00001487
 ,-0.00000473,-0.00000668,0.00000875,0.00000498,0.00000230,0.00000970,-
 0.00001590,0.00001574,0.00000625,0.00000080,0.00001334,-0.00006979,-0.
 00009202,-0.00007640,-0.00000616,-0.00002751,-0.00003645,-0.00159342,0
 .00094924,0.00115036,0.00133529,0.00119941,-0.00127452,-0.00000606,0.0
 0001926,-0.00006599,0.00009994,-0.00060466,-0.00047319,-0.00120612,-0.
 00015093,0.00215752,-0.00281365,-0.00397927,-0.00242084,0.01856449,-0.
 01762097,0.00281470,0.00108709,0.00099711,-0.00212532,-0.01855490,-0.0
 3514855,-0.06036414,0.00051077,-0.00094412,-0.00057128,0.00009527,0.00
 005526,0.00019158,0.00001065,0.00001253,0.00000232,0.00000753,-0.00000
 724,-0.00001054,0.00000021,0.00000129,0.00001779,-0.00021383,-0.000114
 59,0.00010119,-0.00001495,-0.00000793,0.00001800,0.00003017,0.00002057
 ,0.00002880,0.00002129,0.00012666,-0.00000097,0.00052371,-0.00029129,-
 0.00062832,-0.00276065,-0.00162207,-0.00129650,0.00003217,0.00034244,-
 0.00008284,0.01166572,0.03242032,0.05750673,0.00012232,-0.00000922,-0.
 00025030,-0.00001456,0.00007775,0.00005154,-0.00033748,-0.00006006,0.0
 0037781,0.00025186,-0.00008025,-0.00011809,0.00001354,0.00002322,-0.00
 003289,0.00008333,0.00007056,0.00018075,-0.00008003,-0.00004663,-0.000
 11901,-0.00005356,-0.00005927,-0.00012077,-0.00026830,-0.00002829,0.00
 028237,0.00000170,-0.00001383,-0.00000817,0.00001354,0.00002627,0.0000
 2670,0.00000040,0.00000733,-0.00000723,0.00001838,-0.00000644,0.000007
 82,0.00002037,0.00000678,0.00001060,0.00003211,-0.00000843,0.00012857,
 0.00000885,-0.00001184,0.00012038,0.00018280,-0.00006917,-0.00038684,-
 0.00006137,0.00014730,0.00001884,-0.00027576,0.00056774,-0.00030347,-0
 .00064739,-0.00004234,0.00032681,-0.00026259,0.00002384,0.00008873,0.0
 0006585,-0.00001234,0.00014986,-0.00003540,-0.00002327,-0.00008036,0.0
 0005616,-0.00008344,-0.00008330,-0.00001092,-0.00000340,0.00001042,-0.
 00000457,-0.00000157,0.00002506,0.00000060,-0.00000698,-0.00002067,-0.
 00029461,0.00009197,0.00036162,0.00000750,-0.00000234,-0.00000265,0.00
 020872,0.00020417,-0.00000710,0.00010519,-0.00006568,-0.00004531,-0.00
 001833,0.00002616,0.00000578,0.00005679,0.00003067,0.00001327,0.000001
 29,0.00000203,-0.00001074,-0.00000184,0.00000010,-0.00003260,-0.000001
 01,0.00000393,-0.00000700,0.00004997,-0.00029653,0.00003858,-0.0000419
 8,0.00003270,-0.00003619,-0.00072470,0.00006327,0.00029215,0.00030895,
 0.00011778,-0.00033602,0.00000320,-0.00002517,-0.00001323,-0.00026663,
 -0.00021101,0.00002702,0.00012411,0.00015443,0.00006314,0.00038424,0.0
 0010405,-0.00002780,-0.00009302,0.00003998,-0.00003009,0.00000636,-0.0
 0000437,0.00000560,0.00000581,0.00000253,0.00001307,-0.00000528,0.0000
 0786,-0.00001090,-0.00001948,-0.00001392,-0.00003391,-0.00003040,-0.00
 000564,-0.00000761,0.00038204,0.00005087,0.00006104,-0.00029760,-0.000
 31797,0.00004222,-0.00068378,-0.00220936,0.00079209,-0.00219330,0.0012
 9199,-0.00040937,0.00006634,-0.00006306,0.00004492,-0.00009799,-0.0001
 1027,0.00004406,-0.00115194,-0.00047645,0.00012049,-0.00286718,0.00325
 934,0.00165611,-0.01019325,-0.00506111,-0.01084588,0.00349588,-0.00045
 137,-0.00004914,-0.12628811,0.07558897,-0.16751034,-0.00022532,0.00053
 715,-0.00017562,-0.00031845,-0.00005351,-0.00029080,0.00000068,0.00000
 318,-0.00000998,-0.00000709,-0.00002932,0.00000675,0.00002274,0.000036
 50,-0.00000611,0.00002173,0.00006641,0.00001612,-0.00000073,-0.0000120
 4,-0.00002747,0.00012455,0.00036681,0.00020735,0.00007107,0.00012505,0
 .00013555,0.00300056,0.00027330,0.00012923,-0.00044141,-0.00031632,0.0
 0081822,0.00171639,0.00033335,-0.00199365,-0.00622690,-0.00171158,-0.0
 0923473,0.14350637,0.00063498,-0.00005793,-0.00051405,-0.00007073,0.00
 031471,0.00010371,-0.00016132,0.00009142,0.00003203,0.00016315,-0.0001
 6738,0.00003270,-0.00001469,-0.00006729,0.00001427,0.00009871,0.000275
 55,0.00018944,-0.00006728,-0.00012061,-0.00014570,-0.00004004,-0.00022
 839,-0.00014478,-0.00125327,-0.00014689,0.00082642,0.00001636,-0.00006
 979,-0.00000778,0.00000662,0.00012687,0.00003214,0.00002247,0.00002621
 ,-0.00004414,-0.00000071,-0.00000020,0.00001514,0.00000799,0.00005006,
 -0.00001655,0.00003676,-0.00000400,0.00020765,-0.00004810,-0.00002529,
 0.00003263,0.00023340,-0.00058528,-0.00000851,0.00011242,0.00040232,-0
 .00011878,0.00012102,-0.00006970,0.00021646,0.00088911,-0.00028631,-0.
 00008681,0.00047334,-0.00015430,-0.00010857,-0.00018498,0.00003303,-0.
 00002555,0.00002230,-0.00002187,0.00006163,0.00018042,-0.00012371,-0.0
 0004361,-0.00005724,-0.00000413,0.00002526,-0.00006340,-0.00000649,0.0
 0001095,-0.00000719,-0.00002072,0.00005080,-0.00056145,0.00091452,-0.0
 0003399,-0.00001894,-0.00008389,-0.00000457,-0.00011787,0.00008607,0.0
 0005801,-0.00009714,0.00002068,0.00004093,-0.00001103,0.00002461,-0.00
 000957,-0.00002577,0.00004489,-0.00005754,-0.00000303,0.00001492,0.000
 01108,0.00001434,0.00001422,-0.00000674,-0.00000575,0.00001918,0.00001
 055,0.00005987,-0.00007658,0.00000315,0.00002619,0.00015387,-0.0001617
 8,-0.00085594,0.00012991,0.00044862,0.00040742,0.00001420,-0.00019255,
 -0.00004965,-0.00007203,0.00001719,0.00018786,0.00008195,-0.00021236,-
 0.00005567,-0.00009542,0.00008103,-0.00026974,-0.00012597,0.00025045,0
 .00011749,-0.00004386,-0.00010355,0.00001660,-0.00003895,0.00004271,0.
 00002314,0.00000991,0.00003760,-0.00003187,0.00000625,-0.00000530,-0.0
 0001076,0.00002589,-0.00002892,-0.00002239,-0.00000235,-0.00003077,0.0
 0109238,0.00009804,0.00015430,0.00006779,-0.00045722,-0.00022439,-0.00
 926023,0.00109759,0.00644334,0.00617852,0.00271929,-0.00366798,0.00011
 387,-0.00006028,-0.00014576,0.00004374,-0.00000701,-0.00030896,-0.0002
 1907,-0.00011634,0.00077613,0.00115470,-0.00203499,0.00060523,-0.01953
 266,0.01800628,-0.02219679,-0.00182097,-0.00544818,-0.00410587,0.08314
 979,-0.10304173,0.08086175,0.00300666,-0.00247942,-0.00378797,0.000007
 57,0.00010627,-0.00041338,0.00009868,0.00008865,0.00009116,0.00000734,
 -0.00023482,-0.00004874,0.00003536,0.00007670,0.00012450,-0.00007858,-
 0.00005333,0.00010645,0.00001138,-0.00001621,0.00001537,0.00001501,0.0
 0000399,-0.00004382,0.00008892,0.00017027,0.00019505,-0.00066308,-0.00
 340345,-0.00348163,0.00006636,-0.00080989,0.00003573,-0.00017819,0.000
 92664,-0.00135907,0.00861023,-0.00007445,0.02420376,-0.07176152,0.0947
 6167,-0.00057239,-0.00000624,0.00034267,0.00006566,-0.00017126,-0.0000
 2946,0.00022770,-0.00002658,-0.00007033,-0.00024439,0.00012177,-0.0000
 7374,0.00004639,0.00005207,-0.00000084,-0.00004110,-0.00007724,-0.0001
 7851,-0.00000576,0.00005628,0.00011047,-0.00000829,0.00005442,0.000117
 19,0.00103006,0.00013577,-0.00066704,-0.00001929,0.00004281,-0.0000015
 0,0.00001922,-0.00007583,-0.00003627,-0.00001354,-0.00000458,0.0000252
 7,0.00001524,-0.00000080,-0.00002982,0.00001831,-0.00002257,-0.0000195
 8,-0.00001078,0.00002626,-0.00011029,0.00008134,0.00005453,0.00010104,
 -0.00027954,0.00019651,-0.00016460,0.00007166,-0.00013420,0.00027734,-
 0.00140141,-0.00118565,0.00128489,0.00242301,-0.00019931,-0.00134506,0
 .00021997,0.00002618,-0.00016287,-0.00005036,0.00002512,0.00008796,0.0
 0001503,0.00000117,-0.00002158,0.00019073,-0.00001641,-0.00009901,-0.0
 0000410,0.00000937,0.00001168,-0.00007063,0.00004134,-0.00002135,-0.00
 000742,0.00000911,-0.00001163,0.00072225,-0.00045743,-0.00002782,-0.00
 007017,0.00001907,-0.00005590,-0.00003608,-0.00009025,0.00016752,-0.00
 010872,0.00009787,0.00003639,-0.00002192,-0.00000105,0.00000524,-0.000
 06524,-0.00007193,0.00001010,-0.00000731,-0.00000164,0.00000397,-0.000
 00131,-0.00001983,-0.00001358,-0.00001113,-0.00000235,0.00001201,0.000
 62261,0.00072513,-0.00001927,-0.00024585,-0.00015409,0.00026136,0.0005
 7793,-0.00009128,-0.00014294,-0.00024881,0.00006401,-0.00015176,0.0000
 5395,0.00006901,-0.00006116,-0.00026818,-0.00012728,0.00018994,0.00008
 299,0.00010246,-0.00004149,0.00026082,0.00011065,-0.00016596,-0.000130
 12,-0.00005105,-0.00002589,0.00002488,0.00006347,-0.00002530,-0.000035
 02,-0.00001539,-0.00002977,0.00003455,0.00001494,0.00001684,-0.0000118
 4,-0.00001765,0.00001040,0.00000370,-0.00000329,0.00002356,-0.00084990
 ,-0.00022029,-0.00025370,-0.00026272,0.00040932,0.00006240,0.00598854,
 0.00178221,-0.00334553,-0.00318823,-0.00350270,-0.00024675,-0.00014739
 ,0.00002710,0.00015204,-0.00008858,0.00019797,0.00041769,0.00005510,-0
 .00091094,-0.00082256,0.00044474,0.00423584,-0.00001680,-0.00927346,0.
 00400157,-0.01918385,-0.00003624,-0.00298947,0.00264504,-0.18393548,0.
 07297334,-0.29345620,-0.00203633,-0.00024217,0.00220409,-0.00012348,-0
 .00008010,0.00032085,-0.00004986,-0.00006963,-0.00009876,-0.00001324,0
 .00015633,0.00006484,-0.00000716,-0.00006238,-0.00014332,0.00016886,0.
 00011419,-0.00015971,0.00002549,0.00002572,-0.00004709,0.00000857,0.00
 015707,0.00007611,0.00006317,0.00011008,0.00000616,-0.00021699,-0.0017
 7655,0.00337096,0.00004809,0.00049993,-0.00042706,-0.00093481,0.000239
 04,0.00054416,0.00555934,0.00039884,0.00930620,0.18598465,-0.07456845,
 0.29973932\\-0.00000191,0.00000460,0.00002053,-0.00001350,-0.00000077,
 -0.00000245,0.00000275,-0.00000309,-0.00000415,0.00000267,0.00000390,0
 .00000586,-0.00000213,-0.00000934,0.00000006,-0.00000023,0.00001157,0.
 00001530,-0.00001003,-0.00000252,-0.00000149,0.00000090,0.00000622,-0.
 00000204,0.00000101,-0.00000128,-0.00000482,-0.00000066,0.00000201,0.0
 0000007,0.00000732,-0.00000348,-0.00000462,0.00000341,0.00000184,-0.00
 000425,0.00000324,0.00000112,-0.00000620,0.00000320,-0.00000343,-0.000
 00238,0.00000023,0.00000433,-0.00000437,-0.00000364,-0.00000268,-0.000
 00062,-0.00000521,0.00000536,-0.00000306,0.00001215,-0.00000035,-0.000
 00093,-0.00000612,-0.00000540,0.00000310,0.00000069,0.00000210,-0.0000
 0383,-0.00000419,-0.00000031,-0.00000010,0.00000299,-0.00000045,-0.000
 00004,0.00000108,0.00000142,-0.00000246,0.00000051,0.00000225,-0.00000
 005,0.00000080,0.00000181,-0.00000089,0.00000137,0.00000232,-0.0000025
 6,0.00000314,0.00000209,-0.00000137,0.00000068,-0.00000481,0.00000462,
 -0.00000088,0.00000083,0.00000173,0.00000042,0.00000209,0.00000037,0.0
 0000277,-0.00000079,-0.00000365,0.00000125,0.00000157,-0.00000162,0.00
 000072,0.,-0.00000081,0.00000082,0.00000162,-0.00000149,0.00000045,0.0
 0000040,-0.00000103,0.00000080,0.00000166,-0.00000125,-0.00000447,0.00
 000667,0.00000631,0.00000261,-0.00000644,-0.00000417,0.00000517,0.0000
 0947,0.00000308,-0.00000023,-0.00000568,-0.00000242,0.00000174,0.00000
 043,-0.00000169,-0.00000422,-0.00001012,-0.00000336,-0.00000645,0.0000
 0910,-0.00000296,0.00000288,-0.00000322,0.00000077,0.00000142,-0.00000
 122,-0.00000107,0.00000014,-0.00000072,-0.00000080,-0.00000085,-0.0000
 0169,-0.00000006,-0.00000021,-0.00000062,0.00000129,0.00000113,0.00000
 128,0.00000551,0.00000303,0.00000056,0.00000179,-0.00001135,-0.0000088
 8,-0.00001220,0.00001162,-0.00000199,0.00001411,-0.00000853,0.00001982
 ,-0.00000873,0.00000175,-0.00000654,-0.00000685,-0.00000774,0.00000074
 ,-0.00000104,0.00000061,-0.00000256,0.00000236,-0.00000362,-0.00000067
 ,-0.00000143,0.00000816,-0.00000656,0.00001588,-0.00000360,0.00000025,
 -0.00000040,0.00000042,-0.00000382,0.00000099,0.00000330,-0.00000816,-
 0.00000060,0.00000794,0.00000304,0.00000022,0.00000332,-0.00000049,0.0
 0000358,-0.00000400,0.00000153,0.00000109,-0.00000033,0.00000011,0.000
 00062,0.00000167,-0.00000158,0.00000257,-0.00000156,-0.00000162,0.0000
 0208,0.00000008,-0.00000012,0.00000026,-0.00000090,-0.00000176,0.00000
 030,0.00000014,-0.00000142,0.00000114,-0.00000363,-0.00000055,-0.00000
 619,-0.00000170,0.00000103,0.00000069,0.00000003,-0.00000102,0.0000002
 6,0.00000128,0.00000079,0.00000012,-0.00000189,0.00000024,-0.00000017\
 \\@
 The archive entry for this job was punched.


 ...THE PHYSICISTS HAVE MADE THEIR UNIVERSE, AND IF YOU DO NOT LIKE
 IT, YOU MUST MAKE YOUR OWN.
                               -- E. R. HARRISON IN "COSMOLOGY" (1980)
 Job cpu time:       0 days  7 hours 17 minutes 24.9 seconds.
 Elapsed time:       0 days  0 hours 55 minutes 15.3 seconds.
 File lengths (MBytes):  RWF=   3960 Int=      0 D2E=      0 Chk=     48 Scr=     16
 Normal termination of Gaussian 16 at Tue May 31 21:44:50 2022.
