 Entering Gaussian System, Link 0=/opt/software/Gaussian/g16-AVX2-C.01/g16/g16
 Input=opt_freq-conf-617.com
 Output=opt_freq-conf-617.log
 Initial command:
 /opt/software/Gaussian/g16-AVX2-C.01/g16/l1.exe "/mnt/gs18/scratch/users/kengmith/Gau-74353.inp" -scrdir="/mnt/gs18/scratch/users/kengmith/"
 Entering Link 1 = /opt/software/Gaussian/g16-AVX2-C.01/g16/l1.exe PID=     74363.
  
 Copyright (c) 1988-2019, Gaussian, Inc.  All Rights Reserved.
  
 This is part of the Gaussian(R) 16 program.  It is based on
 the Gaussian(R) 09 system (copyright 2009, Gaussian, Inc.),
 the Gaussian(R) 03 system (copyright 2003, Gaussian, Inc.),
 the Gaussian(R) 98 system (copyright 1998, Gaussian, Inc.),
 the Gaussian(R) 94 system (copyright 1995, Gaussian, Inc.),
 the Gaussian 92(TM) system (copyright 1992, Gaussian, Inc.),
 the Gaussian 90(TM) system (copyright 1990, Gaussian, Inc.),
 the Gaussian 88(TM) system (copyright 1988, Gaussian, Inc.),
 the Gaussian 86(TM) system (copyright 1986, Carnegie Mellon
 University), and the Gaussian 82(TM) system (copyright 1983,
 Carnegie Mellon University). Gaussian is a federally registered
 trademark of Gaussian, Inc.
  
 This software contains proprietary and confidential information,
 including trade secrets, belonging to Gaussian, Inc.
  
 This software is provided under written license and may be
 used, copied, transmitted, or stored only in accord with that
 written license.
  
 The following legend is applicable only to US Government
 contracts under FAR:
  
                    RESTRICTED RIGHTS LEGEND
  
 Use, reproduction and disclosure by the US Government is
 subject to restrictions as set forth in subparagraphs (a)
 and (c) of the Commercial Computer Software - Restricted
 Rights clause in FAR 52.227-19.
  
 Gaussian, Inc.
 340 Quinnipiac St., Bldg. 40, Wallingford CT 06492
  
  
 ---------------------------------------------------------------
 Warning -- This program may not be used in any manner that
 competes with the business of Gaussian, Inc. or will provide
 assistance to any competitor of Gaussian, Inc.  The licensee
 of this program is prohibited from giving any competitor of
 Gaussian, Inc. access to this program.  By using this program,
 the user acknowledges that Gaussian, Inc. is engaged in the
 business of creating and licensing software in the field of
 computational chemistry and represents and warrants to the
 licensee that it is not a competitor of Gaussian, Inc. and that
 it will not use this program in any manner prohibited above.
 ---------------------------------------------------------------
  

 Cite this work as:
 Gaussian 16, Revision C.01,
 M. J. Frisch, G. W. Trucks, H. B. Schlegel, G. E. Scuseria, 
 M. A. Robb, J. R. Cheeseman, G. Scalmani, V. Barone, 
 G. A. Petersson, H. Nakatsuji, X. Li, M. Caricato, A. V. Marenich, 
 J. Bloino, B. G. Janesko, R. Gomperts, B. Mennucci, H. P. Hratchian, 
 J. V. Ortiz, A. F. Izmaylov, J. L. Sonnenberg, D. Williams-Young, 
 F. Ding, F. Lipparini, F. Egidi, J. Goings, B. Peng, A. Petrone, 
 T. Henderson, D. Ranasinghe, V. G. Zakrzewski, J. Gao, N. Rega, 
 G. Zheng, W. Liang, M. Hada, M. Ehara, K. Toyota, R. Fukuda, 
 J. Hasegawa, M. Ishida, T. Nakajima, Y. Honda, O. Kitao, H. Nakai, 
 T. Vreven, K. Throssell, J. A. Montgomery, Jr., J. E. Peralta, 
 F. Ogliaro, M. J. Bearpark, J. J. Heyd, E. N. Brothers, K. N. Kudin, 
 V. N. Staroverov, T. A. Keith, R. Kobayashi, J. Normand, 
 K. Raghavachari, A. P. Rendell, J. C. Burant, S. S. Iyengar, 
 J. Tomasi, M. Cossi, J. M. Millam, M. Klene, C. Adamo, R. Cammi, 
 J. W. Ochterski, R. L. Martin, K. Morokuma, O. Farkas, 
 J. B. Foresman, and D. J. Fox, Gaussian, Inc., Wallingford CT, 2019.
 
 ******************************************
 Gaussian 16:  ES64L-G16RevC.01  3-Jul-2019
                31-May-2022 
 ******************************************
 %mem=12gb
 %nproc=8
 Will use up to    8 processors via shared memory.
 %chk=conf-617.chk
 ----------------------------------------------------------------------
 # B3LYP/6-31G* empiricaldispersion=gd3 opt=calcfc freq=noraman nosymm 
 integral(ultrafinegrid)
 ----------------------------------------------------------------------
 1/10=4,18=20,19=15,26=4,38=1/1,3;
 2/9=110,12=2,15=1,17=6,18=5,40=1/2;
 3/5=1,6=6,7=1,11=2,25=1,30=1,71=2,74=-5,75=-5,124=31,140=1/1,2,3;
 4//1;
 5/5=2,38=5/2;
 8/6=4,10=90,11=11/1;
 11/6=1,8=1,9=11,15=111,16=1,31=1/1,2,10;
 10/6=1,13=1,31=1/2;
 6/7=2,8=2,9=2,10=2,28=1/1;
 7/10=1,25=1,30=1/1,2,3,16;
 1/10=4,18=20,19=15,26=4/3(2);
 2/9=110,15=1/2;
 99//99;
 2/9=110,15=1/2;
 3/5=1,6=6,7=1,11=2,25=1,30=1,71=1,74=-5,75=-5,124=31/1,2,3;
 4/5=5,16=3,69=1/1;
 5/5=2,38=5/2;
 7/30=1/1,2,3,16;
 1/18=20,19=15,26=4/3(-5);
 2/9=110,15=1/2;
 6/7=2,8=2,9=2,10=2,19=2,28=1/1;
 99/9=1/99;
 ------------------------------------------------------------
 Candidate Structure: Conf:617 OPT and FREQ calc in gas phase
 ------------------------------------------------------------
 Symbolic Z-matrix:
 Charge =  1 Multiplicity = 1
 N                    -9.38169   0.38778  -6.3067 
 C                    -10.02039  -0.9465   -6.27188 
 C                    -9.06277  -2.00866  -5.74489 
 O                    -9.25782  -2.55683  -4.6661 
 C                    -10.58236  -1.33029  -7.63525 
 C                    -11.76687  -0.44751  -7.98668 
 N                    -12.06937  -0.40429  -9.31398 
 O                    -12.41321   0.14091  -7.1384 
 H                    -9.25331   0.78268  -7.2623 
 H                    -10.84512  -0.92964  -5.55801 
 H                    -9.81901  -1.29381  -8.40849 
 H                    -10.94705  -2.35714  -7.60059 
 H                    -12.83219   0.18138  -9.60659 
 H                    -11.49135  -0.85538  -9.99947 
 H                    -9.98195   1.03647  -5.79145 
 H                    -8.4427    0.38203  -5.8676 
 N                    -8.01954  -2.32362  -6.54795 
 C                    -7.06774  -3.32862  -6.12307 
 C                    -5.78118  -3.1857   -6.96412 
 O                    -5.6819   -3.69931  -8.08814 
 C                    -7.63705  -4.76381  -6.17288 
 C                    -8.78975  -4.9814   -7.11764 
 C                    -10.10312  -4.94141  -6.64009 
 C                    -8.59535  -5.22564  -8.47723 
 C                    -11.18751  -5.07025  -7.50337 
 C                    -9.67939  -5.33344  -9.35119 
 C                    -10.97735  -5.23995  -8.86661 
 H                    -7.81257  -1.74293  -7.35276 
 H                    -6.80465  -3.11059  -5.09261 
 H                    -6.80579  -5.42246  -6.43821 
 H                    -7.95419  -5.01147  -5.15854 
 H                    -10.27124  -4.76517  -5.58214 
 H                    -7.58705  -5.32867  -8.85247 
 H                    -12.19596  -4.9982   -7.10826 
 H                    -9.49745  -5.49389  -10.40741 
 H                    -11.82023  -5.31512  -9.54298 
 N                    -4.75427  -2.47466  -6.38707 
 C                    -4.92689  -1.37536  -5.45675 
 C                    -5.64822  -0.18728  -6.09228 
 O                    -6.65094   0.29362  -5.5783 
 C                    -3.59106  -1.00477  -4.81827 
 C                    -2.50119  -0.53078  -5.76765 
 N                    -1.4977    0.16406  -5.18757 
 O                    -2.51666  -0.77902  -6.96711 
 H                    -3.9948   -2.36693  -7.05231 
 H                    -5.5953   -1.70655  -4.6628 
 H                    -3.21872  -1.90215  -4.31988 
 H                    -3.75282  -0.25206  -4.04333 
 H                    -0.75607   0.50835  -5.77166 
 H                    -1.50146   0.37711  -4.20627 
 N                    -5.14908   0.29307  -7.24852 
 C                    -5.89025   1.30285  -7.95458 
 C                    -7.28764   0.74659  -8.35048 
 O                    -7.41584  -0.45318  -8.63456 
 C                    -5.16778   1.91221  -9.14614 
 C                    -5.02884   1.11828  -10.44756 
 C                    -4.23187  -0.19193  -10.37937 
 N                    -5.0642   -1.39453  -10.16579 
 C                    -5.85559  -1.92028  -11.11435 
 N                    -5.57438  -1.6938   -12.41576 
 N                    -6.95958  -2.60291  -10.76646 
 O                    -8.16773   1.62238  -8.37172 
 H                    -4.27002  -0.06597  -7.58525 
 H                    -6.10207   2.11409  -7.25658 
 H                    -5.7043    2.83816  -9.38415 
 H                    -4.17477   2.21561  -8.79797 
 H                    -6.00928   0.92332  -10.88634 
 H                    -4.5103    1.78148  -11.14803 
 H                    -3.64793  -0.325    -11.29175 
 H                    -3.51339  -0.16723  -9.56064 
 H                    -5.51386  -1.39064  -9.25875 
 H                    -6.05824  -2.23919  -13.11254 
 H                    -4.63026  -1.43064  -12.65477 
 H                    -7.38828  -3.21999  -11.43685 
 H                    -7.04575  -2.85363  -9.78652 
 

 GradGradGradGradGradGradGradGradGradGradGradGradGradGradGradGradGradGrad
 Berny optimization.
 Initialization pass.
                           ----------------------------
                           !    Initial Parameters    !
                           ! (Angstroms and Degrees)  !
 --------------------------                            --------------------------
 ! Name  Definition              Value          Derivative Info.                !
 --------------------------------------------------------------------------------
 ! R1    R(1,2)                  1.4797         calculate D2E/DX2 analytically  !
 ! R2    R(1,9)                  1.0419         calculate D2E/DX2 analytically  !
 ! R3    R(1,15)                 1.023          calculate D2E/DX2 analytically  !
 ! R4    R(1,16)                 1.0366         calculate D2E/DX2 analytically  !
 ! R5    R(2,3)                  1.5241         calculate D2E/DX2 analytically  !
 ! R6    R(2,5)                  1.5238         calculate D2E/DX2 analytically  !
 ! R7    R(2,10)                 1.0909         calculate D2E/DX2 analytically  !
 ! R8    R(3,4)                  1.2257         calculate D2E/DX2 analytically  !
 ! R9    R(3,17)                 1.3537         calculate D2E/DX2 analytically  !
 ! R10   R(5,6)                  1.5185         calculate D2E/DX2 analytically  !
 ! R11   R(5,11)                 1.0872         calculate D2E/DX2 analytically  !
 ! R12   R(5,12)                 1.0902         calculate D2E/DX2 analytically  !
 ! R13   R(6,7)                  1.362          calculate D2E/DX2 analytically  !
 ! R14   R(6,8)                  1.218          calculate D2E/DX2 analytically  !
 ! R15   R(7,13)                 1.0052         calculate D2E/DX2 analytically  !
 ! R16   R(7,14)                 1.0037         calculate D2E/DX2 analytically  !
 ! R17   R(17,18)                1.4479         calculate D2E/DX2 analytically  !
 ! R18   R(17,28)                1.0138         calculate D2E/DX2 analytically  !
 ! R19   R(18,19)                1.5437         calculate D2E/DX2 analytically  !
 ! R20   R(18,21)                1.5448         calculate D2E/DX2 analytically  !
 ! R21   R(18,29)                1.0856         calculate D2E/DX2 analytically  !
 ! R22   R(19,20)                1.2398         calculate D2E/DX2 analytically  !
 ! R23   R(19,37)                1.3759         calculate D2E/DX2 analytically  !
 ! R24   R(21,22)                1.5062         calculate D2E/DX2 analytically  !
 ! R25   R(21,30)                1.0933         calculate D2E/DX2 analytically  !
 ! R26   R(21,31)                1.0912         calculate D2E/DX2 analytically  !
 ! R27   R(22,23)                1.3981         calculate D2E/DX2 analytically  !
 ! R28   R(22,24)                1.395          calculate D2E/DX2 analytically  !
 ! R29   R(23,25)                1.392          calculate D2E/DX2 analytically  !
 ! R30   R(23,32)                1.0856         calculate D2E/DX2 analytically  !
 ! R31   R(24,26)                1.3966         calculate D2E/DX2 analytically  !
 ! R32   R(24,33)                1.0808         calculate D2E/DX2 analytically  !
 ! R33   R(25,27)                1.3897         calculate D2E/DX2 analytically  !
 ! R34   R(25,34)                1.0855         calculate D2E/DX2 analytically  !
 ! R35   R(26,27)                1.3886         calculate D2E/DX2 analytically  !
 ! R36   R(26,35)                1.0837         calculate D2E/DX2 analytically  !
 ! R37   R(27,36)                1.0833         calculate D2E/DX2 analytically  !
 ! R38   R(37,38)                1.4504         calculate D2E/DX2 analytically  !
 ! R39   R(37,45)                1.0154         calculate D2E/DX2 analytically  !
 ! R40   R(38,39)                1.5283         calculate D2E/DX2 analytically  !
 ! R41   R(38,41)                1.5262         calculate D2E/DX2 analytically  !
 ! R42   R(38,46)                1.0894         calculate D2E/DX2 analytically  !
 ! R43   R(39,40)                1.2251         calculate D2E/DX2 analytically  !
 ! R44   R(39,51)                1.3479         calculate D2E/DX2 analytically  !
 ! R45   R(41,42)                1.5211         calculate D2E/DX2 analytically  !
 ! R46   R(41,47)                1.0919         calculate D2E/DX2 analytically  !
 ! R47   R(41,48)                1.0924         calculate D2E/DX2 analytically  !
 ! R48   R(42,43)                1.3514         calculate D2E/DX2 analytically  !
 ! R49   R(42,44)                1.225          calculate D2E/DX2 analytically  !
 ! R50   R(43,49)                1.0048         calculate D2E/DX2 analytically  !
 ! R51   R(43,50)                1.0042         calculate D2E/DX2 analytically  !
 ! R52   R(51,52)                1.4379         calculate D2E/DX2 analytically  !
 ! R53   R(51,63)                1.0075         calculate D2E/DX2 analytically  !
 ! R54   R(52,53)                1.5553         calculate D2E/DX2 analytically  !
 ! R55   R(52,55)                1.5209         calculate D2E/DX2 analytically  !
 ! R56   R(52,64)                1.091          calculate D2E/DX2 analytically  !
 ! R57   R(53,54)                1.2396         calculate D2E/DX2 analytically  !
 ! R58   R(53,62)                1.2418         calculate D2E/DX2 analytically  !
 ! R59   R(55,56)                1.5308         calculate D2E/DX2 analytically  !
 ! R60   R(55,65)                1.0963         calculate D2E/DX2 analytically  !
 ! R61   R(55,66)                1.0951         calculate D2E/DX2 analytically  !
 ! R62   R(56,57)                1.5351         calculate D2E/DX2 analytically  !
 ! R63   R(56,67)                1.0917         calculate D2E/DX2 analytically  !
 ! R64   R(56,68)                1.0952         calculate D2E/DX2 analytically  !
 ! R65   R(57,58)                1.4781         calculate D2E/DX2 analytically  !
 ! R66   R(57,69)                1.0914         calculate D2E/DX2 analytically  !
 ! R67   R(57,70)                1.0896         calculate D2E/DX2 analytically  !
 ! R68   R(58,59)                1.3426         calculate D2E/DX2 analytically  !
 ! R69   R(58,71)                1.0124         calculate D2E/DX2 analytically  !
 ! R70   R(59,60)                1.3506         calculate D2E/DX2 analytically  !
 ! R71   R(59,61)                1.3438         calculate D2E/DX2 analytically  !
 ! R72   R(60,72)                1.0085         calculate D2E/DX2 analytically  !
 ! R73   R(60,73)                1.0088         calculate D2E/DX2 analytically  !
 ! R74   R(61,74)                1.007          calculate D2E/DX2 analytically  !
 ! R75   R(61,75)                1.0152         calculate D2E/DX2 analytically  !
 ! A1    A(2,1,9)              114.6164         calculate D2E/DX2 analytically  !
 ! A2    A(2,1,15)             107.858          calculate D2E/DX2 analytically  !
 ! A3    A(2,1,16)             112.0876         calculate D2E/DX2 analytically  !
 ! A4    A(9,1,15)             107.0918         calculate D2E/DX2 analytically  !
 ! A5    A(9,1,16)             106.1997         calculate D2E/DX2 analytically  !
 ! A6    A(15,1,16)            108.7638         calculate D2E/DX2 analytically  !
 ! A7    A(1,2,3)              111.429          calculate D2E/DX2 analytically  !
 ! A8    A(1,2,5)              111.4233         calculate D2E/DX2 analytically  !
 ! A9    A(1,2,10)             109.1351         calculate D2E/DX2 analytically  !
 ! A10   A(3,2,5)              111.4421         calculate D2E/DX2 analytically  !
 ! A11   A(3,2,10)             105.0413         calculate D2E/DX2 analytically  !
 ! A12   A(5,2,10)             108.0936         calculate D2E/DX2 analytically  !
 ! A13   A(2,3,4)              121.0651         calculate D2E/DX2 analytically  !
 ! A14   A(2,3,17)             116.1833         calculate D2E/DX2 analytically  !
 ! A15   A(4,3,17)             122.7331         calculate D2E/DX2 analytically  !
 ! A16   A(2,5,6)              110.3851         calculate D2E/DX2 analytically  !
 ! A17   A(2,5,11)             111.6519         calculate D2E/DX2 analytically  !
 ! A18   A(2,5,12)             109.3994         calculate D2E/DX2 analytically  !
 ! A19   A(6,5,11)             111.3211         calculate D2E/DX2 analytically  !
 ! A20   A(6,5,12)             107.0959         calculate D2E/DX2 analytically  !
 ! A21   A(11,5,12)            106.8034         calculate D2E/DX2 analytically  !
 ! A22   A(5,6,7)              114.6594         calculate D2E/DX2 analytically  !
 ! A23   A(5,6,8)              122.2489         calculate D2E/DX2 analytically  !
 ! A24   A(7,6,8)              123.0593         calculate D2E/DX2 analytically  !
 ! A25   A(6,7,13)             118.0788         calculate D2E/DX2 analytically  !
 ! A26   A(6,7,14)             121.5584         calculate D2E/DX2 analytically  !
 ! A27   A(13,7,14)            120.0021         calculate D2E/DX2 analytically  !
 ! A28   A(3,17,18)            119.6047         calculate D2E/DX2 analytically  !
 ! A29   A(3,17,28)            119.671          calculate D2E/DX2 analytically  !
 ! A30   A(18,17,28)           119.7576         calculate D2E/DX2 analytically  !
 ! A31   A(17,18,19)           108.8879         calculate D2E/DX2 analytically  !
 ! A32   A(17,18,21)           113.1498         calculate D2E/DX2 analytically  !
 ! A33   A(17,18,29)           107.3638         calculate D2E/DX2 analytically  !
 ! A34   A(19,18,21)           112.0611         calculate D2E/DX2 analytically  !
 ! A35   A(19,18,29)           107.2518         calculate D2E/DX2 analytically  !
 ! A36   A(21,18,29)           107.8481         calculate D2E/DX2 analytically  !
 ! A37   A(18,19,20)           121.4891         calculate D2E/DX2 analytically  !
 ! A38   A(18,19,37)           116.1917         calculate D2E/DX2 analytically  !
 ! A39   A(20,19,37)           122.3138         calculate D2E/DX2 analytically  !
 ! A40   A(18,21,22)           115.8795         calculate D2E/DX2 analytically  !
 ! A41   A(18,21,30)           106.6981         calculate D2E/DX2 analytically  !
 ! A42   A(18,21,31)           106.7376         calculate D2E/DX2 analytically  !
 ! A43   A(22,21,30)           110.0375         calculate D2E/DX2 analytically  !
 ! A44   A(22,21,31)           109.1379         calculate D2E/DX2 analytically  !
 ! A45   A(30,21,31)           108.0497         calculate D2E/DX2 analytically  !
 ! A46   A(21,22,23)           120.0366         calculate D2E/DX2 analytically  !
 ! A47   A(21,22,24)           122.004          calculate D2E/DX2 analytically  !
 ! A48   A(23,22,24)           117.9594         calculate D2E/DX2 analytically  !
 ! A49   A(22,23,25)           121.1526         calculate D2E/DX2 analytically  !
 ! A50   A(22,23,32)           118.8813         calculate D2E/DX2 analytically  !
 ! A51   A(25,23,32)           119.9166         calculate D2E/DX2 analytically  !
 ! A52   A(22,24,26)           121.0135         calculate D2E/DX2 analytically  !
 ! A53   A(22,24,33)           119.019          calculate D2E/DX2 analytically  !
 ! A54   A(26,24,33)           119.9672         calculate D2E/DX2 analytically  !
 ! A55   A(23,25,27)           120.1214         calculate D2E/DX2 analytically  !
 ! A56   A(23,25,34)           119.4609         calculate D2E/DX2 analytically  !
 ! A57   A(27,25,34)           120.3748         calculate D2E/DX2 analytically  !
 ! A58   A(24,26,27)           120.1283         calculate D2E/DX2 analytically  !
 ! A59   A(24,26,35)           119.4065         calculate D2E/DX2 analytically  !
 ! A60   A(27,26,35)           120.4648         calculate D2E/DX2 analytically  !
 ! A61   A(25,27,26)           119.4646         calculate D2E/DX2 analytically  !
 ! A62   A(25,27,36)           120.2158         calculate D2E/DX2 analytically  !
 ! A63   A(26,27,36)           120.3118         calculate D2E/DX2 analytically  !
 ! A64   A(19,37,38)           124.8797         calculate D2E/DX2 analytically  !
 ! A65   A(19,37,45)           109.7742         calculate D2E/DX2 analytically  !
 ! A66   A(38,37,45)           115.3939         calculate D2E/DX2 analytically  !
 ! A67   A(37,38,39)           112.249          calculate D2E/DX2 analytically  !
 ! A68   A(37,38,41)           110.3769         calculate D2E/DX2 analytically  !
 ! A69   A(37,38,46)           108.0629         calculate D2E/DX2 analytically  !
 ! A70   A(39,38,41)           113.4711         calculate D2E/DX2 analytically  !
 ! A71   A(39,38,46)           104.4658         calculate D2E/DX2 analytically  !
 ! A72   A(41,38,46)           107.8152         calculate D2E/DX2 analytically  !
 ! A73   A(38,39,40)           121.1307         calculate D2E/DX2 analytically  !
 ! A74   A(38,39,51)           117.3207         calculate D2E/DX2 analytically  !
 ! A75   A(40,39,51)           121.5402         calculate D2E/DX2 analytically  !
 ! A76   A(38,41,42)           116.2104         calculate D2E/DX2 analytically  !
 ! A77   A(38,41,47)           106.8481         calculate D2E/DX2 analytically  !
 ! A78   A(38,41,48)           109.5408         calculate D2E/DX2 analytically  !
 ! A79   A(42,41,47)           107.2557         calculate D2E/DX2 analytically  !
 ! A80   A(42,41,48)           109.5208         calculate D2E/DX2 analytically  !
 ! A81   A(47,41,48)           107.0372         calculate D2E/DX2 analytically  !
 ! A82   A(41,42,43)           115.1094         calculate D2E/DX2 analytically  !
 ! A83   A(41,42,44)           122.6112         calculate D2E/DX2 analytically  !
 ! A84   A(43,42,44)           122.2674         calculate D2E/DX2 analytically  !
 ! A85   A(42,43,49)           118.3399         calculate D2E/DX2 analytically  !
 ! A86   A(42,43,50)           121.7203         calculate D2E/DX2 analytically  !
 ! A87   A(49,43,50)           119.8752         calculate D2E/DX2 analytically  !
 ! A88   A(39,51,52)           118.7251         calculate D2E/DX2 analytically  !
 ! A89   A(39,51,63)           118.8695         calculate D2E/DX2 analytically  !
 ! A90   A(52,51,63)           122.4051         calculate D2E/DX2 analytically  !
 ! A91   A(51,52,53)           109.6917         calculate D2E/DX2 analytically  !
 ! A92   A(51,52,55)           114.9116         calculate D2E/DX2 analytically  !
 ! A93   A(51,52,64)           107.9463         calculate D2E/DX2 analytically  !
 ! A94   A(53,52,55)           111.7571         calculate D2E/DX2 analytically  !
 ! A95   A(53,52,64)           104.7367         calculate D2E/DX2 analytically  !
 ! A96   A(55,52,64)           107.1915         calculate D2E/DX2 analytically  !
 ! A97   A(52,53,54)           119.8305         calculate D2E/DX2 analytically  !
 ! A98   A(52,53,62)           112.8853         calculate D2E/DX2 analytically  !
 ! A99   A(54,53,62)           127.2575         calculate D2E/DX2 analytically  !
 ! A100  A(52,55,56)           120.0922         calculate D2E/DX2 analytically  !
 ! A101  A(52,55,65)           106.0227         calculate D2E/DX2 analytically  !
 ! A102  A(52,55,66)           107.0166         calculate D2E/DX2 analytically  !
 ! A103  A(56,55,65)           107.331          calculate D2E/DX2 analytically  !
 ! A104  A(56,55,66)           109.3702         calculate D2E/DX2 analytically  !
 ! A105  A(65,55,66)           106.1872         calculate D2E/DX2 analytically  !
 ! A106  A(55,56,57)           116.8732         calculate D2E/DX2 analytically  !
 ! A107  A(55,56,67)           110.6591         calculate D2E/DX2 analytically  !
 ! A108  A(55,56,68)           105.8232         calculate D2E/DX2 analytically  !
 ! A109  A(57,56,67)           109.3718         calculate D2E/DX2 analytically  !
 ! A110  A(57,56,68)           107.4248         calculate D2E/DX2 analytically  !
 ! A111  A(67,56,68)           106.0402         calculate D2E/DX2 analytically  !
 ! A112  A(56,57,58)           114.1113         calculate D2E/DX2 analytically  !
 ! A113  A(56,57,69)           110.1645         calculate D2E/DX2 analytically  !
 ! A114  A(56,57,70)           110.8789         calculate D2E/DX2 analytically  !
 ! A115  A(58,57,69)           108.8377         calculate D2E/DX2 analytically  !
 ! A116  A(58,57,70)           106.3313         calculate D2E/DX2 analytically  !
 ! A117  A(69,57,70)           106.1483         calculate D2E/DX2 analytically  !
 ! A118  A(57,58,59)           123.2616         calculate D2E/DX2 analytically  !
 ! A119  A(57,58,71)           112.1142         calculate D2E/DX2 analytically  !
 ! A120  A(59,58,71)           111.8825         calculate D2E/DX2 analytically  !
 ! A121  A(58,59,60)           119.4995         calculate D2E/DX2 analytically  !
 ! A122  A(58,59,61)           120.0185         calculate D2E/DX2 analytically  !
 ! A123  A(60,59,61)           120.3779         calculate D2E/DX2 analytically  !
 ! A124  A(59,60,72)           118.3704         calculate D2E/DX2 analytically  !
 ! A125  A(59,60,73)           117.8325         calculate D2E/DX2 analytically  !
 ! A126  A(72,60,73)           115.2393         calculate D2E/DX2 analytically  !
 ! A127  A(59,61,74)           119.2553         calculate D2E/DX2 analytically  !
 ! A128  A(59,61,75)           116.4295         calculate D2E/DX2 analytically  !
 ! A129  A(74,61,75)           117.0748         calculate D2E/DX2 analytically  !
 ! D1    D(9,1,2,3)            114.5525         calculate D2E/DX2 analytically  !
 ! D2    D(9,1,2,5)            -10.6067         calculate D2E/DX2 analytically  !
 ! D3    D(9,1,2,10)          -129.8994         calculate D2E/DX2 analytically  !
 ! D4    D(15,1,2,3)          -126.2865         calculate D2E/DX2 analytically  !
 ! D5    D(15,1,2,5)           108.5543         calculate D2E/DX2 analytically  !
 ! D6    D(15,1,2,10)          -10.7384         calculate D2E/DX2 analytically  !
 ! D7    D(16,1,2,3)            -6.5864         calculate D2E/DX2 analytically  !
 ! D8    D(16,1,2,5)          -131.7456         calculate D2E/DX2 analytically  !
 ! D9    D(16,1,2,10)          108.9617         calculate D2E/DX2 analytically  !
 ! D10   D(1,2,3,4)            112.4242         calculate D2E/DX2 analytically  !
 ! D11   D(1,2,3,17)           -69.0987         calculate D2E/DX2 analytically  !
 ! D12   D(5,2,3,4)           -122.427          calculate D2E/DX2 analytically  !
 ! D13   D(5,2,3,17)            56.05           calculate D2E/DX2 analytically  !
 ! D14   D(10,2,3,4)            -5.6166         calculate D2E/DX2 analytically  !
 ! D15   D(10,2,3,17)          172.8605         calculate D2E/DX2 analytically  !
 ! D16   D(1,2,5,6)            -68.4731         calculate D2E/DX2 analytically  !
 ! D17   D(1,2,5,11)            55.9187         calculate D2E/DX2 analytically  !
 ! D18   D(1,2,5,12)           173.9237         calculate D2E/DX2 analytically  !
 ! D19   D(3,2,5,6)            166.3749         calculate D2E/DX2 analytically  !
 ! D20   D(3,2,5,11)           -69.2332         calculate D2E/DX2 analytically  !
 ! D21   D(3,2,5,12)            48.7717         calculate D2E/DX2 analytically  !
 ! D22   D(10,2,5,6)            51.437          calculate D2E/DX2 analytically  !
 ! D23   D(10,2,5,11)          175.8289         calculate D2E/DX2 analytically  !
 ! D24   D(10,2,5,12)          -66.1662         calculate D2E/DX2 analytically  !
 ! D25   D(2,3,17,18)         -179.6829         calculate D2E/DX2 analytically  !
 ! D26   D(2,3,17,28)           11.5899         calculate D2E/DX2 analytically  !
 ! D27   D(4,3,17,18)           -1.2336         calculate D2E/DX2 analytically  !
 ! D28   D(4,3,17,28)         -169.9608         calculate D2E/DX2 analytically  !
 ! D29   D(2,5,6,7)            159.9997         calculate D2E/DX2 analytically  !
 ! D30   D(2,5,6,8)            -22.0142         calculate D2E/DX2 analytically  !
 ! D31   D(11,5,6,7)            35.4183         calculate D2E/DX2 analytically  !
 ! D32   D(11,5,6,8)          -146.5956         calculate D2E/DX2 analytically  !
 ! D33   D(12,5,6,7)           -80.9869         calculate D2E/DX2 analytically  !
 ! D34   D(12,5,6,8)            96.9992         calculate D2E/DX2 analytically  !
 ! D35   D(5,6,7,13)          -178.6431         calculate D2E/DX2 analytically  !
 ! D36   D(5,6,7,14)            -5.5407         calculate D2E/DX2 analytically  !
 ! D37   D(8,6,7,13)             3.3891         calculate D2E/DX2 analytically  !
 ! D38   D(8,6,7,14)           176.4916         calculate D2E/DX2 analytically  !
 ! D39   D(3,17,18,19)        -162.38           calculate D2E/DX2 analytically  !
 ! D40   D(3,17,18,21)          72.3086         calculate D2E/DX2 analytically  !
 ! D41   D(3,17,18,29)         -46.5693         calculate D2E/DX2 analytically  !
 ! D42   D(28,17,18,19)          6.3374         calculate D2E/DX2 analytically  !
 ! D43   D(28,17,18,21)       -118.9741         calculate D2E/DX2 analytically  !
 ! D44   D(28,17,18,29)        122.1481         calculate D2E/DX2 analytically  !
 ! D45   D(17,18,19,20)        -83.2418         calculate D2E/DX2 analytically  !
 ! D46   D(17,18,19,37)         97.5882         calculate D2E/DX2 analytically  !
 ! D47   D(21,18,19,20)         42.7022         calculate D2E/DX2 analytically  !
 ! D48   D(21,18,19,37)       -136.4678         calculate D2E/DX2 analytically  !
 ! D49   D(29,18,19,20)        160.8755         calculate D2E/DX2 analytically  !
 ! D50   D(29,18,19,37)        -18.2945         calculate D2E/DX2 analytically  !
 ! D51   D(17,18,21,22)         23.5334         calculate D2E/DX2 analytically  !
 ! D52   D(17,18,21,30)        146.4298         calculate D2E/DX2 analytically  !
 ! D53   D(17,18,21,31)        -98.2291         calculate D2E/DX2 analytically  !
 ! D54   D(19,18,21,22)       -100.0504         calculate D2E/DX2 analytically  !
 ! D55   D(19,18,21,30)         22.8459         calculate D2E/DX2 analytically  !
 ! D56   D(19,18,21,31)        138.187          calculate D2E/DX2 analytically  !
 ! D57   D(29,18,21,22)        142.131          calculate D2E/DX2 analytically  !
 ! D58   D(29,18,21,30)        -94.9727         calculate D2E/DX2 analytically  !
 ! D59   D(29,18,21,31)         20.3684         calculate D2E/DX2 analytically  !
 ! D60   D(18,19,37,38)        -31.0159         calculate D2E/DX2 analytically  !
 ! D61   D(18,19,37,45)       -174.734          calculate D2E/DX2 analytically  !
 ! D62   D(20,19,37,38)        149.8216         calculate D2E/DX2 analytically  !
 ! D63   D(20,19,37,45)          6.1035         calculate D2E/DX2 analytically  !
 ! D64   D(18,21,22,23)        -96.6459         calculate D2E/DX2 analytically  !
 ! D65   D(18,21,22,24)         83.3317         calculate D2E/DX2 analytically  !
 ! D66   D(30,21,22,23)        142.2319         calculate D2E/DX2 analytically  !
 ! D67   D(30,21,22,24)        -37.7905         calculate D2E/DX2 analytically  !
 ! D68   D(31,21,22,23)         23.8294         calculate D2E/DX2 analytically  !
 ! D69   D(31,21,22,24)       -156.1931         calculate D2E/DX2 analytically  !
 ! D70   D(21,22,23,25)        176.6361         calculate D2E/DX2 analytically  !
 ! D71   D(21,22,23,32)         -0.8027         calculate D2E/DX2 analytically  !
 ! D72   D(24,22,23,25)         -3.3424         calculate D2E/DX2 analytically  !
 ! D73   D(24,22,23,32)        179.2188         calculate D2E/DX2 analytically  !
 ! D74   D(21,22,24,26)       -175.5676         calculate D2E/DX2 analytically  !
 ! D75   D(21,22,24,33)          4.2399         calculate D2E/DX2 analytically  !
 ! D76   D(23,22,24,26)          4.4104         calculate D2E/DX2 analytically  !
 ! D77   D(23,22,24,33)       -175.7821         calculate D2E/DX2 analytically  !
 ! D78   D(22,23,25,27)         -0.109          calculate D2E/DX2 analytically  !
 ! D79   D(22,23,25,34)       -177.734          calculate D2E/DX2 analytically  !
 ! D80   D(32,23,25,27)        177.3036         calculate D2E/DX2 analytically  !
 ! D81   D(32,23,25,34)         -0.3214         calculate D2E/DX2 analytically  !
 ! D82   D(22,24,26,27)         -2.046          calculate D2E/DX2 analytically  !
 ! D83   D(22,24,26,35)        178.174          calculate D2E/DX2 analytically  !
 ! D84   D(33,24,26,27)        178.1483         calculate D2E/DX2 analytically  !
 ! D85   D(33,24,26,35)         -1.6316         calculate D2E/DX2 analytically  !
 ! D86   D(23,25,27,26)          2.5689         calculate D2E/DX2 analytically  !
 ! D87   D(23,25,27,36)       -178.4424         calculate D2E/DX2 analytically  !
 ! D88   D(34,25,27,26)       -179.828          calculate D2E/DX2 analytically  !
 ! D89   D(34,25,27,36)         -0.8393         calculate D2E/DX2 analytically  !
 ! D90   D(24,26,27,25)         -1.509          calculate D2E/DX2 analytically  !
 ! D91   D(24,26,27,36)        179.5033         calculate D2E/DX2 analytically  !
 ! D92   D(35,26,27,25)        178.2686         calculate D2E/DX2 analytically  !
 ! D93   D(35,26,27,36)         -0.7191         calculate D2E/DX2 analytically  !
 ! D94   D(19,37,38,39)        -63.2752         calculate D2E/DX2 analytically  !
 ! D95   D(19,37,38,41)        169.0626         calculate D2E/DX2 analytically  !
 ! D96   D(19,37,38,46)         51.3894         calculate D2E/DX2 analytically  !
 ! D97   D(45,37,38,39)         78.6695         calculate D2E/DX2 analytically  !
 ! D98   D(45,37,38,41)        -48.9927         calculate D2E/DX2 analytically  !
 ! D99   D(45,37,38,46)       -166.6659         calculate D2E/DX2 analytically  !
 ! D100  D(37,38,39,40)        126.2309         calculate D2E/DX2 analytically  !
 ! D101  D(37,38,39,51)        -52.729          calculate D2E/DX2 analytically  !
 ! D102  D(41,38,39,40)       -107.7701         calculate D2E/DX2 analytically  !
 ! D103  D(41,38,39,51)         73.27           calculate D2E/DX2 analytically  !
 ! D104  D(46,38,39,40)          9.3904         calculate D2E/DX2 analytically  !
 ! D105  D(46,38,39,51)       -169.5695         calculate D2E/DX2 analytically  !
 ! D106  D(37,38,41,42)         61.3521         calculate D2E/DX2 analytically  !
 ! D107  D(37,38,41,47)        -58.2875         calculate D2E/DX2 analytically  !
 ! D108  D(37,38,41,48)       -173.9026         calculate D2E/DX2 analytically  !
 ! D109  D(39,38,41,42)        -65.6343         calculate D2E/DX2 analytically  !
 ! D110  D(39,38,41,47)        174.7261         calculate D2E/DX2 analytically  !
 ! D111  D(39,38,41,48)         59.111          calculate D2E/DX2 analytically  !
 ! D112  D(46,38,41,42)        179.1777         calculate D2E/DX2 analytically  !
 ! D113  D(46,38,41,47)         59.5381         calculate D2E/DX2 analytically  !
 ! D114  D(46,38,41,48)        -56.077          calculate D2E/DX2 analytically  !
 ! D115  D(38,39,51,52)        172.7123         calculate D2E/DX2 analytically  !
 ! D116  D(38,39,51,63)         -7.4558         calculate D2E/DX2 analytically  !
 ! D117  D(40,39,51,52)         -6.2431         calculate D2E/DX2 analytically  !
 ! D118  D(40,39,51,63)        173.5888         calculate D2E/DX2 analytically  !
 ! D119  D(38,41,42,43)        160.7349         calculate D2E/DX2 analytically  !
 ! D120  D(38,41,42,44)        -20.4924         calculate D2E/DX2 analytically  !
 ! D121  D(47,41,42,43)        -79.8463         calculate D2E/DX2 analytically  !
 ! D122  D(47,41,42,44)         98.9264         calculate D2E/DX2 analytically  !
 ! D123  D(48,41,42,43)         35.9794         calculate D2E/DX2 analytically  !
 ! D124  D(48,41,42,44)       -145.2479         calculate D2E/DX2 analytically  !
 ! D125  D(41,42,43,49)       -179.407          calculate D2E/DX2 analytically  !
 ! D126  D(41,42,43,50)         -2.3353         calculate D2E/DX2 analytically  !
 ! D127  D(44,42,43,49)          1.8157         calculate D2E/DX2 analytically  !
 ! D128  D(44,42,43,50)        178.8874         calculate D2E/DX2 analytically  !
 ! D129  D(39,51,52,53)        -60.7236         calculate D2E/DX2 analytically  !
 ! D130  D(39,51,52,55)        172.3852         calculate D2E/DX2 analytically  !
 ! D131  D(39,51,52,64)         52.8489         calculate D2E/DX2 analytically  !
 ! D132  D(63,51,52,53)        119.4507         calculate D2E/DX2 analytically  !
 ! D133  D(63,51,52,55)         -7.4405         calculate D2E/DX2 analytically  !
 ! D134  D(63,51,52,64)       -126.9768         calculate D2E/DX2 analytically  !
 ! D135  D(51,52,53,54)        -33.4503         calculate D2E/DX2 analytically  !
 ! D136  D(51,52,53,62)        148.2965         calculate D2E/DX2 analytically  !
 ! D137  D(55,52,53,54)         95.1975         calculate D2E/DX2 analytically  !
 ! D138  D(55,52,53,62)        -83.0557         calculate D2E/DX2 analytically  !
 ! D139  D(64,52,53,54)       -149.0785         calculate D2E/DX2 analytically  !
 ! D140  D(64,52,53,62)         32.6682         calculate D2E/DX2 analytically  !
 ! D141  D(51,52,55,56)         74.876          calculate D2E/DX2 analytically  !
 ! D142  D(51,52,55,65)       -163.4808         calculate D2E/DX2 analytically  !
 ! D143  D(51,52,55,66)        -50.4509         calculate D2E/DX2 analytically  !
 ! D144  D(53,52,55,56)        -50.9536         calculate D2E/DX2 analytically  !
 ! D145  D(53,52,55,65)         70.6895         calculate D2E/DX2 analytically  !
 ! D146  D(53,52,55,66)       -176.2805         calculate D2E/DX2 analytically  !
 ! D147  D(64,52,55,56)       -165.1695         calculate D2E/DX2 analytically  !
 ! D148  D(64,52,55,65)        -43.5263         calculate D2E/DX2 analytically  !
 ! D149  D(64,52,55,66)         69.5037         calculate D2E/DX2 analytically  !
 ! D150  D(52,55,56,57)        -62.4653         calculate D2E/DX2 analytically  !
 ! D151  D(52,55,56,67)         63.5836         calculate D2E/DX2 analytically  !
 ! D152  D(52,55,56,68)        178.0268         calculate D2E/DX2 analytically  !
 ! D153  D(65,55,56,57)        176.5356         calculate D2E/DX2 analytically  !
 ! D154  D(65,55,56,67)        -57.4155         calculate D2E/DX2 analytically  !
 ! D155  D(65,55,56,68)         57.0277         calculate D2E/DX2 analytically  !
 ! D156  D(66,55,56,57)         61.7473         calculate D2E/DX2 analytically  !
 ! D157  D(66,55,56,67)       -172.2038         calculate D2E/DX2 analytically  !
 ! D158  D(66,55,56,68)        -57.7607         calculate D2E/DX2 analytically  !
 ! D159  D(55,56,57,58)         94.4637         calculate D2E/DX2 analytically  !
 ! D160  D(55,56,57,69)       -142.7706         calculate D2E/DX2 analytically  !
 ! D161  D(55,56,57,70)        -25.5652         calculate D2E/DX2 analytically  !
 ! D162  D(67,56,57,58)        -32.222          calculate D2E/DX2 analytically  !
 ! D163  D(67,56,57,69)         90.5437         calculate D2E/DX2 analytically  !
 ! D164  D(67,56,57,70)       -152.2509         calculate D2E/DX2 analytically  !
 ! D165  D(68,56,57,58)       -146.8883         calculate D2E/DX2 analytically  !
 ! D166  D(68,56,57,69)        -24.1226         calculate D2E/DX2 analytically  !
 ! D167  D(68,56,57,70)         93.0828         calculate D2E/DX2 analytically  !
 ! D168  D(56,57,58,59)         72.6787         calculate D2E/DX2 analytically  !
 ! D169  D(56,57,58,71)        -65.7084         calculate D2E/DX2 analytically  !
 ! D170  D(69,57,58,59)        -50.807          calculate D2E/DX2 analytically  !
 ! D171  D(69,57,58,71)        170.8058         calculate D2E/DX2 analytically  !
 ! D172  D(70,57,58,59)       -164.7725         calculate D2E/DX2 analytically  !
 ! D173  D(70,57,58,71)         56.8403         calculate D2E/DX2 analytically  !
 ! D174  D(57,58,59,60)         24.3551         calculate D2E/DX2 analytically  !
 ! D175  D(57,58,59,61)       -151.9503         calculate D2E/DX2 analytically  !
 ! D176  D(71,58,59,60)        162.8253         calculate D2E/DX2 analytically  !
 ! D177  D(71,58,59,61)        -13.4801         calculate D2E/DX2 analytically  !
 ! D178  D(58,59,60,72)        167.8799         calculate D2E/DX2 analytically  !
 ! D179  D(58,59,60,73)         21.4596         calculate D2E/DX2 analytically  !
 ! D180  D(61,59,60,72)        -15.8283         calculate D2E/DX2 analytically  !
 ! D181  D(61,59,60,73)       -162.2486         calculate D2E/DX2 analytically  !
 ! D182  D(58,59,61,74)       -161.6016         calculate D2E/DX2 analytically  !
 ! D183  D(58,59,61,75)        -12.1721         calculate D2E/DX2 analytically  !
 ! D184  D(60,59,61,74)         22.1258         calculate D2E/DX2 analytically  !
 ! D185  D(60,59,61,75)        171.5554         calculate D2E/DX2 analytically  !
 --------------------------------------------------------------------------------
 Trust Radius=3.00D-01 FncErr=1.00D-07 GrdErr=1.00D-06 EigMax=2.50D+02 EigMin=1.00D-04
 Number of steps in this run=    399 maximum allowed number of steps=    450.
 GradGradGradGradGradGradGradGradGradGradGradGradGradGradGradGradGradGrad

 Symmetry turned off by external request.
 Stoichiometry    C23H36N9O7(1+)
 Framework group  C1[X(C23H36N9O7)]
 Deg. of freedom   219
 Full point group                 C1      NOp   1
                          Input orientation:                          
 ---------------------------------------------------------------------
 Center     Atomic      Atomic             Coordinates (Angstroms)
 Number     Number       Type             X           Y           Z
 ---------------------------------------------------------------------
      1          7           0       -9.381694    0.387782   -6.306701
      2          6           0      -10.020392   -0.946497   -6.271877
      3          6           0       -9.062766   -2.008659   -5.744891
      4          8           0       -9.257817   -2.556827   -4.666099
      5          6           0      -10.582363   -1.330291   -7.635247
      6          6           0      -11.766875   -0.447508   -7.986679
      7          7           0      -12.069374   -0.404292   -9.313980
      8          8           0      -12.413209    0.140913   -7.138402
      9          1           0       -9.253309    0.782679   -7.262296
     10          1           0      -10.845120   -0.929643   -5.558012
     11          1           0       -9.819013   -1.293809   -8.408486
     12          1           0      -10.947054   -2.357137   -7.600590
     13          1           0      -12.832185    0.181377   -9.606591
     14          1           0      -11.491346   -0.855383   -9.999470
     15          1           0       -9.981945    1.036466   -5.791448
     16          1           0       -8.442696    0.382025   -5.867602
     17          7           0       -8.019536   -2.323617   -6.547951
     18          6           0       -7.067739   -3.328618   -6.123070
     19          6           0       -5.781181   -3.185697   -6.964119
     20          8           0       -5.681902   -3.699306   -8.088142
     21          6           0       -7.637052   -4.763813   -6.172877
     22          6           0       -8.789754   -4.981401   -7.117636
     23          6           0      -10.103115   -4.941414   -6.640085
     24          6           0       -8.595349   -5.225640   -8.477226
     25          6           0      -11.187506   -5.070249   -7.503373
     26          6           0       -9.679391   -5.333444   -9.351190
     27          6           0      -10.977346   -5.239954   -8.866606
     28          1           0       -7.812571   -1.742928   -7.352757
     29          1           0       -6.804649   -3.110592   -5.092614
     30          1           0       -6.805786   -5.422465   -6.438212
     31          1           0       -7.954192   -5.011474   -5.158536
     32          1           0      -10.271237   -4.765171   -5.582138
     33          1           0       -7.587046   -5.328670   -8.852473
     34          1           0      -12.195957   -4.998203   -7.108256
     35          1           0       -9.497447   -5.493886  -10.407413
     36          1           0      -11.820227   -5.315121   -9.542980
     37          7           0       -4.754272   -2.474663   -6.387070
     38          6           0       -4.926886   -1.375365   -5.456745
     39          6           0       -5.648216   -0.187276   -6.092276
     40          8           0       -6.650944    0.293624   -5.578297
     41          6           0       -3.591063   -1.004770   -4.818268
     42          6           0       -2.501189   -0.530784   -5.767646
     43          7           0       -1.497699    0.164059   -5.187568
     44          8           0       -2.516662   -0.779020   -6.967108
     45          1           0       -3.994795   -2.366930   -7.052314
     46          1           0       -5.595299   -1.706554   -4.662798
     47          1           0       -3.218723   -1.902154   -4.319876
     48          1           0       -3.752823   -0.252056   -4.043330
     49          1           0       -0.756075    0.508347   -5.771663
     50          1           0       -1.501457    0.377105   -4.206269
     51          7           0       -5.149075    0.293068   -7.248521
     52          6           0       -5.890252    1.302848   -7.954578
     53          6           0       -7.287636    0.746585   -8.350485
     54          8           0       -7.415838   -0.453182   -8.634556
     55          6           0       -5.167781    1.912205   -9.146142
     56          6           0       -5.028842    1.118281  -10.447565
     57          6           0       -4.231871   -0.191925  -10.379372
     58          7           0       -5.064205   -1.394533  -10.165785
     59          6           0       -5.855586   -1.920280  -11.114350
     60          7           0       -5.574379   -1.693800  -12.415765
     61          7           0       -6.959578   -2.602907  -10.766463
     62          8           0       -8.167730    1.622384   -8.371721
     63          1           0       -4.270015   -0.065969   -7.585247
     64          1           0       -6.102075    2.114093   -7.256576
     65          1           0       -5.704301    2.838160   -9.384155
     66          1           0       -4.174770    2.215605   -8.797973
     67          1           0       -6.009278    0.923321  -10.886337
     68          1           0       -4.510300    1.781477  -11.148029
     69          1           0       -3.647933   -0.325002  -11.291746
     70          1           0       -3.513388   -0.167233   -9.560639
     71          1           0       -5.513864   -1.390637   -9.258754
     72          1           0       -6.058245   -2.239188  -13.112538
     73          1           0       -4.630262   -1.430639  -12.654767
     74          1           0       -7.388278   -3.219993  -11.436852
     75          1           0       -7.045753   -2.853632   -9.786517
 ---------------------------------------------------------------------
 Rotational constants (GHZ):           0.1269639           0.0771729           0.0748358
 Standard basis: 6-31G(d) (6D, 7F)
   657 basis functions,  1236 primitive gaussians,   657 cartesian basis functions
   146 alpha electrons      146 beta electrons
       nuclear repulsion energy      5185.8427817609 Hartrees.
 NAtoms=   75 NActive=   75 NUniq=   75 SFac= 1.00D+00 NAtFMM=   60 NAOKFM=T Big=T
 Integral buffers will be    131072 words long.
 Raffenetti 2 integral format.
 Two-electron integral symmetry is turned off.
 Nuclear repulsion after empirical dispersion term =     5185.7208648443 Hartrees.
 One-electron integrals computed using PRISM.
 NBasis=   657 RedAO= T EigKep=  4.50D-04  NBF=   657
 NBsUse=   657 1.00D-06 EigRej= -1.00D+00 NBFU=   657
 ExpMin= 1.61D-01 ExpMax= 5.48D+03 ExpMxC= 8.25D+02 IAcc=3 IRadAn=         5 AccDes= 0.00D+00
 Harris functional with IExCor=  402 and IRadAn=       5 diagonalized for initial guess.
 HarFok:  IExCor=  402 AccDes= 0.00D+00 IRadAn=         5 IDoV= 1 UseB2=F ITyADJ=14
 ICtDFT=  3500011 ScaDFX=  1.000000  1.000000  1.000000  1.000000
 FoFCou: FMM=F IPFlag=           0 FMFlag=      100000 FMFlg1=        2001
         NFxFlg=           0 DoJE=T BraDBF=F KetDBF=T FulRan=T
         wScrn=  0.000000 ICntrl=       500 IOpCl=  0 I1Cent=   200000004 NGrid=           0
         NMat0=    1 NMatS0=      1 NMatT0=    0 NMatD0=    1 NMtDS0=    0 NMtDT0=    0
 Symmetry not used in FoFCou.
 Requested convergence on RMS density matrix=1.00D-08 within 128 cycles.
 Requested convergence on MAX density matrix=1.00D-06.
 Requested convergence on             energy=1.00D-06.
 No special actions if energy rises.
 Integral accuracy reduced to 1.0D-05 until final iterations.
 Initial convergence to 1.0D-05 achieved.  Increase integral accuracy.
 SCF Done:  E(RB3LYP) =  -1917.48928037     A.U. after   15 cycles
            NFock= 15  Conv=0.34D-08     -V/T= 2.0089
 DoSCS=F DFT=T ScalE2(SS,OS)=  1.000000  1.000000
 Range of M.O.s used for correlation:     1   657
 NBasis=   657 NAE=   146 NBE=   146 NFC=     0 NFV=     0
 NROrb=    657 NOA=   146 NOB=   146 NVA=   511 NVB=   511
 Symmetrizing basis deriv contribution to polar:
 IMax=3 JMax=2 DiffMx= 0.00D+00
 G2DrvN: will do    76 centers at a time, making    1 passes.
 Calling FoFCou, ICntrl=  3107 FMM=T I1Cent=   0 AccDes= 0.00D+00.
 End of G2Drv F.D. properties file   721 does not exist.
 End of G2Drv F.D. properties file   722 does not exist.
 End of G2Drv F.D. properties file   788 does not exist.
          IDoAtm=11111111111111111111111111111111111111111111111111
          IDoAtm=1111111111111111111111111
          Differentiating once with respect to nuclear coordinates.
 CalDSu exits because no D1Ps are significant.
          There are   228 degrees of freedom in the 1st order CPHF.  IDoFFX=6 NUNeed=     0.
    222 vectors produced by pass  0 Test12= 7.46D-14 1.00D-09 XBig12= 2.30D-01 1.15D-01.
 AX will form    72 AO Fock derivatives at one time.
    222 vectors produced by pass  1 Test12= 7.46D-14 1.00D-09 XBig12= 1.74D-02 2.18D-02.
    222 vectors produced by pass  2 Test12= 7.46D-14 1.00D-09 XBig12= 1.02D-04 1.14D-03.
    222 vectors produced by pass  3 Test12= 7.46D-14 1.00D-09 XBig12= 3.18D-07 4.84D-05.
    222 vectors produced by pass  4 Test12= 7.46D-14 1.00D-09 XBig12= 4.67D-10 1.87D-06.
    181 vectors produced by pass  5 Test12= 7.46D-14 1.00D-09 XBig12= 4.86D-13 5.99D-08.
      9 vectors produced by pass  6 Test12= 7.46D-14 1.00D-09 XBig12= 4.88D-16 2.73D-09.
 InvSVY:  IOpt=1 It=  1 EMax= 7.22D-16
 Solved reduced A of dimension  1300 with   228 vectors.
 End of Minotr F.D. properties file   721 does not exist.
 End of Minotr F.D. properties file   722 does not exist.
 End of Minotr F.D. properties file   788 does not exist.

 **********************************************************************

            Population analysis using the SCF Density.

 **********************************************************************

 Alpha  occ. eigenvalues --  -19.24130 -19.23421 -19.23298 -19.20734 -19.19946
 Alpha  occ. eigenvalues --  -19.19589 -19.17765 -14.52687 -14.51579 -14.50476
 Alpha  occ. eigenvalues --  -14.49789 -14.47554 -14.46979 -14.46221 -14.44711
 Alpha  occ. eigenvalues --  -14.43988 -10.47043 -10.41623 -10.40232 -10.39723
 Alpha  occ. eigenvalues --  -10.37960 -10.37618 -10.36069 -10.35350 -10.35163
 Alpha  occ. eigenvalues --  -10.34361 -10.32763 -10.32005 -10.30903 -10.29581
 Alpha  occ. eigenvalues --  -10.29001 -10.28838 -10.27147 -10.26967 -10.26772
 Alpha  occ. eigenvalues --  -10.26410 -10.26303 -10.26280 -10.25892  -1.16490
 Alpha  occ. eigenvalues --   -1.15803  -1.15642  -1.14442  -1.13359  -1.12988
 Alpha  occ. eigenvalues --   -1.12211  -1.08645  -1.04952  -1.04663  -1.04220
 Alpha  occ. eigenvalues --   -1.03979  -1.02978  -1.02679  -1.01774  -0.98996
 Alpha  occ. eigenvalues --   -0.93347  -0.90985  -0.90066  -0.89226  -0.86653
 Alpha  occ. eigenvalues --   -0.85264  -0.82454  -0.81987  -0.80778  -0.78767
 Alpha  occ. eigenvalues --   -0.78182  -0.76360  -0.75278  -0.72935  -0.71519
 Alpha  occ. eigenvalues --   -0.71331  -0.70190  -0.69600  -0.68905  -0.68340
 Alpha  occ. eigenvalues --   -0.68090  -0.67827  -0.67394  -0.66152  -0.65793
 Alpha  occ. eigenvalues --   -0.65448  -0.64578  -0.63574  -0.63346  -0.63097
 Alpha  occ. eigenvalues --   -0.61925  -0.61375  -0.60514  -0.60028  -0.59767
 Alpha  occ. eigenvalues --   -0.58745  -0.58290  -0.57870  -0.57300  -0.56627
 Alpha  occ. eigenvalues --   -0.56471  -0.56170  -0.55281  -0.54860  -0.54342
 Alpha  occ. eigenvalues --   -0.53795  -0.53666  -0.53216  -0.52970  -0.52462
 Alpha  occ. eigenvalues --   -0.52340  -0.51986  -0.51450  -0.50939  -0.50787
 Alpha  occ. eigenvalues --   -0.50161  -0.49635  -0.49328  -0.49194  -0.48896
 Alpha  occ. eigenvalues --   -0.48429  -0.48365  -0.47385  -0.47314  -0.46537
 Alpha  occ. eigenvalues --   -0.46248  -0.45783  -0.45527  -0.45171  -0.44910
 Alpha  occ. eigenvalues --   -0.43498  -0.43208  -0.42410  -0.41381  -0.41220
 Alpha  occ. eigenvalues --   -0.39867  -0.39508  -0.39106  -0.37968  -0.37434
 Alpha  occ. eigenvalues --   -0.36490  -0.35639  -0.35302  -0.35003  -0.34748
 Alpha  occ. eigenvalues --   -0.34548  -0.33790  -0.33525  -0.32617  -0.32092
 Alpha  occ. eigenvalues --   -0.31796
 Alpha virt. eigenvalues --   -0.12230  -0.10844  -0.10047  -0.09796  -0.08209
 Alpha virt. eigenvalues --   -0.08018  -0.07559  -0.07216  -0.05916  -0.04786
 Alpha virt. eigenvalues --   -0.04225  -0.03268  -0.02765  -0.02135  -0.01450
 Alpha virt. eigenvalues --   -0.00686  -0.00325   0.00298   0.01109   0.01843
 Alpha virt. eigenvalues --    0.02470   0.02903   0.03726   0.03923   0.04250
 Alpha virt. eigenvalues --    0.04552   0.05332   0.05594   0.05835   0.05946
 Alpha virt. eigenvalues --    0.06273   0.06446   0.06686   0.07121   0.07679
 Alpha virt. eigenvalues --    0.08070   0.08310   0.08492   0.09096   0.09120
 Alpha virt. eigenvalues --    0.09586   0.09742   0.09933   0.10541   0.10639
 Alpha virt. eigenvalues --    0.11236   0.11836   0.12226   0.12531   0.13060
 Alpha virt. eigenvalues --    0.13533   0.14093   0.14219   0.14853   0.15157
 Alpha virt. eigenvalues --    0.16050   0.16783   0.17045   0.17366   0.17918
 Alpha virt. eigenvalues --    0.18847   0.19353   0.19950   0.20655   0.22792
 Alpha virt. eigenvalues --    0.23215   0.23465   0.23934   0.24438   0.24682
 Alpha virt. eigenvalues --    0.25342   0.25727   0.26870   0.27212   0.27616
 Alpha virt. eigenvalues --    0.28176   0.28503   0.29672   0.29971   0.30857
 Alpha virt. eigenvalues --    0.33190   0.34407   0.35304   0.37240   0.38461
 Alpha virt. eigenvalues --    0.38971   0.39050   0.40181   0.40607   0.40839
 Alpha virt. eigenvalues --    0.42130   0.42258   0.42485   0.42872   0.43199
 Alpha virt. eigenvalues --    0.44271   0.44930   0.45214   0.45877   0.46378
 Alpha virt. eigenvalues --    0.46788   0.47770   0.48280   0.48541   0.48579
 Alpha virt. eigenvalues --    0.49103   0.49462   0.49690   0.49977   0.50183
 Alpha virt. eigenvalues --    0.50742   0.50977   0.51559   0.51759   0.52159
 Alpha virt. eigenvalues --    0.52477   0.52912   0.53500   0.53682   0.54108
 Alpha virt. eigenvalues --    0.54556   0.55016   0.55298   0.55519   0.55745
 Alpha virt. eigenvalues --    0.56242   0.56343   0.56607   0.57293   0.57436
 Alpha virt. eigenvalues --    0.57757   0.58303   0.58929   0.59250   0.60038
 Alpha virt. eigenvalues --    0.60314   0.60835   0.61406   0.62059   0.62221
 Alpha virt. eigenvalues --    0.62746   0.63174   0.63649   0.64415   0.64532
 Alpha virt. eigenvalues --    0.64880   0.65305   0.65627   0.66657   0.66903
 Alpha virt. eigenvalues --    0.67616   0.68887   0.69292   0.69591   0.70298
 Alpha virt. eigenvalues --    0.71171   0.71479   0.72085   0.72348   0.72923
 Alpha virt. eigenvalues --    0.73428   0.73549   0.74337   0.74825   0.75405
 Alpha virt. eigenvalues --    0.75917   0.76288   0.76535   0.76697   0.76991
 Alpha virt. eigenvalues --    0.77253   0.77754   0.78267   0.78458   0.78780
 Alpha virt. eigenvalues --    0.79005   0.79523   0.79773   0.79939   0.80523
 Alpha virt. eigenvalues --    0.80729   0.80773   0.81174   0.81474   0.82165
 Alpha virt. eigenvalues --    0.82490   0.82778   0.83633   0.84143   0.84271
 Alpha virt. eigenvalues --    0.84589   0.85851   0.86113   0.86638   0.86833
 Alpha virt. eigenvalues --    0.87281   0.87520   0.88066   0.88304   0.88950
 Alpha virt. eigenvalues --    0.89491   0.90777   0.90927   0.91196   0.92001
 Alpha virt. eigenvalues --    0.92316   0.92788   0.93357   0.93819   0.95210
 Alpha virt. eigenvalues --    0.96084   0.96732   0.98071   0.98518   0.98872
 Alpha virt. eigenvalues --    1.00402   1.00493   1.01138   1.02129   1.02676
 Alpha virt. eigenvalues --    1.03753   1.04647   1.05121   1.06065   1.06402
 Alpha virt. eigenvalues --    1.07297   1.07770   1.08376   1.08692   1.09446
 Alpha virt. eigenvalues --    1.10034   1.11223   1.11665   1.12418   1.12721
 Alpha virt. eigenvalues --    1.13724   1.14091   1.15158   1.15467   1.16869
 Alpha virt. eigenvalues --    1.18120   1.18961   1.19290   1.19692   1.19820
 Alpha virt. eigenvalues --    1.20976   1.21238   1.22229   1.22354   1.23403
 Alpha virt. eigenvalues --    1.23624   1.25477   1.26203   1.26332   1.27205
 Alpha virt. eigenvalues --    1.27607   1.29273   1.29699   1.31415   1.31809
 Alpha virt. eigenvalues --    1.32515   1.33451   1.33711   1.34664   1.35990
 Alpha virt. eigenvalues --    1.36295   1.37035   1.37486   1.38640   1.38929
 Alpha virt. eigenvalues --    1.40849   1.41431   1.41746   1.42448   1.44094
 Alpha virt. eigenvalues --    1.44373   1.45551   1.45735   1.47169   1.47493
 Alpha virt. eigenvalues --    1.49061   1.50617   1.50923   1.51444   1.52467
 Alpha virt. eigenvalues --    1.53135   1.53437   1.55584   1.56351   1.57075
 Alpha virt. eigenvalues --    1.57409   1.58048   1.59015   1.59487   1.59585
 Alpha virt. eigenvalues --    1.60533   1.61905   1.62705   1.62858   1.64125
 Alpha virt. eigenvalues --    1.64672   1.65420   1.65759   1.66915   1.67469
 Alpha virt. eigenvalues --    1.67930   1.68556   1.69457   1.69840   1.70846
 Alpha virt. eigenvalues --    1.71567   1.71602   1.72500   1.73009   1.73561
 Alpha virt. eigenvalues --    1.74112   1.74687   1.74925   1.75502   1.76314
 Alpha virt. eigenvalues --    1.76815   1.77618   1.78040   1.78185   1.79212
 Alpha virt. eigenvalues --    1.79456   1.80139   1.80699   1.81079   1.82064
 Alpha virt. eigenvalues --    1.82585   1.83051   1.84127   1.84460   1.85093
 Alpha virt. eigenvalues --    1.85406   1.86069   1.86430   1.86940   1.87631
 Alpha virt. eigenvalues --    1.88953   1.89122   1.89960   1.90319   1.91823
 Alpha virt. eigenvalues --    1.92263   1.92786   1.93245   1.93780   1.94386
 Alpha virt. eigenvalues --    1.94646   1.95060   1.96216   1.96467   1.96918
 Alpha virt. eigenvalues --    1.97593   1.98544   1.99031   1.99238   2.00271
 Alpha virt. eigenvalues --    2.00951   2.02283   2.03026   2.04646   2.05031
 Alpha virt. eigenvalues --    2.05322   2.06029   2.06721   2.07583   2.07672
 Alpha virt. eigenvalues --    2.07898   2.08481   2.08954   2.10976   2.12437
 Alpha virt. eigenvalues --    2.13424   2.14199   2.14400   2.15099   2.15437
 Alpha virt. eigenvalues --    2.16190   2.16600   2.17564   2.17857   2.18681
 Alpha virt. eigenvalues --    2.19181   2.19634   2.20805   2.21529   2.21758
 Alpha virt. eigenvalues --    2.22162   2.23969   2.24544   2.25551   2.25983
 Alpha virt. eigenvalues --    2.27237   2.28515   2.29188   2.29829   2.30826
 Alpha virt. eigenvalues --    2.31670   2.32241   2.32891   2.34121   2.34925
 Alpha virt. eigenvalues --    2.36451   2.37134   2.38574   2.39458   2.40299
 Alpha virt. eigenvalues --    2.40831   2.41890   2.42429   2.43592   2.43990
 Alpha virt. eigenvalues --    2.44445   2.46336   2.46497   2.47773   2.48843
 Alpha virt. eigenvalues --    2.49751   2.50877   2.51126   2.51534   2.52564
 Alpha virt. eigenvalues --    2.53420   2.54412   2.55165   2.55862   2.56536
 Alpha virt. eigenvalues --    2.57075   2.58627   2.59152   2.59695   2.60691
 Alpha virt. eigenvalues --    2.60975   2.61630   2.63132   2.65251   2.65790
 Alpha virt. eigenvalues --    2.67367   2.67697   2.67889   2.68473   2.68866
 Alpha virt. eigenvalues --    2.70390   2.70858   2.74186   2.75219   2.79208
 Alpha virt. eigenvalues --    2.79788   2.82698   2.85143   2.85656   2.87153
 Alpha virt. eigenvalues --    2.88563   2.90647   2.91543   2.92946   2.93351
 Alpha virt. eigenvalues --    2.93896   2.94011   2.95861   2.98945   2.99319
 Alpha virt. eigenvalues --    3.01323   3.01511   3.02501   3.08952   3.09750
 Alpha virt. eigenvalues --    3.13408   3.35039   3.68123   3.69851   3.72995
 Alpha virt. eigenvalues --    3.78572   3.82094   3.88120   3.90489   3.92854
 Alpha virt. eigenvalues --    3.98484   3.99207   4.01484   4.02851   4.03426
 Alpha virt. eigenvalues --    4.08054   4.09454   4.11601   4.12115   4.14392
 Alpha virt. eigenvalues --    4.15494   4.17216   4.19660   4.22991   4.26546
 Alpha virt. eigenvalues --    4.28717   4.30062   4.34189   4.36242   4.38118
 Alpha virt. eigenvalues --    4.39901   4.41986   4.43437   4.44820   4.50556
 Alpha virt. eigenvalues --    4.53482   4.57797   4.64266   4.66817   4.69982
 Alpha virt. eigenvalues --    4.72255
          Condensed to atoms (all electrons):
 Mulliken charges:
               1
     1  N   -0.808515
     2  C   -0.080012
     3  C    0.595557
     4  O   -0.511500
     5  C   -0.430378
     6  C    0.606646
     7  N   -0.743739
     8  O   -0.505817
     9  H    0.435696
    10  H    0.231798
    11  H    0.189329
    12  H    0.227584
    13  H    0.358627
    14  H    0.344002
    15  H    0.408757
    16  H    0.454926
    17  N   -0.667277
    18  C    0.027742
    19  C    0.539087
    20  O   -0.530068
    21  C   -0.381656
    22  C    0.179383
    23  C   -0.198378
    24  C   -0.203341
    25  C   -0.143036
    26  C   -0.135884
    27  C   -0.132080
    28  H    0.407557
    29  H    0.172761
    30  H    0.173115
    31  H    0.182032
    32  H    0.165700
    33  H    0.140349
    34  H    0.149694
    35  H    0.117703
    36  H    0.141563
    37  N   -0.580929
    38  C   -0.095698
    39  C    0.640956
    40  O   -0.565693
    41  C   -0.394219
    42  C    0.618574
    43  N   -0.727207
    44  O   -0.541104
    45  H    0.355543
    46  H    0.204767
    47  H    0.217894
    48  H    0.192100
    49  H    0.366254
    50  H    0.364362
    51  N   -0.630462
    52  C   -0.019572
    53  C    0.584502
    54  O   -0.616965
    55  C   -0.318143
    56  C   -0.277413
    57  C   -0.209186
    58  N   -0.572390
    59  C    0.760226
    60  N   -0.731417
    61  N   -0.734124
    62  O   -0.586665
    63  H    0.374102
    64  H    0.179127
    65  H    0.192533
    66  H    0.152058
    67  H    0.180780
    68  H    0.166971
    69  H    0.163190
    70  H    0.204251
    71  H    0.382854
    72  H    0.370307
    73  H    0.380091
    74  H    0.362128
    75  H    0.409691
 Sum of Mulliken charges =   1.00000
 Mulliken charges with hydrogens summed into heavy atoms:
               1
     1  N    0.490865
     2  C    0.151786
     3  C    0.595557
     4  O   -0.511500
     5  C   -0.013465
     6  C    0.606646
     7  N   -0.041109
     8  O   -0.505817
    17  N   -0.259720
    18  C    0.200503
    19  C    0.539087
    20  O   -0.530068
    21  C   -0.026510
    22  C    0.179383
    23  C   -0.032678
    24  C   -0.062993
    25  C    0.006658
    26  C   -0.018181
    27  C    0.009484
    37  N   -0.225386
    38  C    0.109069
    39  C    0.640956
    40  O   -0.565693
    41  C    0.015775
    42  C    0.618574
    43  N    0.003408
    44  O   -0.541104
    51  N   -0.256360
    52  C    0.159554
    53  C    0.584502
    54  O   -0.616965
    55  C    0.026448
    56  C    0.070338
    57  C    0.158255
    58  N   -0.189536
    59  C    0.760226
    60  N    0.018982
    61  N    0.037694
    62  O   -0.586665
 APT charges:
               1
     1  N   -0.286164
     2  C   -1.077753
     3  C    1.516731
     4  O   -1.219562
     5  C   -1.583360
     6  C   -1.258410
     7  N   -1.349120
     8  O    0.239513
     9  H    0.977414
    10  H    0.880844
    11  H    0.248770
    12  H    1.023378
    13  H    2.549588
    14  H    0.462852
    15  H    1.005462
    16  H   -0.852408
    17  N   -1.279907
    18  C    1.526531
    19  C   -1.325305
    20  O    1.271891
    21  C   -0.913915
    22  C   -2.660499
    23  C   -0.412529
    24  C   -0.275229
    25  C   -0.291133
    26  C   -0.303915
    27  C    0.072551
    28  H    0.608907
    29  H   -0.620273
    30  H    0.195646
    31  H    0.025667
    32  H   -0.427793
    33  H   -0.233357
    34  H    1.412337
    35  H    1.484824
    36  H    2.428145
    37  N   -1.533708
    38  C   -0.399664
    39  C   -0.529130
    40  O   -0.116065
    41  C    0.353088
    42  C   -1.051999
    43  N   -0.742902
    44  O    0.989089
    45  H    0.561953
    46  H    0.279360
    47  H    0.055648
    48  H   -0.110136
    49  H    0.859782
    50  H   -0.375779
    51  N    0.391856
    52  C   -0.232103
    53  C   -1.369536
    54  O    0.077223
    55  C   -0.439539
    56  C   -2.618751
    57  C    0.165312
    58  N   -1.306806
    59  C    0.524596
    60  N   -1.321328
    61  N   -0.909449
    62  O    0.726743
    63  H    0.195616
    64  H    0.017273
    65  H    1.202324
    66  H   -0.503808
    67  H    1.466040
    68  H    0.975250
    69  H    1.129136
    70  H   -1.017217
    71  H   -0.544307
    72  H    2.726902
    73  H    0.185701
    74  H    2.595681
    75  H   -0.916765
 Sum of APT charges =   1.00000
 APT charges with hydrogens summed into heavy atoms:
               1
     1  N    0.844303
     2  C   -0.196909
     3  C    1.516731
     4  O   -1.219562
     5  C   -0.311212
     6  C   -1.258410
     7  N    1.663320
     8  O    0.239513
    17  N   -0.671000
    18  C    0.906258
    19  C   -1.325305
    20  O    1.271891
    21  C   -0.692602
    22  C   -2.660499
    23  C   -0.840322
    24  C   -0.508586
    25  C    1.121204
    26  C    1.180908
    27  C    2.500696
    37  N   -0.971755
    38  C   -0.120304
    39  C   -0.529130
    40  O   -0.116065
    41  C    0.298600
    42  C   -1.051999
    43  N   -0.258899
    44  O    0.989089
    51  N    0.587472
    52  C   -0.214829
    53  C   -1.369536
    54  O    0.077223
    55  C    0.258977
    56  C   -0.177461
    57  C    0.277231
    58  N   -1.851112
    59  C    0.524596
    60  N    1.591275
    61  N    0.769467
    62  O    0.726743
 Electronic spatial extent (au):  <R**2>=         134990.3559
 Charge=              1.0000 electrons
 Dipole moment (field-independent basis, Debye):
    X=            -24.9429    Y=             -5.3248    Z=            -44.2290  Tot=             51.0559
 Quadrupole moment (field-independent basis, Debye-Ang):
   XX=            -46.5992   YY=           -212.4531   ZZ=            252.4213
   XY=             48.7967   XZ=            265.7410   YZ=             69.1353
 Traceless Quadrupole moment (field-independent basis, Debye-Ang):
   XX=            -44.3889   YY=           -210.2428   ZZ=            254.6317
   XY=             48.7967   XZ=            265.7410   YZ=             69.1353
 Octapole moment (field-independent basis, Debye-Ang**2):
  XXX=           3341.5629  YYY=           1061.1655  ZZZ=           -429.3057  XYY=           1522.2643
  XXY=            -70.4303  XXZ=           -304.1591  XZZ=          -1405.6869  YZZ=           -519.3448
  YYZ=           1569.5382  XYZ=           -594.0526
 Hexadecapole moment (field-independent basis, Debye-Ang**3):
 XXXX=         -66264.9240 YYYY=          -9890.7310 ZZZZ=         -16254.8372 XXXY=          -4899.2113
 XXXZ=         -19198.4447 YYYX=          -8913.1097 YYYZ=          -7893.2687 ZZZX=          -1581.9238
 ZZZY=           3009.3257 XXYY=         -14139.9382 XXZZ=          -4208.7769 YYZZ=         -13633.3577
 XXYZ=           2393.2969 YYXZ=         -11243.9807 ZZXY=           4029.2968
 N-N= 5.185720864844D+03 E-N=-1.481357376309D+04  KE= 1.900611441909D+03
  Exact polarizability:       0.000       0.000       0.000       0.000       0.000       0.000
 Approx polarizability:     481.591      11.973     366.361     -11.519      32.396     516.562
 Calling FoFJK, ICntrl=    100127 FMM=F ISym2X=0 I1Cent= 0 IOpClX= 0 NMat=1 NMatS=1 NMatT=0.
 -------------------------------------------------------------------
 Center     Atomic                   Forces (Hartrees/Bohr)
 Number     Number              X              Y              Z
 -------------------------------------------------------------------
      1        7          -0.007060911    0.010651706    0.013363205
      2        6          -0.010496243   -0.024174813   -0.001741176
      3        6           0.007398048   -0.005013400    0.006060291
      4        8          -0.002385451   -0.000234248    0.000912202
      5        6          -0.002297662    0.001769532   -0.000991519
      6        6          -0.001101941   -0.001583959   -0.013324493
      7        7           0.002538832   -0.001252624    0.008848531
      8        8          -0.002695581    0.008088784    0.009782044
      9        1           0.006384242    0.005817181   -0.008583744
     10        1           0.001443599    0.003781138   -0.000154585
     11        1           0.005903148    0.001495512   -0.002310710
     12        1           0.000624103   -0.004863108    0.002253898
     13        1          -0.003910754    0.001941061   -0.003011931
     14        1           0.001216533   -0.000371169   -0.004724046
     15        1           0.001499410    0.003907940   -0.001666314
     16        1           0.003389876    0.003124233   -0.001998820
     17        7          -0.000184934    0.004648319   -0.000061902
     18        6           0.007713849    0.002334434   -0.003679907
     19        6          -0.012177205   -0.000063837   -0.002495669
     20        8           0.001853435    0.008816736    0.010009466
     21        6           0.003740339   -0.008861590    0.001858535
     22        6          -0.002230298   -0.002087359    0.000429372
     23        6           0.000235143    0.003204479    0.005048804
     24        6           0.000817381    0.002161428   -0.004806476
     25        6          -0.003052981    0.003150126    0.003626715
     26        6           0.006718028    0.000349422    0.000686051
     27        6          -0.004684307   -0.000594467   -0.003777049
     28        1           0.000530183    0.003636182   -0.007990532
     29        1          -0.001916889   -0.002240003    0.006436248
     30        1          -0.000600809   -0.003541973    0.001170390
     31        1          -0.000357194   -0.001311651    0.000309863
     32        1          -0.000603004   -0.000118891    0.000368467
     33        1           0.004519151    0.001351167   -0.001417881
     34        1          -0.001101053   -0.001635424    0.000169869
     35        1          -0.000412677   -0.001716563   -0.002796155
     36        1          -0.001952429   -0.000670810   -0.001434428
     37        7          -0.003622150   -0.012836175   -0.021078221
     38        6          -0.001126241   -0.000381220    0.003814644
     39        6           0.012324336    0.002744831   -0.012060865
     40        8          -0.017433585    0.003073256    0.013048742
     41        6           0.003024121   -0.000554584    0.006384970
     42        6           0.001956658    0.004862895    0.013869204
     43        7          -0.008080461   -0.004246324   -0.002847726
     44        8          -0.000220630   -0.003180951   -0.020245547
     45        1           0.006155952    0.002391662    0.002792438
     46        1           0.000921516    0.001867535    0.002796518
     47        1           0.002555102   -0.002398416    0.003037128
     48        1          -0.002200947    0.000899252    0.001874265
     49        1           0.006027523    0.001552157   -0.001757248
     50        1           0.002584685    0.002385716    0.004407810
     51        7           0.004843241   -0.006808649    0.003443815
     52        6          -0.012518643    0.001434492   -0.001472126
     53        6           0.015740208    0.035114962   -0.003164217
     54        8           0.000772903   -0.044034403   -0.003376916
     55        6           0.004646635    0.004380284    0.001166064
     56        6           0.000405878    0.003154395   -0.002666197
     57        6          -0.001121136   -0.003993449   -0.001147824
     58        7          -0.004288298    0.003513388   -0.002754747
     59        6           0.001533733    0.005740263    0.004585732
     60        7          -0.001824224   -0.005030360    0.001138443
     61        7           0.011820827    0.003003155    0.000646563
     62        8          -0.022336512    0.007310664    0.002799353
     63        1           0.005695255   -0.001414581    0.000567070
     64        1           0.000204301    0.000950304    0.001471400
     65        1           0.000177098   -0.001304314    0.000219362
     66        1           0.003770687    0.001594684   -0.001387125
     67        1          -0.002962732   -0.000702196   -0.000480265
     68        1           0.000112775    0.000167287   -0.001593592
     69        1           0.002115522   -0.001497428   -0.000140430
     70        1           0.004039180   -0.002052375    0.000299330
     71        1          -0.004396271   -0.001553392    0.007202733
     72        1          -0.000599467   -0.000184813   -0.003027606
     73        1           0.000040423    0.001347661   -0.002040648
     74        1          -0.002325626   -0.003292584   -0.000169592
     75        1          -0.003714615   -0.001916121    0.001478695
 -------------------------------------------------------------------
 Cartesian Forces:  Max     0.044034403 RMS     0.006682385
 FormGI is forming the generalized inverse of G from B-inverse, IUseBI=4.

 GradGradGradGradGradGradGradGradGradGradGradGradGradGradGradGradGradGrad
 Berny optimization.
 Internal  Forces:  Max     0.043313441 RMS     0.007125941
 Search for a local minimum.
 Step number   1 out of a maximum of  399
 All quantities printed in internal units (Hartrees-Bohrs-Radians)
 Mixed Optimization -- RFO/linear search
 Second derivative matrix not updated -- analytic derivatives used.
 ITU=  0
     Eigenvalues ---   -0.01032  -0.00314  -0.00216   0.00024   0.00085
     Eigenvalues ---    0.00121   0.00139   0.00175   0.00211   0.00365
     Eigenvalues ---    0.00401   0.00430   0.00438   0.00513   0.00615
     Eigenvalues ---    0.00718   0.00838   0.00871   0.00949   0.01132
     Eigenvalues ---    0.01196   0.01319   0.01427   0.01653   0.01724
     Eigenvalues ---    0.01737   0.01767   0.01785   0.01807   0.01849
     Eigenvalues ---    0.01953   0.02015   0.02113   0.02242   0.02320
     Eigenvalues ---    0.02459   0.02539   0.02728   0.02857   0.02896
     Eigenvalues ---    0.03293   0.03459   0.03600   0.03746   0.03795
     Eigenvalues ---    0.03879   0.03928   0.04061   0.04163   0.04211
     Eigenvalues ---    0.04286   0.04329   0.04413   0.04546   0.04597
     Eigenvalues ---    0.04633   0.04684   0.04767   0.04952   0.04978
     Eigenvalues ---    0.05039   0.05363   0.05419   0.05511   0.05527
     Eigenvalues ---    0.05798   0.05905   0.06111   0.06341   0.06766
     Eigenvalues ---    0.06927   0.07778   0.07985   0.08374   0.08446
     Eigenvalues ---    0.08650   0.08780   0.08878   0.08895   0.09769
     Eigenvalues ---    0.10428   0.10993   0.11048   0.11087   0.11338
     Eigenvalues ---    0.11622   0.11809   0.11961   0.12005   0.12335
     Eigenvalues ---    0.12415   0.12464   0.12494   0.12658   0.12666
     Eigenvalues ---    0.12930   0.13191   0.13325   0.13464   0.13483
     Eigenvalues ---    0.13890   0.14088   0.14492   0.14913   0.15136
     Eigenvalues ---    0.16057   0.16240   0.17236   0.17629   0.18340
     Eigenvalues ---    0.19302   0.19405   0.19427   0.19560   0.19743
     Eigenvalues ---    0.20061   0.20661   0.20896   0.21128   0.21516
     Eigenvalues ---    0.21874   0.22031   0.22260   0.22397   0.22676
     Eigenvalues ---    0.22806   0.23141   0.23382   0.23725   0.24087
     Eigenvalues ---    0.24600   0.24811   0.25453   0.25686   0.25913
     Eigenvalues ---    0.27301   0.27926   0.28359   0.29052   0.29482
     Eigenvalues ---    0.29987   0.30274   0.30646   0.31080   0.31401
     Eigenvalues ---    0.31843   0.33151   0.33403   0.33522   0.33591
     Eigenvalues ---    0.33833   0.34169   0.34255   0.34355   0.34438
     Eigenvalues ---    0.34530   0.34591   0.34720   0.34815   0.34931
     Eigenvalues ---    0.34960   0.35011   0.35144   0.35493   0.35730
     Eigenvalues ---    0.35924   0.36197   0.36308   0.36351   0.36515
     Eigenvalues ---    0.36589   0.36791   0.37184   0.37232   0.37678
     Eigenvalues ---    0.37738   0.38383   0.39493   0.41403   0.41811
     Eigenvalues ---    0.42490   0.43152   0.43672   0.43710   0.44989
     Eigenvalues ---    0.45602   0.45755   0.46366   0.46574   0.47382
     Eigenvalues ---    0.47777   0.47937   0.48127   0.48248   0.48564
     Eigenvalues ---    0.48701   0.49337   0.49543   0.49633   0.49725
     Eigenvalues ---    0.49920   0.51287   0.51833   0.52565   0.54465
     Eigenvalues ---    0.59335   0.63010   0.64970   0.66499   0.75563
     Eigenvalues ---    0.83164   0.83953   0.84464   0.85513   0.87231
     Eigenvalues ---    1.08443   1.35058   2.09921   7.43338
 RFO step:  Lambda=-3.42286474D-02 EMin=-1.03164322D-02
 Linear search not attempted -- first point.
 Maximum step size (   0.300) exceeded in Quadratic search.
    -- Step size scaled by   0.968
 Iteration  1 RMS(Cart)=  0.25369732 RMS(Int)=  0.02158664
 Iteration  2 RMS(Cart)=  0.08993104 RMS(Int)=  0.00434716
 Iteration  3 RMS(Cart)=  0.00708120 RMS(Int)=  0.00035374
 Iteration  4 RMS(Cart)=  0.00005903 RMS(Int)=  0.00035164
 Iteration  5 RMS(Cart)=  0.00000002 RMS(Int)=  0.00035164
 Variable       Old X    -DE/DX   Delta X   Delta X   Delta X     New X
                                 (Linear)    (Quad)   (Total)
    R1        2.79619   0.02298   0.00000   0.05525   0.05525   2.85144
    R2        1.96893   0.01086   0.00000   0.04765   0.04765   2.01658
    R3        1.93324   0.00076   0.00000   0.00026   0.00026   1.93350
    R4        1.95891   0.00221   0.00000  -0.00488  -0.00488   1.95402
    R5        2.88017   0.01014   0.00000   0.01994   0.01994   2.90011
    R6        2.87951   0.00168   0.00000   0.00497   0.00497   2.88449
    R7        2.06150  -0.00113   0.00000  -0.00465  -0.00465   2.05686
    R8        2.31623   0.00129   0.00000   0.00136   0.00136   2.31758
    R9        2.55807   0.00199   0.00000  -0.00008  -0.00008   2.55799
   R10        2.86957   0.00761   0.00000   0.02140   0.02140   2.89097
   R11        2.05445   0.00584   0.00000   0.01503   0.01503   2.06948
   R12        2.06025   0.00444   0.00000   0.01137   0.01137   2.07162
   R13        2.57385  -0.00104   0.00000  -0.01294  -0.01294   2.56091
[...]
 04527,-0.00000130,0.00026742,-0.00000017,0.00004416,-0.00007276,0.0000
 0467,-0.00000717,0.00000340,0.00000877,-0.00000122,0.00000692,-0.00001
 163,0.00000256,-0.00000203,-0.00002323,-0.00000255,-0.00000674,-0.0000
 0566,0.00000249,-0.00001417,-0.00004498,-0.00011296,0.00032726,0.00001
 133,0.00004902,-0.00006734,0.00032836,-0.00029482,-0.00005540,-0.00037
 013,0.00016558,0.00026195,0.00005149,0.00008941,-0.00026063,-0.0001896
 8,-0.00040301,0.00030421,0.00030311,-0.00094724,-0.00180294,-0.0003811
 8,0.00018853,0.00072682,0.00579235,0.03300281,-0.00868263,0.04261527,0
 .15576315,-0.15959587,-0.00048332,-0.00119448,-0.00556836,-0.00030699,
 0.00014591,0.00008768,-0.00001675,0.00000901,-0.00019433,-0.00001297,-
 0.00001322,0.00003850,-0.00004291,0.00009240,0.00010035,-0.00001516,0.
 00001740,0.00008277,0.00021614,-0.00009493,0.00004009,0.00005047,0.000
 09720,-0.00002175,-0.00187736,-0.00079509,0.00018290,-0.00035509,0.000
 13292,0.00063802,0.00070018,-0.00025396,-0.00003087,-0.00498895,-0.017
 77170,0.01551984,-0.04268523,-0.16828450,0.15792382,-0.00009329,-0.000
 05167,0.00002819,0.00007996,0.00009785,0.00003511,-0.00004724,0.000118
 58,0.00025317,-0.00005819,-0.00003934,-0.00016201,0.00004175,-0.000012
 99,-0.00002358,-0.00002785,0.00015407,0.00009529,-0.00002199,-0.000040
 69,-0.00003022,0.00000399,-0.00015657,-0.00008995,0.00007071,0.0000215
 5,-0.00010771,-0.00000799,-0.00001141,-0.00000500,0.00005348,0.0000806
 5,-0.00000964,-0.00006016,-0.00001590,0.00005237,-0.00001152,0.0000101
 7,-0.00000697,-0.00002671,0.00004368,0.00001323,0.00004148,0.00001052,
 0.00001447,0.00007248,-0.00000109,-0.00000498,-0.00024182,-0.00037328,
 -0.00008105,0.00019446,0.00042683,-0.00003749,0.00053916,-0.00082205,-
 0.00095174,-0.00054037,-0.00001406,0.00186055,0.00020601,-0.00003263,0
 .00015513,0.00013436,-0.00022947,0.00023057,-0.00030058,0.00044207,-0.
 00020555,-0.00018298,-0.00046691,-0.00015618,-0.00085399,0.00173402,0.
 00100137,0.00051409,-0.00195354,0.00152231,-0.00011395,-0.00032940,-0.
 00210951,0.00024088,0.00025245,-0.00005569,-0.00010800,-0.00009031,-0.
 00001152,-0.00004711,0.00002743,-0.00011929,-0.00009724,-0.00004573,-0
 .00019043,0.00009781,-0.00005669,-0.00012242,-0.00003276,0.00016779,-0
 .00025182,-0.00000592,-0.00004356,0.00001340,0.00012667,0.00042606,-0.
 00002565,-0.00032731,-0.00028168,0.00005571,0.00006047,0.00030449,0.00
 035405,0.00003149,-0.00002449,-0.00013309,0.00021205,-0.00002311,-0.00
 020209,-0.00025274,0.00007052,0.00011471,-0.00001121,0.00000961,0.0000
 4029,-0.00000576,-0.00005099,-0.00018132,0.00002636,0.00003549,0.00005
 605,-0.00002901,0.00004195,0.00016911,-0.00002482,-0.00004482,-0.00005
 201,0.00002109,0.00002272,0.00002708,-0.00000340,-0.00000350,-0.000008
 70,0.00000418,0.00000801,0.00000424,-0.00000370,-0.00001139,-0.0000109
 6,0.00000506,-0.00000405,-0.00000851,-0.00008977,-0.00001970,0.0001436
 4,0.00002383,-0.00002195,-0.00000611,0.00024330,-0.00011020,-0.0000051
 3,-0.00046685,0.00003946,0.00015924,0.00001732,-0.00003213,-0.00005320
 ,-0.00038566,-0.00038007,0.00021770,0.00252813,-0.00089495,0.00103191,
 0.00155019,-0.00007876,0.00019437,-0.00784477,-0.00076471,-0.00617127,
 -0.00136703,0.00222616,-0.00092438,-0.18105930,-0.16907252,-0.14298192
 ,-0.00028323,0.00005870,0.00007564,0.00002020,-0.00002960,-0.00007960,
 -0.00001153,-0.00000101,0.00000833,-0.00001067,0.00001925,0.00000084,-
 0.00001725,-0.00001425,0.00001464,-0.00003511,0.00002326,-0.00004031,0
 .00003532,-0.00012776,-0.00000103,-0.00009506,0.00000056,0.00001893,0.
 00025951,0.00049726,-0.00011672,0.00038981,-0.00056493,-0.00103941,-0.
 00071806,-0.00095681,0.00218708,0.00011895,0.00025594,-0.00023497,0.18
 658865,-0.00010166,-0.00005509,0.00012865,0.00005960,0.00009819,0.0000
 1279,-0.00002072,0.00008955,0.00007141,-0.00002208,-0.00006836,-0.0000
 1753,0.00002594,0.00000552,-0.00002669,0.00003580,0.00006410,0.0000479
 0,-0.00005860,-0.00004475,0.00001236,-0.00003188,-0.00007952,-0.000037
 27,0.00011475,0.00001538,-0.00028514,-0.00000153,-0.00000934,0.0000037
 1,0.00006626,0.00006683,-0.00003941,-0.00004720,-0.00001165,0.00003251
 ,0.00001232,0.00001065,-0.00001632,0.00001150,0.00004580,-0.00001870,0
 .00004534,-0.00000896,-0.00000194,0.00005534,-0.00000764,-0.00002597,-
 0.00020419,-0.00035259,0.00005656,0.00009157,0.00041043,-0.00007792,0.
 00036581,-0.00033485,-0.00051866,-0.00018570,-0.00048083,0.00169369,0.
 00016393,-0.00005175,0.00006643,0.00057524,-0.00083158,0.00018951,-0.0
 0078336,-0.00032173,-0.00140693,0.00050344,0.00058995,0.00147392,-0.00
 042361,0.00047786,0.00119205,0.00048410,-0.00118924,-0.00046198,-0.000
 73868,0.00047276,-0.00110437,0.00021430,0.00026829,-0.00025570,-0.0000
 6928,-0.00006490,-0.00000034,-0.00002893,-0.00000176,-0.00003478,-0.00
 006528,-0.00003547,-0.00012311,0.00012005,-0.00003350,-0.00008468,-0.0
 0005384,0.00001256,-0.00000858,0.00028524,-0.00010165,-0.00001764,-0.0
 0024792,-0.00051001,0.00007779,-0.00016485,-0.00003638,0.00004338,0.00
 002863,0.00005598,0.00027892,-0.00000805,0.00002988,-0.00009830,0.0002
 0737,0.00005205,-0.00042511,-0.00021945,0.00004720,0.00021857,-0.00001
 896,-0.00001312,0.00001797,-0.00008564,-0.00006968,-0.00023127,0.00009
 604,0.00003745,0.00007957,0.00005430,0.00001215,0.00023282,-0.00007085
 ,0.00002884,-0.00011024,0.00001488,0.00001223,0.00002210,0.00001144,-0
 .00000308,0.00000344,-0.00000370,0.00000693,-0.00000196,-0.00002015,0.
 00000554,-0.00000860,-0.00000603,0.00000770,-0.00001471,-0.00002380,-0
 .00006189,0.00033186,-0.00001707,0.00007713,-0.00009508,0.00027784,-0.
 00080402,-0.00017100,-0.00043185,0.00062464,0.00073990,0.00002483,-0.0
 0002352,-0.00010872,0.00015770,0.00007567,-0.00011494,-0.00103528,-0.0
 0020351,-0.00091455,-0.00327441,0.00134310,0.00625228,-0.01591449,-0.0
 2419447,-0.01616804,0.00370087,0.00127623,-0.00254702,-0.15588523,-0.1
 5377050,-0.10828702,-0.00043829,0.00032904,0.00024775,-0.00005997,-0.0
 0005841,-0.00013530,0.00000480,0.00000204,0.00002752,-0.00001253,0.000
 03287,0.00004691,0.00001345,0.00001992,0.00003681,0.00008334,-0.000058
 98,0.00002360,-0.00000424,0.00014963,-0.00002517,-0.00002944,0.0000510
 2,0.00003842,-0.00002769,-0.00012414,0.00005413,0.00033771,0.00050264,
 -0.00085852,-0.00109128,0.00111895,0.00045191,0.00036781,-0.00050986,0
 .00023003,0.16600745,0.16944062,0.00000846,0.00000288,0.00003935,-0.00
 001846,-0.00001190,-0.00002200,0.00002834,-0.00003194,-0.00007607,0.00
 002917,-0.00000718,0.00006544,-0.00002795,0.00000219,0.00000352,0.0000
 6358,-0.00004589,0.00000489,-0.00002515,0.00001079,-0.00001198,-0.0000
 2680,0.00004170,0.00001600,0.00001444,-0.00000423,-0.00006714,0.000003
 87,-0.00000147,0.00000370,0.00000401,-0.00001648,-0.00000126,0.0000189
 6,0.00000314,-0.00001846,0.00000736,-0.00000323,0.00000419,0.00001406,
 -0.00001129,0.00000439,0.00000203,-0.00000933,-0.00000474,-0.00001590,
 0.00000022,-0.00000616,0.00010490,0.00008287,0.00004308,-0.00014418,-0
 .00009083,-0.00000209,-0.00020623,0.00139590,0.00103094,-0.00018681,-0
 .00004677,-0.00348755,-0.00009055,-0.00009257,-0.00010083,0.00012501,-
 0.00023401,-0.00051423,-0.00017014,0.00004153,-0.00048543,-0.00036171,
 -0.00018345,-0.00070722,0.00021717,-0.00002670,0.00018061,-0.00032445,
 0.00042519,0.00046964,0.00082254,-0.00007077,0.00022513,-0.00006197,-0
 .00003867,-0.00009055,0.00005523,0.00003722,0.00000991,0.00001616,-0.0
 0001604,0.00003301,0.00002818,0.00004528,0.00007824,-0.00008711,0.0000
 1659,0.00003218,-0.00000497,-0.00006586,0.00005141,-0.00011255,0.00004
 922,0.00003970,0.00001461,-0.00012039,0.00004570,-0.00048118,-0.000269
 29,-0.00014304,-0.00041475,-0.00062324,-0.00040276,-0.00001800,0.00005
 435,0.00023216,-0.00006338,0.00009146,-0.00024538,0.00006989,-0.000063
 62,0.00007782,0.00002157,-0.00003313,-0.00000519,0.00001922,0.00001098
 ,-0.00005014,0.00000350,-0.00000347,0.00001868,-0.00001883,-0.00004619
 ,0.00007375,0.00007236,0.00005535,-0.00006953,-0.00000532,-0.00002009,
 -0.00001677,0.00000811,0.00000558,0.00001508,-0.00002033,-0.00000933,-
 0.00000723,-0.00000559,0.00000296,-0.00000409,-0.00000040,0.00000543,-
 0.00000172,0.00002657,-0.00007577,0.00016406,-0.00002021,0.00005280,-0
 .00004613,0.00007113,-0.00033223,-0.00005120,-0.00013114,0.00028001,0.
 00024513,-0.00002249,0.00001605,-0.00007521,0.00026097,0.00008829,-0.0
 0001024,-0.00065001,0.00037428,0.00048388,0.00131359,0.00346189,0.0005
 4166,0.01121362,0.00661744,0.01475493,0.00023930,0.00044378,-0.0017252
 8,-0.14182285,-0.11089887,-0.19255183,-0.00010167,0.00014107,0.0000403
 1,-0.00001547,0.00000817,-0.00008724,0.00000805,-0.00000114,0.00001298
 ,-0.00001270,0.00002287,0.00004124,0.00000756,-0.00000073,0.00000243,-
 0.00000351,-0.00002073,0.00002146,-0.00001529,0.00011857,-0.00001531,0
 .00000467,-0.00004102,0.00000001,0.00011742,0.00013319,-0.00006538,0.0
 0018055,0.00034126,-0.00062492,0.00183372,0.00070480,-0.00092166,-0.00
 036116,-0.00020285,-0.00002775,0.14711442,0.11962576,0.18684935,-0.000
 12401,0.00002252,-0.00009423,0.00010944,0.00006975,0.00008627,-0.00006
 243,0.00006676,0.00005691,-0.00015649,0.00002396,-0.00015858,0.0000435
 3,0.00000828,0.00000950,-0.00000623,0.00013751,0.00009448,-0.00003845,
 -0.00002341,-0.00005282,-0.00001773,-0.00013822,-0.00010509,0.00001715
 ,0.00000188,0.00015640,-0.00001493,0.00000307,-0.00001391,0.00000974,0
 .00006269,0.00000694,-0.00004987,-0.00001292,0.00004927,-0.00001322,0.
 00000272,-0.00000082,-0.00002724,0.00003040,0.00001846,0.00006015,0.00
 000940,0.00001655,0.00013327,-0.00003294,-0.00000488,-0.00064822,-0.00
 020465,0.00013838,0.00030026,0.00093780,0.00013449,0.00044847,-0.00426
 313,-0.00266981,-0.00429193,0.00269098,0.00155220,0.00013430,0.0001453
 2,0.00059067,-0.00028926,0.00002654,0.00159537,-0.00040717,0.00079721,
 -0.00013683,0.00020276,-0.00128467,0.00009149,-0.00025169,0.00006848,-
 0.00043514,-0.00007361,-0.00015952,-0.00040198,-0.00025908,-0.00016221
 ,-0.00004861,0.00011556,0.00035563,0.00049242,-0.00013958,-0.00014558,
 -0.00007479,-0.00002397,0.00009794,-0.00016967,-0.00013487,-0.00012922
 ,-0.00024046,0.00008839,-0.00006200,0.00000792,0.00001828,0.00026557,-
 0.00016335,0.00008109,-0.00002504,0.00002908,0.00006681,0.00018508,0.0
 0005926,0.00014539,0.00009657,0.00006629,0.00164690,0.00188908,0.00192
 276,0.00011454,-0.00053955,-0.00079466,0.00044683,-0.00036060,0.000455
 42,-0.00050753,0.00036745,-0.00006434,-0.00009689,0.00015799,0.0000655
 7,-0.00028894,-0.00025292,-0.00029033,0.00021399,0.00015932,0.00009547
 ,0.00017204,0.00033781,0.00019014,-0.00037858,-0.00026044,-0.00006945,
 0.00002853,0.00012308,0.00009502,-0.00003366,-0.00002613,-0.00006471,0
 .00008574,0.00005814,0.00003817,-0.00001906,-0.00003007,0.00001129,-0.
 00000558,-0.00003167,-0.00001938,-0.00016559,0.00029492,-0.00029423,0.
 00015545,-0.00027976,0.00015941,0.00014501,0.00090054,0.00020690,-0.00
 048926,-0.00103132,-0.00043377,-0.00007995,0.00005351,-0.00005616,0.00
 022788,0.00022357,-0.00004508,-0.00108081,0.00029489,-0.00047532,-0.00
 144069,0.00136769,-0.00128811,-0.00098133,0.00153794,0.02250196,0.0019
 9461,-0.00642948,0.00043251,-0.03651834,-0.02678912,-0.02135727,0.0000
 3674,-0.00036063,-0.00015323,0.00000966,-0.00019028,0.00007493,-0.0000
 6357,0.00000124,-0.00001889,0.00000918,0.00002230,-0.00001212,-0.00002
 666,-0.00002922,0.00001644,-0.00001901,0.00001851,-0.00002544,-0.00003
 384,0.00008036,-0.00000629,0.00004053,-0.00001687,0.00004733,-0.000124
 89,-0.00028949,0.00004366,0.00149731,-0.00004905,0.00063230,-0.0002522
 8,0.00005827,-0.00055915,0.00083127,-0.00049224,0.00188151,0.00136871,
 0.00730868,-0.01811508,0.03863697,-0.00008986,-0.00004758,0.00016671,0
 .00004638,0.00007904,-0.00000643,0.00005901,-0.00002640,-0.00010167,0.
 00000856,-0.00007187,0.00012702,-0.00000450,0.00001180,-0.00002333,0.0
 0008606,0.00001548,0.00005500,-0.00007051,-0.00002586,-0.00000677,-0.0
 0005150,-0.00003598,-0.00002454,0.00012133,0.00000765,-0.00034970,-0.0
 0000028,-0.00000873,0.00000578,0.00007454,0.00004802,-0.00002931,-0.00
 002951,-0.00000891,0.00001815,0.00001300,0.00000476,-0.00001055,0.0000
 1454,0.00003027,-0.00000865,0.00004510,-0.00001742,-0.00000409,0.00002
 612,-0.00001047,-0.00002731,-0.00018006,-0.00024629,0.00011801,0.00009
 060,0.00049794,-0.00044430,-0.00168007,-0.00106384,-0.00250012,0.00236
 446,-0.00272197,0.00186988,0.00014360,0.00008382,0.00001706,-0.0009042
 0,0.00065155,0.00071769,-0.00021827,-0.00019574,-0.00004413,0.00006327
 ,-0.00043831,0.00038991,0.00011444,-0.00030943,0.00041465,-0.00011824,
 -0.00000526,-0.00102552,-0.00022950,-0.00014601,0.00019616,0.00032811,
 0.00007668,-0.00049255,0.00000641,-0.00006008,-0.00000269,-0.00003979,
 -0.00007131,0.00006334,0.00001069,-0.00008863,-0.00011778,0.00016678,-
 0.00006247,-0.00004080,-0.00008249,-0.00034007,0.00023909,0.00012747,-
 0.00000855,-0.00000087,-0.00004045,-0.00002946,-0.00002021,0.00016320,
 0.00004060,0.00006299,0.00042811,-0.00081215,-0.00050574,-0.00015764,-
 0.00007645,-0.00006962,0.00011250,0.00010598,-0.00050419,-0.00012441,0
 .00001175,0.00022216,-0.00000459,-0.00006580,-0.00001566,-0.00007244,-
 0.00003555,-0.00015878,0.00007522,0.00001412,0.00005631,0.00008425,-0.
 00003268,0.00016722,-0.00009952,0.00020663,-0.00008763,0.00000712,0.00
 001734,0.00002311,0.00001800,0.00000056,0.00001189,-0.00002419,0.00000
 124,-0.00001500,-0.00001781,0.00001285,-0.00000428,-0.00000679,0.00001
 380,-0.00001046,0.00007422,-0.00003448,0.00035156,-0.00004103,0.000110
 12,-0.00006616,0.00023531,-0.00144855,-0.00034757,-0.00016057,0.001555
 07,0.00054747,0.00001337,-0.00003066,0.00000038,0.00000349,0.00002687,
 -0.00000471,0.00008172,-0.00072885,0.00006330,0.00108427,0.00088859,-0
 .00058461,0.00364471,-0.00289321,0.02983401,-0.00315451,-0.00185591,0.
 00022229,-0.02794233,-0.06292361,0.05541545,-0.00060339,0.00063133,0.0
 0034595,-0.00013270,-0.00007379,-0.00011043,0.00003506,0.00002170,0.00
 002014,-0.00001943,0.00001424,0.00001696,0.00002545,0.00000765,-0.0000
 1188,-0.00000400,-0.00000542,0.00004727,0.00000907,0.00004518,-0.00000
 900,0.00015837,0.00021676,-0.00011927,0.00010601,0.00024673,0.00003590
 ,-0.00003582,-0.00349395,0.00009814,0.00018770,-0.00027073,0.00048153,
 -0.00152446,0.00093347,0.00004020,0.00466615,0.00655938,-0.02104036,0.
 02274104,0.06763346,-0.00019283,0.00026631,-0.00028414,0.00012247,-0.0
 0014100,0.00015631,0.00047643,-0.00066989,-0.00100417,-0.00046235,0.00
 043086,0.00044657,-0.00006734,0.00015834,0.00009509,0.00033562,-0.0000
 6964,0.00016702,-0.00022290,0.00006565,-0.00018808,-0.00019095,0.00003
 518,-0.00013540,-0.00009419,-0.00008340,0.00059970,-0.00002360,0.00004
 575,-0.00002834,-0.00006176,-0.00005613,0.00006204,0.00003977,0.000007
 37,0.00000615,-0.00000577,-0.00003005,0.00002240,0.00000597,-0.0000101
 5,0.00006700,0.00014087,-0.00002026,0.00001420,0.00017128,-0.00014503,
 -0.00000702,-0.00105425,0.00060310,0.00041950,0.00138719,-0.00045623,0
 .00104894,0.00227508,-0.01757108,-0.01752042,-0.00514844,0.00836916,0.
 01236798,0.00021407,0.00046901,-0.00002944,0.00131254,0.00074217,0.000
 15685,0.00017225,-0.00019361,0.00009705,0.00047068,0.00030901,-0.00025
 788,-0.00010306,0.00023392,-0.00017639,0.00075519,-0.00008609,0.000282
 77,0.00004278,0.00054815,-0.00110257,0.00010512,-0.00052904,0.00083644
 ,-0.00059387,-0.00018286,-0.00006003,0.00003872,0.00021745,-0.00017418
 ,-0.00034977,-0.00016356,-0.00016554,0.00007929,-0.00002740,0.00002671
 ,-0.00002418,0.00029137,-0.00003026,-0.00012186,-0.00000797,-0.0000479
 4,-0.00007595,-0.00017214,-0.00004348,-0.00017978,-0.00010706,-0.00004
 687,0.00554472,0.00809158,0.00584670,0.00028771,-0.00096281,-0.0028150
 4,0.00067825,-0.00112432,0.00266213,-0.00073851,0.00106467,-0.00073096
 ,-0.00033066,0.00049380,-0.00000247,-0.00101197,-0.00059464,0.00012012
 ,0.00057480,0.00032473,-0.00003525,0.00082398,0.00077867,-0.00039938,-
 0.00129757,-0.00059910,0.00072994,0.00000090,0.00022904,0.00014371,-0.
 00007812,-0.00008771,-0.00018595,0.00030571,0.00016316,0.00011398,-0.0
 0003549,-0.00002785,0.00008336,-0.00006333,-0.00008489,-0.00002967,-0.
 00007409,0.00117335,-0.00169546,0.00032769,-0.00068988,0.00056150,-0.0
 0008790,0.00132168,0.00011478,0.00107243,-0.00072700,-0.00213653,-0.00
 013503,0.00004195,0.00051065,-0.00062748,0.00001705,0.00021704,0.00179
 136,0.00121555,-0.00090294,-0.00443258,-0.00701008,-0.00530251,0.01318
 004,0.01909129,-0.00440135,-0.00381148,-0.00307875,0.00613668,-0.02408
 186,0.05384379,-0.39373146,0.00037271,-0.00050461,-0.00040910,-0.00012
 434,-0.00031614,0.00072076,-0.00007203,0.00005893,-0.00008742,0.000057
 58,-0.00008488,-0.00024099,-0.00000507,-0.00005665,-0.00008916,-0.0001
 1774,0.00010585,-0.00003289,0.00013538,-0.00039617,-0.00003828,0.00006
 436,-0.00003280,0.00002485,-0.00054046,-0.00066143,0.00013824,-0.00162
 768,-0.00003728,0.00421400,0.00021259,-0.00049257,-0.00071631,0.000153
 93,0.00018398,0.00055929,-0.00025404,0.00081627,-0.00321224,0.01479082
 ,-0.06351601,0.39872704\\-0.00001960,0.00000082,0.00000139,-0.00000529
 ,-0.00000373,-0.00000386,-0.00000011,0.00000734,0.00001574,-0.00000194
 ,0.00000250,-0.00000214,-0.00000397,-0.00000249,0.00000220,-0.00000368
 ,-0.00000302,-0.00000573,0.,-0.00000269,-0.00000037,0.00000386,-0.0000
 0037,0.00000362,0.00000180,-0.00000047,-0.00000540,0.00000046,0.000001
 55,-0.00000035,-0.00000048,-0.00000064,-0.00000175,0.00000077,-0.00000
 073,-0.00000022,-0.00000199,-0.00000013,-0.00000109,-0.00000021,-0.000
 00211,-0.00000201,0.00000291,-0.00000367,0.00000669,0.00000488,0.00000
 172,0.00000398,0.00000888,-0.00000785,0.00000891,-0.00000221,0.0000010
 2,0.00000504,-0.00000049,-0.00000797,-0.00001886,0.00000745,0.00000824
 ,0.00000177,0.00000199,0.00000064,-0.00000007,0.00000470,-0.00000241,-
 0.00000254,-0.00000377,-0.00000166,0.00000251,-0.00000031,-0.00000266,
 -0.00000064,-0.00000262,0.00000021,0.00000215,-0.00000008,-0.00000299,
 0.00000512,-0.00000155,-0.00000355,-0.00000235,-0.00000018,0.00000677,
 -0.00000210,-0.00000080,0.00000093,0.00000006,0.00000178,-0.00000028,0
 .00000157,-0.00000108,-0.00000138,0.00000034,0.00000079,-0.00000123,-0
 .00000034,-0.00000022,-0.00000086,0.00000128,0.00000064,-0.00000012,-0
 .00000028,0.00000253,-0.00000046,-0.00000037,0.00000120,-0.00000109,-0
 .00000035,-0.00001322,-0.00000970,0.00000563,0.00000232,0.00000031,-0.
 00000389,0.00001449,-0.00000629,-0.00000324,0.00000224,0.00000606,0.00
 001322,-0.00000099,0.00000364,0.00000365,0.00000089,0.00000334,0.00000
 240,-0.00000226,-0.00000030,0.00000117,-0.00000433,0.00000036,-0.00000
 933,0.00000271,0.00000437,0.00000335,0.00000048,0.00000045,-0.00000087
 ,-0.00000034,0.00000056,0.00000087,-0.00000045,0.00000136,0.00000078,0
 .00000047,0.00000280,-0.00000140,0.00000005,0.00000255,0.00000109,-0.0
 0000139,0.00000616,-0.00000074,-0.00001368,0.00000456,-0.00000636,0.00
 000315,-0.00000733,-0.00000553,0.00000044,0.00000092,-0.00000404,0.000
 01041,-0.00000108,-0.00000033,-0.00000355,0.00000140,-0.00000214,-0.00
 000374,-0.00000267,-0.00000681,0.00000546,-0.00000731,-0.00000046,0.00
 000410,0.00002706,0.00001273,0.00000766,0.00000023,-0.00000525,0.00000
 697,-0.00000708,0.00000283,-0.00000713,0.00001042,-0.00000837,0.000003
 92,-0.00000292,0.00000322,-0.00000086,0.00000083,0.00000093,-0.0000013
 0,-0.00000041,0.00000027,0.00000009,-0.00000051,-0.00000056,-0.0000011
 0,-0.00000072,0.00000015,-0.00000046,-0.00000079,-0.00000046,0.0000018
 0,0.00000039,0.00000046,0.00000034,0.00000082,0.00000167,0.00000210,-0
 .00000160,-0.00000026,-0.00000199,-0.00000529,-0.00000346,0.00000074,0
 .00000471,-0.00000483,-0.00000919,-0.00000585,-0.00000282,0.00000107,-
 0.00000061,0.00000515\\\@
 The archive entry for this job was punched.


 MISERY NO LONGER LOVES COMPANY.  NOWADAYS IT INSISTS ON IT.

                                              -- BAKER'S LAW
 Job cpu time:       0 days  7 hours 34 minutes  5.6 seconds.
 Elapsed time:       0 days  0 hours 56 minutes 49.5 seconds.
 File lengths (MBytes):  RWF=   3960 Int=      0 D2E=      0 Chk=     48 Scr=     16
 Normal termination of Gaussian 16 at Tue May 31 21:58:16 2022.
