 Entering Gaussian System, Link 0=/opt/software/Gaussian/g16-AVX2-C.01/g16/g16
 Input=opt_freq-conf-197.com
 Output=opt_freq-conf-197.log
 Initial command:
 /opt/software/Gaussian/g16-AVX2-C.01/g16/l1.exe "/mnt/gs18/scratch/users/kengmith/Gau-28827.inp" -scrdir="/mnt/gs18/scratch/users/kengmith/"
 Entering Link 1 = /opt/software/Gaussian/g16-AVX2-C.01/g16/l1.exe PID=     28837.
  
 Copyright (c) 1988-2019, Gaussian, Inc.  All Rights Reserved.
  
 This is part of the Gaussian(R) 16 program.  It is based on
 the Gaussian(R) 09 system (copyright 2009, Gaussian, Inc.),
 the Gaussian(R) 03 system (copyright 2003, Gaussian, Inc.),
 the Gaussian(R) 98 system (copyright 1998, Gaussian, Inc.),
 the Gaussian(R) 94 system (copyright 1995, Gaussian, Inc.),
 the Gaussian 92(TM) system (copyright 1992, Gaussian, Inc.),
 the Gaussian 90(TM) system (copyright 1990, Gaussian, Inc.),
 the Gaussian 88(TM) system (copyright 1988, Gaussian, Inc.),
 the Gaussian 86(TM) system (copyright 1986, Carnegie Mellon
 University), and the Gaussian 82(TM) system (copyright 1983,
 Carnegie Mellon University). Gaussian is a federally registered
 trademark of Gaussian, Inc.
  
 This software contains proprietary and confidential information,
 including trade secrets, belonging to Gaussian, Inc.
  
 This software is provided under written license and may be
 used, copied, transmitted, or stored only in accord with that
 written license.
  
 The following legend is applicable only to US Government
 contracts under FAR:
  
                    RESTRICTED RIGHTS LEGEND
  
 Use, reproduction and disclosure by the US Government is
 subject to restrictions as set forth in subparagraphs (a)
 and (c) of the Commercial Computer Software - Restricted
 Rights clause in FAR 52.227-19.
  
 Gaussian, Inc.
 340 Quinnipiac St., Bldg. 40, Wallingford CT 06492
  
  
 ---------------------------------------------------------------
 Warning -- This program may not be used in any manner that
 competes with the business of Gaussian, Inc. or will provide
 assistance to any competitor of Gaussian, Inc.  The licensee
 of this program is prohibited from giving any competitor of
 Gaussian, Inc. access to this program.  By using this program,
 the user acknowledges that Gaussian, Inc. is engaged in the
 business of creating and licensing software in the field of
 computational chemistry and represents and warrants to the
 licensee that it is not a competitor of Gaussian, Inc. and that
 it will not use this program in any manner prohibited above.
 ---------------------------------------------------------------
  

 Cite this work as:
 Gaussian 16, Revision C.01,
 M. J. Frisch, G. W. Trucks, H. B. Schlegel, G. E. Scuseria, 
 M. A. Robb, J. R. Cheeseman, G. Scalmani, V. Barone, 
 G. A. Petersson, H. Nakatsuji, X. Li, M. Caricato, A. V. Marenich, 
 J. Bloino, B. G. Janesko, R. Gomperts, B. Mennucci, H. P. Hratchian, 
 J. V. Ortiz, A. F. Izmaylov, J. L. Sonnenberg, D. Williams-Young, 
 F. Ding, F. Lipparini, F. Egidi, J. Goings, B. Peng, A. Petrone, 
 T. Henderson, D. Ranasinghe, V. G. Zakrzewski, J. Gao, N. Rega, 
 G. Zheng, W. Liang, M. Hada, M. Ehara, K. Toyota, R. Fukuda, 
 J. Hasegawa, M. Ishida, T. Nakajima, Y. Honda, O. Kitao, H. Nakai, 
 T. Vreven, K. Throssell, J. A. Montgomery, Jr., J. E. Peralta, 
 F. Ogliaro, M. J. Bearpark, J. J. Heyd, E. N. Brothers, K. N. Kudin, 
 V. N. Staroverov, T. A. Keith, R. Kobayashi, J. Normand, 
 K. Raghavachari, A. P. Rendell, J. C. Burant, S. S. Iyengar, 
 J. Tomasi, M. Cossi, J. M. Millam, M. Klene, C. Adamo, R. Cammi, 
 J. W. Ochterski, R. L. Martin, K. Morokuma, O. Farkas, 
 J. B. Foresman, and D. J. Fox, Gaussian, Inc., Wallingford CT, 2019.
 
 ******************************************
 Gaussian 16:  ES64L-G16RevC.01  3-Jul-2019
                31-May-2022 
 ******************************************
 %mem=12gb
 %nproc=8
 Will use up to    8 processors via shared memory.
 %chk=conf-197.chk
 ----------------------------------------------------------------------
 # B3LYP/6-31G* empiricaldispersion=gd3 opt=calcfc freq=noraman nosymm 
 integral(ultrafinegrid)
 ----------------------------------------------------------------------
 1/10=4,18=20,19=15,26=4,38=1/1,3;
 2/9=110,12=2,15=1,17=6,18=5,40=1/2;
 3/5=1,6=6,7=1,11=2,25=1,30=1,71=2,74=-5,75=-5,124=31,140=1/1,2,3;
 4//1;
 5/5=2,38=5/2;
 8/6=4,10=90,11=11/1;
 11/6=1,8=1,9=11,15=111,16=1,31=1/1,2,10;
 10/6=1,13=1,31=1/2;
 6/7=2,8=2,9=2,10=2,28=1/1;
 7/10=1,25=1,30=1/1,2,3,16;
 1/10=4,18=20,19=15,26=4/3(2);
 2/9=110,15=1/2;
 99//99;
 2/9=110,15=1/2;
 3/5=1,6=6,7=1,11=2,25=1,30=1,71=1,74=-5,75=-5,124=31/1,2,3;
 4/5=5,16=3,69=1/1;
 5/5=2,38=5/2;
 7/30=1/1,2,3,16;
 1/18=20,19=15,26=4/3(-5);
 2/9=110,15=1/2;
 6/7=2,8=2,9=2,10=2,19=2,28=1/1;
 99/9=1/99;
 ------------------------------------------------------------
 Candidate Structure: Conf:197 OPT and FREQ calc in gas phase
 ------------------------------------------------------------
 Symbolic Z-matrix:
 Charge =  1 Multiplicity = 1
 N                    -4.54837  -0.90272  -6.76537 
 C                    -4.64828  -2.33688  -6.47316 
 C                    -5.57621  -3.01839  -7.47933 
 O                    -5.11912  -3.81116  -8.29852 
 C                    -5.09661  -2.57784  -5.03933 
 C                    -4.08848  -2.07745  -4.01566 
 N                    -4.15255  -2.69147  -2.8065 
 O                    -3.30504  -1.17312  -4.25389 
 H                    -5.48454  -0.4594   -6.6295 
 H                    -3.66994  -2.801    -6.62595 
 H                    -6.04396  -2.0682   -4.8598 
 H                    -5.26885  -3.63987  -4.88375 
 H                    -3.51689  -2.39101  -2.08816 
 H                    -4.802    -3.43236  -2.61403 
 H                    -3.8708   -0.49525  -6.11432 
 H                    -4.26154  -0.75978  -7.73405 
 N                    -6.90444  -2.71838  -7.39603 
 C                    -7.86409  -3.59887  -8.02105 
 C                    -8.9523   -2.81916  -8.77238 
 O                    -10.0924  -2.68884  -8.3136 
 C                    -8.50369  -4.54499  -6.99363 
 C                    -7.52     -5.38153  -6.22178 
 C                    -6.64606  -6.24765  -6.87427 
 C                    -7.4577   -5.28731  -4.83237 
 C                    -5.70169  -6.97884  -6.15558 
 C                    -6.51352  -6.0127   -4.10773 
 C                    -5.62406  -6.85233  -4.77213 
 H                    -7.19589  -1.9061   -6.86752 
 H                    -7.3095   -4.17723  -8.75458 
 H                    -9.09597  -3.94838  -6.29746 
 H                    -9.20651  -5.18369  -7.53466 
 H                    -6.69739  -6.33554  -7.95452 
 H                    -8.13686  -4.61405  -4.31776 
 H                    -5.02259  -7.63624  -6.68447 
 H                    -6.45427  -5.88686  -3.03113 
 H                    -4.88201  -7.41291  -4.21724 
 N                    -8.61711  -2.29168  -9.98035 
 C                    -7.30507  -1.882    -10.41911 
 C                    -6.66213  -0.76784  -9.57086 
 O                    -5.44783  -0.71687  -9.4228 
 C                    -7.36279  -1.41899  -11.87832 
 C                    -8.05236  -0.04075  -12.04999 
 N                    -7.21829   0.91077  -12.57749 
 O                    -9.23549   0.13849  -11.70526 
 H                    -9.42095  -1.89552  -10.44162 
 H                    -6.63412  -2.73138  -10.33982 
 H                    -7.95992  -2.11982  -12.45352 
 H                    -6.35997  -1.37557  -12.29177 
 H                    -7.64111   1.7624   -12.90079 
 H                    -6.32033   0.63533  -12.91971 
 N                    -7.51785   0.16553  -9.09887 
 C                    -7.09366   1.24989  -8.25677 
 C                    -7.52046   0.96863  -6.80115 
 O                    -8.11161   1.81935  -6.12946 
 C                    -7.44266   2.63883  -8.81376 
 C                    -8.70855   2.78814  -9.66494 
 C                    -10.02211   3.01742  -8.92672 
 N                    -10.26387   2.10937  -7.80721 
 C                    -10.53958   0.80511  -7.90509 
 N                    -11.00605   0.28306  -9.04511 
 N                    -10.42273   0.05554  -6.80257 
 O                    -7.17771  -0.17649  -6.37273 
 H                    -8.49676   0.04053  -9.27135 
 H                    -6.00111   1.15715  -8.23116 
 H                    -7.44992   3.34837  -7.98519 
 H                    -6.59229   2.91485  -9.44914 
 H                    -8.568     3.65058  -10.33015 
 H                    -8.8291    1.92648  -10.30279 
 H                    -10.03181   4.019    -8.49076 
 H                    -10.86531   2.97043  -9.6255 
 H                    -9.68736   2.32572  -6.98598 
 H                    -11.13016  -0.71426  -9.11401 
 H                    -10.97653   0.80077  -9.90744 
 H                    -10.43237  -0.94819  -6.91719 
 H                    -9.82562   0.41163  -6.05981 
 

 GradGradGradGradGradGradGradGradGradGradGradGradGradGradGradGradGradGrad
 Berny optimization.
 Initialization pass.
                           ----------------------------
                           !    Initial Parameters    !
                           ! (Angstroms and Degrees)  !
 --------------------------                            --------------------------
 ! Name  Definition              Value          Derivative Info.                !
 --------------------------------------------------------------------------------
 ! R1    R(1,2)                  1.467          calculate D2E/DX2 analytically  !
 ! R2    R(1,9)                  1.0447         calculate D2E/DX2 analytically  !
 ! R3    R(1,15)                 1.0242         calculate D2E/DX2 analytically  !
 ! R4    R(1,16)                 1.0203         calculate D2E/DX2 analytically  !
 ! R5    R(2,3)                  1.529          calculate D2E/DX2 analytically  !
 ! R6    R(2,5)                  1.5215         calculate D2E/DX2 analytically  !
 ! R7    R(2,10)                 1.0936         calculate D2E/DX2 analytically  !
 ! R8    R(3,4)                  1.2282         calculate D2E/DX2 analytically  !
 ! R9    R(3,17)                 1.3642         calculate D2E/DX2 analytically  !
 ! R10   R(5,6)                  1.5214         calculate D2E/DX2 analytically  !
 ! R11   R(5,11)                 1.0906         calculate D2E/DX2 analytically  !
 ! R12   R(5,12)                 1.0871         calculate D2E/DX2 analytically  !
 ! R13   R(6,7)                  1.3576         calculate D2E/DX2 analytically  !
 ! R14   R(6,8)                  1.22           calculate D2E/DX2 analytically  !
 ! R15   R(7,13)                 1.0052         calculate D2E/DX2 analytically  !
 ! R16   R(7,14)                 1.0039         calculate D2E/DX2 analytically  !
 ! R17   R(17,18)                1.4446         calculate D2E/DX2 analytically  !
 ! R18   R(17,28)                1.012          calculate D2E/DX2 analytically  !
 ! R19   R(18,19)                1.5351         calculate D2E/DX2 analytically  !
 ! R20   R(18,21)                1.5362         calculate D2E/DX2 analytically  !
 ! R21   R(18,29)                1.0863         calculate D2E/DX2 analytically  !
 ! R22   R(19,20)                1.2358         calculate D2E/DX2 analytically  !
 ! R23   R(19,37)                1.3601         calculate D2E/DX2 analytically  !
 ! R24   R(21,22)                1.5044         calculate D2E/DX2 analytically  !
 ! R25   R(21,30)                1.0915         calculate D2E/DX2 analytically  !
 ! R26   R(21,31)                1.093          calculate D2E/DX2 analytically  !
 ! R27   R(22,23)                1.3927         calculate D2E/DX2 analytically  !
 ! R28   R(22,24)                1.394          calculate D2E/DX2 analytically  !
 ! R29   R(23,25)                1.3939         calculate D2E/DX2 analytically  !
 ! R30   R(23,32)                1.085          calculate D2E/DX2 analytically  !
 ! R31   R(24,26)                1.3938         calculate D2E/DX2 analytically  !
 ! R32   R(24,33)                1.086          calculate D2E/DX2 analytically  !
 ! R33   R(25,27)                1.3914         calculate D2E/DX2 analytically  !
 ! R34   R(25,34)                1.0831         calculate D2E/DX2 analytically  !
 ! R35   R(26,27)                1.392          calculate D2E/DX2 analytically  !
 ! R36   R(26,35)                1.0856         calculate D2E/DX2 analytically  !
 ! R37   R(27,36)                1.083          calculate D2E/DX2 analytically  !
 ! R38   R(37,38)                1.4428         calculate D2E/DX2 analytically  !
 ! R39   R(37,45)                1.0079         calculate D2E/DX2 analytically  !
 ! R40   R(38,39)                1.5409         calculate D2E/DX2 analytically  !
 ! R41   R(38,41)                1.532          calculate D2E/DX2 analytically  !
 ! R42   R(38,46)                1.0853         calculate D2E/DX2 analytically  !
 ! R43   R(39,40)                1.2243         calculate D2E/DX2 analytically  !
 ! R44   R(39,51)                1.3514         calculate D2E/DX2 analytically  !
 ! R45   R(41,42)                1.5506         calculate D2E/DX2 analytically  !
 ! R46   R(41,47)                1.0856         calculate D2E/DX2 analytically  !
 ! R47   R(41,48)                1.0856         calculate D2E/DX2 analytically  !
 ! R48   R(42,43)                1.3709         calculate D2E/DX2 analytically  !
 ! R49   R(42,44)                1.2453         calculate D2E/DX2 analytically  !
 ! R50   R(43,49)                1.0043         calculate D2E/DX2 analytically  !
 ! R51   R(43,50)                0.9997         calculate D2E/DX2 analytically  !
 ! R52   R(51,52)                1.437          calculate D2E/DX2 analytically  !
 ! R53   R(51,63)                1.0018         calculate D2E/DX2 analytically  !
 ! R54   R(52,53)                1.5428         calculate D2E/DX2 analytically  !
 ! R55   R(52,55)                1.5366         calculate D2E/DX2 analytically  !
 ! R56   R(52,64)                1.0968         calculate D2E/DX2 analytically  !
 ! R57   R(53,54)                1.2346         calculate D2E/DX2 analytically  !
 ! R58   R(53,62)                1.2698         calculate D2E/DX2 analytically  !
 ! R59   R(55,56)                1.5327         calculate D2E/DX2 analytically  !
 ! R60   R(55,65)                1.0909         calculate D2E/DX2 analytically  !
 ! R61   R(55,66)                1.0968         calculate D2E/DX2 analytically  !
 ! R62   R(56,57)                1.5241         calculate D2E/DX2 analytically  !
 ! R63   R(56,67)                1.0982         calculate D2E/DX2 analytically  !
 ! R64   R(56,68)                1.0788         calculate D2E/DX2 analytically  !
 ! R65   R(57,58)                1.4616         calculate D2E/DX2 analytically  !
 ! R66   R(57,69)                1.0924         calculate D2E/DX2 analytically  !
 ! R67   R(57,70)                1.0961         calculate D2E/DX2 analytically  !
 ! R68   R(58,59)                1.3367         calculate D2E/DX2 analytically  !
 ! R69   R(58,71)                1.0264         calculate D2E/DX2 analytically  !
 ! R70   R(59,60)                1.3378         calculate D2E/DX2 analytically  !
 ! R71   R(59,61)                1.3383         calculate D2E/DX2 analytically  !
 ! R72   R(60,72)                1.0074         calculate D2E/DX2 analytically  !
 ! R73   R(60,73)                1.0062         calculate D2E/DX2 analytically  !
 ! R74   R(61,74)                1.0103         calculate D2E/DX2 analytically  !
 ! R75   R(61,75)                1.0174         calculate D2E/DX2 analytically  !
 ! A1    A(2,1,9)              109.1421         calculate D2E/DX2 analytically  !
 ! A2    A(2,1,15)             107.9006         calculate D2E/DX2 analytically  !
 ! A3    A(2,1,16)             110.1947         calculate D2E/DX2 analytically  !
 ! A4    A(9,1,15)             109.9577         calculate D2E/DX2 analytically  !
 ! A5    A(9,1,16)             108.4176         calculate D2E/DX2 analytically  !
 ! A6    A(15,1,16)            111.2091         calculate D2E/DX2 analytically  !
 ! A7    A(1,2,3)              110.2416         calculate D2E/DX2 analytically  !
 ! A8    A(1,2,5)              111.2602         calculate D2E/DX2 analytically  !
 ! A9    A(1,2,10)             109.034          calculate D2E/DX2 analytically  !
 ! A10   A(3,2,5)              111.7605         calculate D2E/DX2 analytically  !
 ! A11   A(3,2,10)             105.1785         calculate D2E/DX2 analytically  !
 ! A12   A(5,2,10)             109.1518         calculate D2E/DX2 analytically  !
 ! A13   A(2,3,4)              120.0498         calculate D2E/DX2 analytically  !
 ! A14   A(2,3,17)             116.9145         calculate D2E/DX2 analytically  !
 ! A15   A(4,3,17)             123.0254         calculate D2E/DX2 analytically  !
 ! A16   A(2,5,6)              112.7519         calculate D2E/DX2 analytically  !
 ! A17   A(2,5,11)             109.6993         calculate D2E/DX2 analytically  !
 ! A18   A(2,5,12)             109.6507         calculate D2E/DX2 analytically  !
 ! A19   A(6,5,11)             108.1273         calculate D2E/DX2 analytically  !
 ! A20   A(6,5,12)             109.2694         calculate D2E/DX2 analytically  !
 ! A21   A(11,5,12)            107.1777         calculate D2E/DX2 analytically  !
 ! A22   A(5,6,7)              114.7868         calculate D2E/DX2 analytically  !
 ! A23   A(5,6,8)              122.5435         calculate D2E/DX2 analytically  !
 ! A24   A(7,6,8)              122.6482         calculate D2E/DX2 analytically  !
 ! A25   A(6,7,13)             118.1295         calculate D2E/DX2 analytically  !
 ! A26   A(6,7,14)             122.3492         calculate D2E/DX2 analytically  !
 ! A27   A(13,7,14)            119.5191         calculate D2E/DX2 analytically  !
 ! A28   A(3,17,18)            119.0988         calculate D2E/DX2 analytically  !
 ! A29   A(3,17,28)            119.2625         calculate D2E/DX2 analytically  !
 ! A30   A(18,17,28)           121.5928         calculate D2E/DX2 analytically  !
 ! A31   A(17,18,19)           111.9063         calculate D2E/DX2 analytically  !
 ! A32   A(17,18,21)           111.2607         calculate D2E/DX2 analytically  !
 ! A33   A(17,18,29)           106.1118         calculate D2E/DX2 analytically  !
 ! A34   A(19,18,21)           110.1822         calculate D2E/DX2 analytically  !
 ! A35   A(19,18,29)           107.5664         calculate D2E/DX2 analytically  !
 ! A36   A(21,18,29)           109.6495         calculate D2E/DX2 analytically  !
 ! A37   A(18,19,20)           121.724          calculate D2E/DX2 analytically  !
 ! A38   A(18,19,37)           117.1922         calculate D2E/DX2 analytically  !
 ! A39   A(20,19,37)           121.0759         calculate D2E/DX2 analytically  !
 ! A40   A(18,21,22)           114.4169         calculate D2E/DX2 analytically  !
 ! A41   A(18,21,30)           108.4127         calculate D2E/DX2 analytically  !
 ! A42   A(18,21,31)           107.2518         calculate D2E/DX2 analytically  !
 ! A43   A(22,21,30)           109.3609         calculate D2E/DX2 analytically  !
 ! A44   A(22,21,31)           110.456          calculate D2E/DX2 analytically  !
 ! A45   A(30,21,31)           106.6308         calculate D2E/DX2 analytically  !
 ! A46   A(21,22,23)           121.0477         calculate D2E/DX2 analytically  !
 ! A47   A(21,22,24)           120.1998         calculate D2E/DX2 analytically  !
 ! A48   A(23,22,24)           118.7473         calculate D2E/DX2 analytically  !
 ! A49   A(22,23,25)           120.6502         calculate D2E/DX2 analytically  !
 ! A50   A(22,23,32)           119.1513         calculate D2E/DX2 analytically  !
 ! A51   A(25,23,32)           120.191          calculate D2E/DX2 analytically  !
 ! A52   A(22,24,26)           120.8826         calculate D2E/DX2 analytically  !
 ! A53   A(22,24,33)           119.095          calculate D2E/DX2 analytically  !
 ! A54   A(26,24,33)           119.9946         calculate D2E/DX2 analytically  !
 ! A55   A(23,25,27)           120.1827         calculate D2E/DX2 analytically  !
 ! A56   A(23,25,34)           119.4336         calculate D2E/DX2 analytically  !
 ! A57   A(27,25,34)           120.3798         calculate D2E/DX2 analytically  !
 ! A58   A(24,26,27)           119.9096         calculate D2E/DX2 analytically  !
 ! A59   A(24,26,35)           119.4888         calculate D2E/DX2 analytically  !
 ! A60   A(27,26,35)           120.5586         calculate D2E/DX2 analytically  !
 ! A61   A(25,27,26)           119.589          calculate D2E/DX2 analytically  !
 ! A62   A(25,27,36)           120.0415         calculate D2E/DX2 analytically  !
 ! A63   A(26,27,36)           120.3663         calculate D2E/DX2 analytically  !
 ! A64   A(19,37,38)           127.1799         calculate D2E/DX2 analytically  !
 ! A65   A(19,37,45)           111.2452         calculate D2E/DX2 analytically  !
 ! A66   A(38,37,45)           118.3242         calculate D2E/DX2 analytically  !
 ! A67   A(37,38,39)           114.6666         calculate D2E/DX2 analytically  !
 ! A68   A(37,38,41)           109.95           calculate D2E/DX2 analytically  !
 ! A69   A(37,38,46)           108.5257         calculate D2E/DX2 analytically  !
 ! A70   A(39,38,41)           108.7561         calculate D2E/DX2 analytically  !
 ! A71   A(39,38,46)           105.5281         calculate D2E/DX2 analytically  !
 ! A72   A(41,38,46)           109.233          calculate D2E/DX2 analytically  !
 ! A73   A(38,39,40)           120.698          calculate D2E/DX2 analytically  !
 ! A74   A(38,39,51)           115.3072         calculate D2E/DX2 analytically  !
 ! A75   A(40,39,51)           123.8504         calculate D2E/DX2 analytically  !
 ! A76   A(38,41,42)           113.006          calculate D2E/DX2 analytically  !
 ! A77   A(38,41,47)           109.2864         calculate D2E/DX2 analytically  !
 ! A78   A(38,41,48)           109.8796         calculate D2E/DX2 analytically  !
 ! A79   A(42,41,47)           105.695          calculate D2E/DX2 analytically  !
 ! A80   A(42,41,48)           109.456          calculate D2E/DX2 analytically  !
 ! A81   A(47,41,48)           109.398          calculate D2E/DX2 analytically  !
 ! A82   A(41,42,43)           112.8897         calculate D2E/DX2 analytically  !
 ! A83   A(41,42,44)           121.3174         calculate D2E/DX2 analytically  !
 ! A84   A(43,42,44)           125.7791         calculate D2E/DX2 analytically  !
 ! A85   A(42,43,49)           117.1496         calculate D2E/DX2 analytically  !
 ! A86   A(42,43,50)           119.144          calculate D2E/DX2 analytically  !
 ! A87   A(49,43,50)           120.1078         calculate D2E/DX2 analytically  !
 ! A88   A(39,51,52)           122.6122         calculate D2E/DX2 analytically  !
 ! A89   A(39,51,63)           118.192          calculate D2E/DX2 analytically  !
 ! A90   A(52,51,63)           118.9141         calculate D2E/DX2 analytically  !
 ! A91   A(51,52,53)           109.4924         calculate D2E/DX2 analytically  !
 ! A92   A(51,52,55)           113.7422         calculate D2E/DX2 analytically  !
 ! A93   A(51,52,64)           104.119          calculate D2E/DX2 analytically  !
 ! A94   A(53,52,55)           116.3568         calculate D2E/DX2 analytically  !
 ! A95   A(53,52,64)           103.7766         calculate D2E/DX2 analytically  !
 ! A96   A(55,52,64)           108.1282         calculate D2E/DX2 analytically  !
 ! A97   A(52,53,54)           121.3421         calculate D2E/DX2 analytically  !
 ! A98   A(52,53,62)           114.0844         calculate D2E/DX2 analytically  !
 ! A99   A(54,53,62)           124.5471         calculate D2E/DX2 analytically  !
 ! A100  A(52,55,56)           118.4854         calculate D2E/DX2 analytically  !
 ! A101  A(52,55,65)           108.3073         calculate D2E/DX2 analytically  !
 ! A102  A(52,55,66)           105.1507         calculate D2E/DX2 analytically  !
 ! A103  A(56,55,65)           110.6673         calculate D2E/DX2 analytically  !
 ! A104  A(56,55,66)           107.104          calculate D2E/DX2 analytically  !
 ! A105  A(65,55,66)           106.3478         calculate D2E/DX2 analytically  !
 ! A106  A(55,56,57)           117.2242         calculate D2E/DX2 analytically  !
 ! A107  A(55,56,67)           107.8894         calculate D2E/DX2 analytically  !
 ! A108  A(55,56,68)           110.0489         calculate D2E/DX2 analytically  !
 ! A109  A(57,56,67)           106.5916         calculate D2E/DX2 analytically  !
 ! A110  A(57,56,68)           108.0727         calculate D2E/DX2 analytically  !
 ! A111  A(67,56,68)           106.4634         calculate D2E/DX2 analytically  !
 ! A112  A(56,57,58)           114.8397         calculate D2E/DX2 analytically  !
 ! A113  A(56,57,69)           109.8087         calculate D2E/DX2 analytically  !
 ! A114  A(56,57,70)           110.3502         calculate D2E/DX2 analytically  !
 ! A115  A(58,57,69)           105.217          calculate D2E/DX2 analytically  !
 ! A116  A(58,57,70)           109.5364         calculate D2E/DX2 analytically  !
 ! A117  A(69,57,70)           106.6723         calculate D2E/DX2 analytically  !
 ! A118  A(57,58,59)           125.749          calculate D2E/DX2 analytically  !
 ! A119  A(57,58,71)           112.8895         calculate D2E/DX2 analytically  !
 ! A120  A(59,58,71)           112.3401         calculate D2E/DX2 analytically  !
 ! A121  A(58,59,60)           121.003          calculate D2E/DX2 analytically  !
 ! A122  A(58,59,61)           117.9158         calculate D2E/DX2 analytically  !
 ! A123  A(60,59,61)           120.9236         calculate D2E/DX2 analytically  !
 ! A124  A(59,60,72)           119.1812         calculate D2E/DX2 analytically  !
 ! A125  A(59,60,73)           121.2838         calculate D2E/DX2 analytically  !
 ! A126  A(72,60,73)           117.0243         calculate D2E/DX2 analytically  !
 ! A127  A(59,61,74)           117.5258         calculate D2E/DX2 analytically  !
 ! A128  A(59,61,75)           117.1716         calculate D2E/DX2 analytically  !
 ! A129  A(74,61,75)           115.86           calculate D2E/DX2 analytically  !
 ! D1    D(9,1,2,3)             64.4311         calculate D2E/DX2 analytically  !
 ! D2    D(9,1,2,5)            -60.1424         calculate D2E/DX2 analytically  !
 ! D3    D(9,1,2,10)           179.4185         calculate D2E/DX2 analytically  !
 ! D4    D(15,1,2,3)          -176.11           calculate D2E/DX2 analytically  !
 ! D5    D(15,1,2,5)            59.3165         calculate D2E/DX2 analytically  !
 ! D6    D(15,1,2,10)          -61.1226         calculate D2E/DX2 analytically  !
 ! D7    D(16,1,2,3)           -54.5166         calculate D2E/DX2 analytically  !
 ! D8    D(16,1,2,5)          -179.09           calculate D2E/DX2 analytically  !
 ! D9    D(16,1,2,10)           60.4708         calculate D2E/DX2 analytically  !
 ! D10   D(1,2,3,4)            111.6449         calculate D2E/DX2 analytically  !
 ! D11   D(1,2,3,17)           -69.4903         calculate D2E/DX2 analytically  !
 ! D12   D(5,2,3,4)           -124.0693         calculate D2E/DX2 analytically  !
 ! D13   D(5,2,3,17)            54.7955         calculate D2E/DX2 analytically  !
 ! D14   D(10,2,3,4)            -5.7552         calculate D2E/DX2 analytically  !
 ! D15   D(10,2,3,17)          173.1096         calculate D2E/DX2 analytically  !
 ! D16   D(1,2,5,6)            -64.2871         calculate D2E/DX2 analytically  !
 ! D17   D(1,2,5,11)            56.2773         calculate D2E/DX2 analytically  !
 ! D18   D(1,2,5,12)           173.7253         calculate D2E/DX2 analytically  !
 ! D19   D(3,2,5,6)            171.9993         calculate D2E/DX2 analytically  !
 ! D20   D(3,2,5,11)           -67.4363         calculate D2E/DX2 analytically  !
 ! D21   D(3,2,5,12)            50.0116         calculate D2E/DX2 analytically  !
 ! D22   D(10,2,5,6)            56.0825         calculate D2E/DX2 analytically  !
 ! D23   D(10,2,5,11)          176.6469         calculate D2E/DX2 analytically  !
 ! D24   D(10,2,5,12)          -65.9051         calculate D2E/DX2 analytically  !
 ! D25   D(2,3,17,18)         -161.6222         calculate D2E/DX2 analytically  !
 ! D26   D(2,3,17,28)           15.9558         calculate D2E/DX2 analytically  !
 ! D27   D(4,3,17,18)           17.2058         calculate D2E/DX2 analytically  !
 ! D28   D(4,3,17,28)         -165.2161         calculate D2E/DX2 analytically  !
 ! D29   D(2,5,6,7)           -155.6434         calculate D2E/DX2 analytically  !
 ! D30   D(2,5,6,8)             26.0027         calculate D2E/DX2 analytically  !
 ! D31   D(11,5,6,7)            82.8963         calculate D2E/DX2 analytically  !
 ! D32   D(11,5,6,8)           -95.4577         calculate D2E/DX2 analytically  !
 ! D33   D(12,5,6,7)           -33.4409         calculate D2E/DX2 analytically  !
 ! D34   D(12,5,6,8)           148.2051         calculate D2E/DX2 analytically  !
 ! D35   D(5,6,7,13)          -179.1922         calculate D2E/DX2 analytically  !
 ! D36   D(5,6,7,14)             1.3547         calculate D2E/DX2 analytically  !
 ! D37   D(8,6,7,13)            -0.8401         calculate D2E/DX2 analytically  !
 ! D38   D(8,6,7,14)           179.7068         calculate D2E/DX2 analytically  !
 ! D39   D(3,17,18,19)        -136.7543         calculate D2E/DX2 analytically  !
 ! D40   D(3,17,18,21)          99.5021         calculate D2E/DX2 analytically  !
 ! D41   D(3,17,18,29)         -19.705          calculate D2E/DX2 analytically  !
 ! D42   D(28,17,18,19)         45.7263         calculate D2E/DX2 analytically  !
 ! D43   D(28,17,18,21)        -78.0174         calculate D2E/DX2 analytically  !
 ! D44   D(28,17,18,29)        162.7755         calculate D2E/DX2 analytically  !
 ! D45   D(17,18,19,20)       -104.0639         calculate D2E/DX2 analytically  !
 ! D46   D(17,18,19,37)         76.9514         calculate D2E/DX2 analytically  !
 ! D47   D(21,18,19,20)         20.2835         calculate D2E/DX2 analytically  !
 ! D48   D(21,18,19,37)       -158.7011         calculate D2E/DX2 analytically  !
 ! D49   D(29,18,19,20)        139.7656         calculate D2E/DX2 analytically  !
 ! D50   D(29,18,19,37)        -39.219          calculate D2E/DX2 analytically  !
 ! D51   D(17,18,21,22)        -56.584          calculate D2E/DX2 analytically  !
 ! D52   D(17,18,21,30)         65.75           calculate D2E/DX2 analytically  !
 ! D53   D(17,18,21,31)       -179.4637         calculate D2E/DX2 analytically  !
 ! D54   D(19,18,21,22)        178.6974         calculate D2E/DX2 analytically  !
 ! D55   D(19,18,21,30)        -58.9686         calculate D2E/DX2 analytically  !
 ! D56   D(19,18,21,31)         55.8177         calculate D2E/DX2 analytically  !
 ! D57   D(29,18,21,22)         60.4887         calculate D2E/DX2 analytically  !
 ! D58   D(29,18,21,30)       -177.1773         calculate D2E/DX2 analytically  !
 ! D59   D(29,18,21,31)        -62.3909         calculate D2E/DX2 analytically  !
 ! D60   D(18,19,37,38)        -27.6561         calculate D2E/DX2 analytically  !
 ! D61   D(18,19,37,45)        173.3072         calculate D2E/DX2 analytically  !
 ! D62   D(20,19,37,38)        153.3522         calculate D2E/DX2 analytically  !
 ! D63   D(20,19,37,45)         -5.6845         calculate D2E/DX2 analytically  !
 ! D64   D(18,21,22,23)        -58.7426         calculate D2E/DX2 analytically  !
 ! D65   D(18,21,22,24)        120.418          calculate D2E/DX2 analytically  !
 ! D66   D(30,21,22,23)        179.4411         calculate D2E/DX2 analytically  !
 ! D67   D(30,21,22,24)         -1.3983         calculate D2E/DX2 analytically  !
 ! D68   D(31,21,22,23)         62.386          calculate D2E/DX2 analytically  !
 ! D69   D(31,21,22,24)       -118.4534         calculate D2E/DX2 analytically  !
 ! D70   D(21,22,23,25)        177.4078         calculate D2E/DX2 analytically  !
 ! D71   D(21,22,23,32)         -1.5976         calculate D2E/DX2 analytically  !
 ! D72   D(24,22,23,25)         -1.7647         calculate D2E/DX2 analytically  !
 ! D73   D(24,22,23,32)        179.2298         calculate D2E/DX2 analytically  !
 ! D74   D(21,22,24,26)       -177.2345         calculate D2E/DX2 analytically  !
 ! D75   D(21,22,24,33)          0.8488         calculate D2E/DX2 analytically  !
 ! D76   D(23,22,24,26)          1.9453         calculate D2E/DX2 analytically  !
 ! D77   D(23,22,24,33)       -179.9715         calculate D2E/DX2 analytically  !
 ! D78   D(22,23,25,27)          0.1354         calculate D2E/DX2 analytically  !
 ! D79   D(22,23,25,34)       -179.1511         calculate D2E/DX2 analytically  !
 ! D80   D(32,23,25,27)        179.1305         calculate D2E/DX2 analytically  !
 ! D81   D(32,23,25,34)         -0.1559         calculate D2E/DX2 analytically  !
 ! D82   D(22,24,26,27)         -0.4916         calculate D2E/DX2 analytically  !
 ! D83   D(22,24,26,35)        177.1355         calculate D2E/DX2 analytically  !
 ! D84   D(33,24,26,27)       -178.5577         calculate D2E/DX2 analytically  !
 ! D85   D(33,24,26,35)         -0.9306         calculate D2E/DX2 analytically  !
 ! D86   D(23,25,27,26)          1.3439         calculate D2E/DX2 analytically  !
 ! D87   D(23,25,27,36)       -179.3004         calculate D2E/DX2 analytically  !
 ! D88   D(34,25,27,26)       -179.3764         calculate D2E/DX2 analytically  !
 ! D89   D(34,25,27,36)         -0.0207         calculate D2E/DX2 analytically  !
 ! D90   D(24,26,27,25)         -1.1662         calculate D2E/DX2 analytically  !
 ! D91   D(24,26,27,36)        179.4803         calculate D2E/DX2 analytically  !
 ! D92   D(35,26,27,25)       -178.7674         calculate D2E/DX2 analytically  !
 ! D93   D(35,26,27,36)          1.879          calculate D2E/DX2 analytically  !
 ! D94   D(19,37,38,39)        -60.3781         calculate D2E/DX2 analytically  !
 ! D95   D(19,37,38,41)        176.7262         calculate D2E/DX2 analytically  !
 ! D96   D(19,37,38,46)         57.3051         calculate D2E/DX2 analytically  !
 ! D97   D(45,37,38,39)         97.362          calculate D2E/DX2 analytically  !
 ! D98   D(45,37,38,41)        -25.5337         calculate D2E/DX2 analytically  !
 ! D99   D(45,37,38,46)       -144.9548         calculate D2E/DX2 analytically  !
 ! D100  D(37,38,39,40)        148.1655         calculate D2E/DX2 analytically  !
 ! D101  D(37,38,39,51)        -36.0386         calculate D2E/DX2 analytically  !
 ! D102  D(41,38,39,40)        -88.2983         calculate D2E/DX2 analytically  !
 ! D103  D(41,38,39,51)         87.4976         calculate D2E/DX2 analytically  !
 ! D104  D(46,38,39,40)         28.7933         calculate D2E/DX2 analytically  !
 ! D105  D(46,38,39,51)       -155.4108         calculate D2E/DX2 analytically  !
 ! D106  D(37,38,41,42)         73.088          calculate D2E/DX2 analytically  !
 ! D107  D(37,38,41,47)        -44.2956         calculate D2E/DX2 analytically  !
 ! D108  D(37,38,41,48)       -164.3421         calculate D2E/DX2 analytically  !
 ! D109  D(39,38,41,42)        -53.2209         calculate D2E/DX2 analytically  !
 ! D110  D(39,38,41,47)       -170.6045         calculate D2E/DX2 analytically  !
 ! D111  D(39,38,41,48)         69.3489         calculate D2E/DX2 analytically  !
 ! D112  D(46,38,41,42)       -167.9236         calculate D2E/DX2 analytically  !
 ! D113  D(46,38,41,47)         74.6929         calculate D2E/DX2 analytically  !
 ! D114  D(46,38,41,48)        -45.3537         calculate D2E/DX2 analytically  !
 ! D115  D(38,39,51,52)        178.0062         calculate D2E/DX2 analytically  !
 ! D116  D(38,39,51,63)          4.1738         calculate D2E/DX2 analytically  !
 ! D117  D(40,39,51,52)         -6.3469         calculate D2E/DX2 analytically  !
 ! D118  D(40,39,51,63)        179.8207         calculate D2E/DX2 analytically  !
 ! D119  D(38,41,42,43)        118.2481         calculate D2E/DX2 analytically  !
 ! D120  D(38,41,42,44)        -60.4747         calculate D2E/DX2 analytically  !
 ! D121  D(47,41,42,43)       -122.2774         calculate D2E/DX2 analytically  !
 ! D122  D(47,41,42,44)         58.9999         calculate D2E/DX2 analytically  !
 ! D123  D(48,41,42,43)         -4.5577         calculate D2E/DX2 analytically  !
 ! D124  D(48,41,42,44)        176.7196         calculate D2E/DX2 analytically  !
 ! D125  D(41,42,43,49)        167.1105         calculate D2E/DX2 analytically  !
 ! D126  D(41,42,43,50)          8.4556         calculate D2E/DX2 analytically  !
 ! D127  D(44,42,43,49)        -14.2344         calculate D2E/DX2 analytically  !
 ! D128  D(44,42,43,50)       -172.8894         calculate D2E/DX2 analytically  !
 ! D129  D(39,51,52,53)       -104.5111         calculate D2E/DX2 analytically  !
 ! D130  D(39,51,52,55)        123.4074         calculate D2E/DX2 analytically  !
 ! D131  D(39,51,52,64)          5.9468         calculate D2E/DX2 analytically  !
 ! D132  D(63,51,52,53)         69.2787         calculate D2E/DX2 analytically  !
 ! D133  D(63,51,52,55)        -62.8028         calculate D2E/DX2 analytically  !
 ! D134  D(63,51,52,64)        179.7366         calculate D2E/DX2 analytically  !
 ! D135  D(51,52,53,54)       -130.5921         calculate D2E/DX2 analytically  !
 ! D136  D(51,52,53,62)         51.1977         calculate D2E/DX2 analytically  !
 ! D137  D(55,52,53,54)          0.1027         calculate D2E/DX2 analytically  !
 ! D138  D(55,52,53,62)       -178.1076         calculate D2E/DX2 analytically  !
 ! D139  D(64,52,53,54)        118.7234         calculate D2E/DX2 analytically  !
 ! D140  D(64,52,53,62)        -59.4868         calculate D2E/DX2 analytically  !
 ! D141  D(51,52,55,56)         31.2591         calculate D2E/DX2 analytically  !
 ! D142  D(51,52,55,65)        158.3079         calculate D2E/DX2 analytically  !
 ! D143  D(51,52,55,66)        -88.3179         calculate D2E/DX2 analytically  !
 ! D144  D(53,52,55,56)        -97.4049         calculate D2E/DX2 analytically  !
 ! D145  D(53,52,55,65)         29.6438         calculate D2E/DX2 analytically  !
 ! D146  D(53,52,55,66)        143.0181         calculate D2E/DX2 analytically  !
 ! D147  D(64,52,55,56)        146.3726         calculate D2E/DX2 analytically  !
 ! D148  D(64,52,55,65)        -86.5786         calculate D2E/DX2 analytically  !
 ! D149  D(64,52,55,66)         26.7956         calculate D2E/DX2 analytically  !
 ! D150  D(52,55,56,57)         85.448          calculate D2E/DX2 analytically  !
 ! D151  D(52,55,56,67)       -154.3203         calculate D2E/DX2 analytically  !
 ! D152  D(52,55,56,68)        -38.5471         calculate D2E/DX2 analytically  !
 ! D153  D(65,55,56,57)        -40.4713         calculate D2E/DX2 analytically  !
 ! D154  D(65,55,56,67)         79.7604         calculate D2E/DX2 analytically  !
 ! D155  D(65,55,56,68)       -164.4665         calculate D2E/DX2 analytically  !
 ! D156  D(66,55,56,57)       -155.9911         calculate D2E/DX2 analytically  !
 ! D157  D(66,55,56,67)        -35.7594         calculate D2E/DX2 analytically  !
 ! D158  D(66,55,56,68)         80.0138         calculate D2E/DX2 analytically  !
 ! D159  D(55,56,57,58)        -47.8585         calculate D2E/DX2 analytically  !
 ! D160  D(55,56,57,69)         70.4461         calculate D2E/DX2 analytically  !
 ! D161  D(55,56,57,70)       -172.2416         calculate D2E/DX2 analytically  !
 ! D162  D(67,56,57,58)       -168.772          calculate D2E/DX2 analytically  !
 ! D163  D(67,56,57,69)        -50.4674         calculate D2E/DX2 analytically  !
 ! D164  D(67,56,57,70)         66.8449         calculate D2E/DX2 analytically  !
 ! D165  D(68,56,57,58)         77.1305         calculate D2E/DX2 analytically  !
 ! D166  D(68,56,57,69)       -164.5648         calculate D2E/DX2 analytically  !
 ! D167  D(68,56,57,70)        -47.2526         calculate D2E/DX2 analytically  !
 ! D168  D(56,57,58,59)        -70.1643         calculate D2E/DX2 analytically  !
 ! D169  D(56,57,58,71)         74.1579         calculate D2E/DX2 analytically  !
 ! D170  D(69,57,58,59)        168.9777         calculate D2E/DX2 analytically  !
 ! D171  D(69,57,58,71)        -46.7002         calculate D2E/DX2 analytically  !
 ! D172  D(70,57,58,59)         54.6469         calculate D2E/DX2 analytically  !
 ! D173  D(70,57,58,71)       -161.0309         calculate D2E/DX2 analytically  !
 ! D174  D(57,58,59,60)        -20.0427         calculate D2E/DX2 analytically  !
 ! D175  D(57,58,59,61)        164.4797         calculate D2E/DX2 analytically  !
 ! D176  D(71,58,59,60)       -164.5286         calculate D2E/DX2 analytically  !
 ! D177  D(71,58,59,61)         19.9938         calculate D2E/DX2 analytically  !
 ! D178  D(58,59,60,72)        174.8191         calculate D2E/DX2 analytically  !
 ! D179  D(58,59,60,73)         13.326          calculate D2E/DX2 analytically  !
 ! D180  D(61,59,60,72)         -9.8395         calculate D2E/DX2 analytically  !
 ! D181  D(61,59,60,73)       -171.3327         calculate D2E/DX2 analytically  !
 ! D182  D(58,59,61,74)       -166.932          calculate D2E/DX2 analytically  !
 ! D183  D(58,59,61,75)        -21.8106         calculate D2E/DX2 analytically  !
 ! D184  D(60,59,61,74)         17.5866         calculate D2E/DX2 analytically  !
 ! D185  D(60,59,61,75)        162.708          calculate D2E/DX2 analytically  !
 --------------------------------------------------------------------------------
 Trust Radius=3.00D-01 FncErr=1.00D-07 GrdErr=1.00D-06 EigMax=2.50D+02 EigMin=1.00D-04
 Number of steps in this run=    399 maximum allowed number of steps=    450.
 GradGradGradGradGradGradGradGradGradGradGradGradGradGradGradGradGradGrad

 Symmetry turned off by external request.
 Stoichiometry    C23H36N9O7(1+)
 Framework group  C1[X(C23H36N9O7)]
 Deg. of freedom   219
 Full point group                 C1      NOp   1
                          Input orientation:                          
 ---------------------------------------------------------------------
 Center     Atomic      Atomic             Coordinates (Angstroms)
 Number     Number       Type             X           Y           Z
 ---------------------------------------------------------------------
      1          7           0       -4.548372   -0.902723   -6.765372
      2          6           0       -4.648284   -2.336883   -6.473156
      3          6           0       -5.576207   -3.018386   -7.479333
      4          8           0       -5.119121   -3.811156   -8.298519
      5          6           0       -5.096611   -2.577845   -5.039333
      6          6           0       -4.088477   -2.077451   -4.015656
      7          7           0       -4.152546   -2.691465   -2.806496
      8          8           0       -3.305041   -1.173122   -4.253893
      9          1           0       -5.484544   -0.459395   -6.629501
     10          1           0       -3.669938   -2.800995   -6.625950
     11          1           0       -6.043964   -2.068196   -4.859797
     12          1           0       -5.268854   -3.639871   -4.883746
     13          1           0       -3.516893   -2.391014   -2.088156
     14          1           0       -4.801997   -3.432358   -2.614028
     15          1           0       -3.870799   -0.495248   -6.114323
     16          1           0       -4.261538   -0.759780   -7.734048
     17          7           0       -6.904442   -2.718380   -7.396026
     18          6           0       -7.864089   -3.598866   -8.021046
     19          6           0       -8.952296   -2.819164   -8.772378
     20          8           0      -10.092401   -2.688841   -8.313600
     21          6           0       -8.503693   -4.544990   -6.993628
     22          6           0       -7.520000   -5.381529   -6.221777
     23          6           0       -6.646056   -6.247650   -6.874271
     24          6           0       -7.457703   -5.287315   -4.832373
     25          6           0       -5.701692   -6.978839   -6.155585
     26          6           0       -6.513524   -6.012701   -4.107734
     27          6           0       -5.624057   -6.852333   -4.772130
     28          1           0       -7.195892   -1.906103   -6.867520
     29          1           0       -7.309503   -4.177225   -8.754582
     30          1           0       -9.095974   -3.948382   -6.297461
     31          1           0       -9.206510   -5.183691   -7.534662
     32          1           0       -6.697393   -6.335536   -7.954519
     33          1           0       -8.136865   -4.614054   -4.317761
     34          1           0       -5.022594   -7.636244   -6.684473
     35          1           0       -6.454270   -5.886864   -3.031131
     36          1           0       -4.882011   -7.412914   -4.217244
     37          7           0       -8.617106   -2.291677   -9.980347
     38          6           0       -7.305068   -1.881997  -10.419111
     39          6           0       -6.662127   -0.767842   -9.570863
     40          8           0       -5.447833   -0.716868   -9.422803
     41          6           0       -7.362792   -1.418991  -11.878316
     42          6           0       -8.052361   -0.040754  -12.049988
     43          7           0       -7.218294    0.910765  -12.577489
     44          8           0       -9.235490    0.138486  -11.705256
     45          1           0       -9.420949   -1.895517  -10.441617
     46          1           0       -6.634116   -2.731381  -10.339816
     47          1           0       -7.959922   -2.119817  -12.453522
     48          1           0       -6.359972   -1.375573  -12.291766
     49          1           0       -7.641110    1.762399  -12.900790
     50          1           0       -6.320334    0.635328  -12.919714
     51          7           0       -7.517847    0.165533   -9.098868
     52          6           0       -7.093655    1.249889   -8.256771
     53          6           0       -7.520460    0.968627   -6.801149
     54          8           0       -8.111607    1.819352   -6.129457
     55          6           0       -7.442661    2.638825   -8.813759
     56          6           0       -8.708549    2.788140   -9.664939
     57          6           0      -10.022108    3.017422   -8.926723
     58          7           0      -10.263873    2.109366   -7.807215
     59          6           0      -10.539580    0.805115   -7.905095
     60          7           0      -11.006046    0.283064   -9.045111
     61          7           0      -10.422726    0.055538   -6.802568
     62          8           0       -7.177713   -0.176493   -6.372728
     63          1           0       -8.496762    0.040528   -9.271346
     64          1           0       -6.001107    1.157149   -8.231161
     65          1           0       -7.449917    3.348367   -7.985191
     66          1           0       -6.592291    2.914849   -9.449141
     67          1           0       -8.567996    3.650577  -10.330151
     68          1           0       -8.829099    1.926482  -10.302788
     69          1           0      -10.031806    4.019002   -8.490760
     70          1           0      -10.865310    2.970429   -9.625497
     71          1           0       -9.687364    2.325718   -6.985984
     72          1           0      -11.130163   -0.714261   -9.114012
     73          1           0      -10.976534    0.800774   -9.907436
     74          1           0      -10.432366   -0.948189   -6.917192
     75          1           0       -9.825621    0.411633   -6.059814
 ---------------------------------------------------------------------
 Rotational constants (GHZ):           0.1514097           0.0713730           0.0650393
 Standard basis: 6-31G(d) (6D, 7F)
   657 basis functions,  1236 primitive gaussians,   657 cartesian basis functions
   146 alpha electrons      146 beta electrons
       nuclear repulsion energy      5186.1516355609 Hartrees.
 NAtoms=   75 NActive=   75 NUniq=   75 SFac= 1.00D+00 NAtFMM=   60 NAOKFM=T Big=T
 Integral buffers will be    131072 words long.
 Raffenetti 2 integral format.
 Two-electron integral symmetry is turned off.
 Nuclear repulsion after empirical dispersion term =     5186.0237411582 Hartrees.
 One-electron integrals computed using PRISM.
 NBasis=   657 RedAO= T EigKep=  4.48D-04  NBF=   657
 NBsUse=   657 1.00D-06 EigRej= -1.00D+00 NBFU=   657
 ExpMin= 1.61D-01 ExpMax= 5.48D+03 ExpMxC= 8.25D+02 IAcc=3 IRadAn=         5 AccDes= 0.00D+00
 Harris functional with IExCor=  402 and IRadAn=       5 diagonalized for initial guess.
 HarFok:  IExCor=  402 AccDes= 0.00D+00 IRadAn=         5 IDoV= 1 UseB2=F ITyADJ=14
 ICtDFT=  3500011 ScaDFX=  1.000000  1.000000  1.000000  1.000000
 FoFCou: FMM=F IPFlag=           0 FMFlag=      100000 FMFlg1=        2001
         NFxFlg=           0 DoJE=T BraDBF=F KetDBF=T FulRan=T
         wScrn=  0.000000 ICntrl=       500 IOpCl=  0 I1Cent=   200000004 NGrid=           0
         NMat0=    1 NMatS0=      1 NMatT0=    0 NMatD0=    1 NMtDS0=    0 NMtDT0=    0
 Symmetry not used in FoFCou.
 Requested convergence on RMS density matrix=1.00D-08 within 128 cycles.
 Requested convergence on MAX density matrix=1.00D-06.
 Requested convergence on             energy=1.00D-06.
 No special actions if energy rises.
 Integral accuracy reduced to 1.0D-05 until final iterations.
 Initial convergence to 1.0D-05 achieved.  Increase integral accuracy.
 SCF Done:  E(RB3LYP) =  -1917.51542686     A.U. after   15 cycles
            NFock= 15  Conv=0.58D-08     -V/T= 2.0089
 DoSCS=F DFT=T ScalE2(SS,OS)=  1.000000  1.000000
 Range of M.O.s used for correlation:     1   657
 NBasis=   657 NAE=   146 NBE=   146 NFC=     0 NFV=     0
 NROrb=    657 NOA=   146 NOB=   146 NVA=   511 NVB=   511
 Symmetrizing basis deriv contribution to polar:
 IMax=3 JMax=2 DiffMx= 0.00D+00
 G2DrvN: will do    76 centers at a time, making    1 passes.
 Calling FoFCou, ICntrl=  3107 FMM=T I1Cent=   0 AccDes= 0.00D+00.
 End of G2Drv F.D. properties file   721 does not exist.
 End of G2Drv F.D. properties file   722 does not exist.
 End of G2Drv F.D. properties file   788 does not exist.
          IDoAtm=11111111111111111111111111111111111111111111111111
          IDoAtm=1111111111111111111111111
          Differentiating once with respect to nuclear coordinates.
 CalDSu exits because no D1Ps are significant.
          There are   228 degrees of freedom in the 1st order CPHF.  IDoFFX=6 NUNeed=     0.
    222 vectors produced by pass  0 Test12= 7.46D-14 1.00D-09 XBig12= 1.98D-01 1.04D-01.
 AX will form    72 AO Fock derivatives at one time.
    222 vectors produced by pass  1 Test12= 7.46D-14 1.00D-09 XBig12= 3.05D-02 1.99D-02.
    222 vectors produced by pass  2 Test12= 7.46D-14 1.00D-09 XBig12= 1.65D-04 1.28D-03.
    222 vectors produced by pass  3 Test12= 7.46D-14 1.00D-09 XBig12= 5.28D-07 5.18D-05.
    222 vectors produced by pass  4 Test12= 7.46D-14 1.00D-09 XBig12= 8.02D-10 1.76D-06.
    174 vectors produced by pass  5 Test12= 7.46D-14 1.00D-09 XBig12= 7.52D-13 4.68D-08.
      8 vectors produced by pass  6 Test12= 7.46D-14 1.00D-09 XBig12= 6.86D-16 1.91D-09.
 InvSVY:  IOpt=1 It=  1 EMax= 6.11D-16
 Solved reduced A of dimension  1292 with   228 vectors.
 End of Minotr F.D. properties file   721 does not exist.
 End of Minotr F.D. properties file   722 does not exist.
 End of Minotr F.D. properties file   788 does not exist.

 **********************************************************************

            Population analysis using the SCF Density.

 **********************************************************************

 Alpha  occ. eigenvalues --  -19.24898 -19.24663 -19.23732 -19.22610 -19.22288
 Alpha  occ. eigenvalues --  -19.20650 -19.20414 -14.54001 -14.49868 -14.48515
 Alpha  occ. eigenvalues --  -14.48340 -14.48267 -14.48144 -14.47709 -14.45905
 Alpha  occ. eigenvalues --  -14.45894 -10.45408 -10.42399 -10.41271 -10.40675
 Alpha  occ. eigenvalues --  -10.40011 -10.39698 -10.38256 -10.36428 -10.35989
 Alpha  occ. eigenvalues --  -10.33927 -10.33700 -10.32888 -10.32422 -10.31000
 Alpha  occ. eigenvalues --  -10.29148 -10.28748 -10.28022 -10.27789 -10.27251
 Alpha  occ. eigenvalues --  -10.27126 -10.26908 -10.26817 -10.26763  -1.16636
 Alpha  occ. eigenvalues --   -1.15907  -1.15355  -1.15016  -1.14965  -1.14345
 Alpha  occ. eigenvalues --   -1.14125  -1.10504  -1.06214  -1.05514  -1.04171
 Alpha  occ. eigenvalues --   -1.03601  -1.03385  -1.03010  -1.02659  -1.01044
 Alpha  occ. eigenvalues --   -0.94121  -0.91370  -0.90744  -0.89981  -0.87907
 Alpha  occ. eigenvalues --   -0.85647  -0.83322  -0.82629  -0.80659  -0.79726
 Alpha  occ. eigenvalues --   -0.78825  -0.76142  -0.75961  -0.72996  -0.71752
 Alpha  occ. eigenvalues --   -0.71283  -0.70719  -0.70491  -0.70344  -0.69786
 Alpha  occ. eigenvalues --   -0.69232  -0.68507  -0.67773  -0.67238  -0.66626
 Alpha  occ. eigenvalues --   -0.66482  -0.65958  -0.64529  -0.63947  -0.63064
 Alpha  occ. eigenvalues --   -0.62569  -0.62031  -0.61661  -0.60431  -0.59322
 Alpha  occ. eigenvalues --   -0.59086  -0.59014  -0.58869  -0.58313  -0.57531
 Alpha  occ. eigenvalues --   -0.57028  -0.56583  -0.56122  -0.55530  -0.55080
 Alpha  occ. eigenvalues --   -0.54892  -0.54239  -0.53939  -0.53500  -0.53369
 Alpha  occ. eigenvalues --   -0.52980  -0.52699  -0.52449  -0.51774  -0.51686
 Alpha  occ. eigenvalues --   -0.51422  -0.50854  -0.50301  -0.50165  -0.49949
 Alpha  occ. eigenvalues --   -0.49674  -0.48830  -0.48627  -0.48574  -0.48105
 Alpha  occ. eigenvalues --   -0.47554  -0.47067  -0.46152  -0.45719  -0.44850
 Alpha  occ. eigenvalues --   -0.44670  -0.43921  -0.42261  -0.42044  -0.41246
 Alpha  occ. eigenvalues --   -0.40171  -0.39964  -0.39288  -0.38497  -0.38224
 Alpha  occ. eigenvalues --   -0.37992  -0.37386  -0.37099  -0.36848  -0.36213
 Alpha  occ. eigenvalues --   -0.35932  -0.35532  -0.34647  -0.33733  -0.33106
 Alpha  occ. eigenvalues --   -0.32605
 Alpha virt. eigenvalues --   -0.11988  -0.11333  -0.10827  -0.10270  -0.09043
 Alpha virt. eigenvalues --   -0.08715  -0.08089  -0.07079  -0.06896  -0.05027
 Alpha virt. eigenvalues --   -0.03743  -0.02815  -0.01884  -0.01325  -0.00943
 Alpha virt. eigenvalues --   -0.00367   0.00310   0.01099   0.01458   0.01934
 Alpha virt. eigenvalues --    0.02157   0.02550   0.03003   0.03308   0.03616
 Alpha virt. eigenvalues --    0.03854   0.04192   0.04786   0.05037   0.05457
 Alpha virt. eigenvalues --    0.05729   0.06224   0.06304   0.06748   0.07106
 Alpha virt. eigenvalues --    0.07231   0.07727   0.08152   0.08440   0.08675
 Alpha virt. eigenvalues --    0.08815   0.09290   0.09863   0.09957   0.10300
 Alpha virt. eigenvalues --    0.10447   0.10811   0.11163   0.11730   0.12147
 Alpha virt. eigenvalues --    0.12729   0.13061   0.13461   0.14233   0.14344
 Alpha virt. eigenvalues --    0.15039   0.15069   0.15926   0.16407   0.16755
 Alpha virt. eigenvalues --    0.17321   0.17530   0.18059   0.18871   0.20621
 Alpha virt. eigenvalues --    0.22051   0.22636   0.22850   0.23423   0.23892
 Alpha virt. eigenvalues --    0.24073   0.24875   0.25571   0.26384   0.27102
 Alpha virt. eigenvalues --    0.27668   0.28531   0.29315   0.30393   0.30703
 Alpha virt. eigenvalues --    0.31399   0.32653   0.33867   0.36512   0.36925
 Alpha virt. eigenvalues --    0.37899   0.38548   0.38806   0.39626   0.39911
 Alpha virt. eigenvalues --    0.40707   0.41792   0.42069   0.42702   0.43556
 Alpha virt. eigenvalues --    0.43915   0.44261   0.44912   0.45199   0.46094
 Alpha virt. eigenvalues --    0.46418   0.46832   0.47032   0.47438   0.48207
 Alpha virt. eigenvalues --    0.48554   0.48740   0.48776   0.49180   0.50476
 Alpha virt. eigenvalues --    0.50915   0.51045   0.51621   0.51789   0.52102
 Alpha virt. eigenvalues --    0.52338   0.52594   0.53281   0.53525   0.53825
 Alpha virt. eigenvalues --    0.53947   0.54169   0.54267   0.54423   0.54848
 Alpha virt. eigenvalues --    0.55205   0.55691   0.55828   0.56569   0.56959
 Alpha virt. eigenvalues --    0.57014   0.57333   0.57663   0.58474   0.58912
 Alpha virt. eigenvalues --    0.59783   0.60069   0.60474   0.60975   0.61953
 Alpha virt. eigenvalues --    0.62287   0.62687   0.62981   0.63584   0.64385
 Alpha virt. eigenvalues --    0.65221   0.65870   0.67085   0.67271   0.67451
 Alpha virt. eigenvalues --    0.68079   0.68591   0.69809   0.70113   0.71227
 Alpha virt. eigenvalues --    0.71444   0.71877   0.72305   0.72543   0.73039
 Alpha virt. eigenvalues --    0.73374   0.73630   0.74180   0.74749   0.75205
 Alpha virt. eigenvalues --    0.75450   0.75620   0.76075   0.76210   0.76310
 Alpha virt. eigenvalues --    0.76918   0.77107   0.77335   0.78036   0.78423
 Alpha virt. eigenvalues --    0.78812   0.78979   0.79473   0.79766   0.80230
 Alpha virt. eigenvalues --    0.80899   0.81397   0.81542   0.82324   0.82471
 Alpha virt. eigenvalues --    0.83254   0.83428   0.83744   0.84281   0.84664
 Alpha virt. eigenvalues --    0.85013   0.85133   0.85495   0.86106   0.86560
 Alpha virt. eigenvalues --    0.87228   0.87666   0.88757   0.89099   0.89375
 Alpha virt. eigenvalues --    0.90285   0.90734   0.91257   0.92320   0.92701
 Alpha virt. eigenvalues --    0.93889   0.94028   0.94607   0.94661   0.95916
 Alpha virt. eigenvalues --    0.96748   0.97395   0.97590   0.98029   0.98554
 Alpha virt. eigenvalues --    0.99389   1.00703   1.00999   1.02302   1.03488
 Alpha virt. eigenvalues --    1.04643   1.05229   1.05411   1.06779   1.07242
 Alpha virt. eigenvalues --    1.07271   1.08018   1.08783   1.09530   1.09878
 Alpha virt. eigenvalues --    1.10861   1.11381   1.11882   1.12805   1.13532
 Alpha virt. eigenvalues --    1.13837   1.14340   1.14745   1.15470   1.16263
 Alpha virt. eigenvalues --    1.17327   1.18254   1.18761   1.19221   1.19544
 Alpha virt. eigenvalues --    1.20557   1.20726   1.21679   1.22372   1.23041
 Alpha virt. eigenvalues --    1.23413   1.25153   1.26344   1.27326   1.27439
 Alpha virt. eigenvalues --    1.27739   1.29725   1.30453   1.30744   1.31819
 Alpha virt. eigenvalues --    1.32267   1.33553   1.34114   1.35374   1.35645
 Alpha virt. eigenvalues --    1.36495   1.37534   1.37673   1.38693   1.38944
 Alpha virt. eigenvalues --    1.39110   1.39930   1.40079   1.40790   1.41422
 Alpha virt. eigenvalues --    1.41964   1.42723   1.43902   1.44593   1.46564
 Alpha virt. eigenvalues --    1.47627   1.48435   1.49218   1.49856   1.51827
 Alpha virt. eigenvalues --    1.52771   1.54111   1.54471   1.54932   1.55278
 Alpha virt. eigenvalues --    1.56339   1.57425   1.57962   1.58563   1.58794
 Alpha virt. eigenvalues --    1.59511   1.60363   1.62108   1.62598   1.63113
 Alpha virt. eigenvalues --    1.64519   1.65219   1.65578   1.65972   1.66223
 Alpha virt. eigenvalues --    1.67676   1.68966   1.69407   1.69524   1.70295
 Alpha virt. eigenvalues --    1.70525   1.71542   1.72000   1.72542   1.72833
 Alpha virt. eigenvalues --    1.73631   1.74268   1.74715   1.75318   1.75471
 Alpha virt. eigenvalues --    1.76357   1.76665   1.76989   1.77753   1.77983
 Alpha virt. eigenvalues --    1.78276   1.78987   1.79842   1.80984   1.81418
 Alpha virt. eigenvalues --    1.81891   1.82150   1.82831   1.83206   1.83926
 Alpha virt. eigenvalues --    1.84388   1.84958   1.85241   1.85730   1.85919
 Alpha virt. eigenvalues --    1.86561   1.87593   1.88058   1.88468   1.88870
 Alpha virt. eigenvalues --    1.89841   1.90227   1.90992   1.91659   1.92324
 Alpha virt. eigenvalues --    1.92586   1.94324   1.95033   1.95148   1.97519
 Alpha virt. eigenvalues --    1.97984   1.98174   1.98664   1.99045   1.99963
 Alpha virt. eigenvalues --    2.00227   2.00951   2.01405   2.01959   2.02530
 Alpha virt. eigenvalues --    2.03663   2.03782   2.04544   2.05718   2.06946
 Alpha virt. eigenvalues --    2.07679   2.08002   2.08217   2.09296   2.09722
 Alpha virt. eigenvalues --    2.11276   2.11863   2.12577   2.13822   2.14394
 Alpha virt. eigenvalues --    2.15893   2.16196   2.16730   2.17018   2.18436
 Alpha virt. eigenvalues --    2.19384   2.19912   2.21409   2.21580   2.21685
 Alpha virt. eigenvalues --    2.22181   2.22772   2.23623   2.25094   2.26543
 Alpha virt. eigenvalues --    2.27314   2.28088   2.28306   2.28616   2.29148
 Alpha virt. eigenvalues --    2.29981   2.32199   2.33209   2.33853   2.34225
 Alpha virt. eigenvalues --    2.35155   2.36114   2.36452   2.36897   2.38125
 Alpha virt. eigenvalues --    2.39653   2.40165   2.40817   2.41236   2.42845
 Alpha virt. eigenvalues --    2.44980   2.45653   2.47211   2.47700   2.49240
 Alpha virt. eigenvalues --    2.50380   2.50707   2.51078   2.51678   2.51932
 Alpha virt. eigenvalues --    2.52207   2.53522   2.53857   2.54235   2.55639
 Alpha virt. eigenvalues --    2.55891   2.56957   2.57823   2.58145   2.58946
 Alpha virt. eigenvalues --    2.60231   2.60396   2.62581   2.63286   2.63465
 Alpha virt. eigenvalues --    2.64493   2.66157   2.67065   2.67564   2.68072
 Alpha virt. eigenvalues --    2.68942   2.70654   2.72795   2.75238   2.76595
 Alpha virt. eigenvalues --    2.79885   2.82899   2.85769   2.86210   2.87219
 Alpha virt. eigenvalues --    2.89254   2.90134   2.90933   2.91276   2.92149
 Alpha virt. eigenvalues --    2.92674   2.93256   2.95812   2.97282   2.97874
 Alpha virt. eigenvalues --    2.99170   2.99760   3.03213   3.05611   3.07673
 Alpha virt. eigenvalues --    3.07923   3.34550   3.67878   3.72404   3.75502
 Alpha virt. eigenvalues --    3.80911   3.82102   3.86078   3.89986   3.96102
 Alpha virt. eigenvalues --    3.97207   3.98512   4.00384   4.03074   4.04381
 Alpha virt. eigenvalues --    4.06569   4.08258   4.09917   4.12658   4.13825
 Alpha virt. eigenvalues --    4.17102   4.18909   4.19365   4.22553   4.25788
 Alpha virt. eigenvalues --    4.27303   4.30819   4.34136   4.35119   4.36463
 Alpha virt. eigenvalues --    4.37684   4.41274   4.41599   4.46427   4.49354
 Alpha virt. eigenvalues --    4.51758   4.56650   4.60420   4.62927   4.64653
 Alpha virt. eigenvalues --    4.70468
          Condensed to atoms (all electrons):
 Mulliken charges:
               1
     1  N   -0.776863
     2  C   -0.129339
     3  C    0.637600
     4  O   -0.512445
     5  C   -0.416847
     6  C    0.630846
     7  N   -0.742800
     8  O   -0.521314
     9  H    0.430681
    10  H    0.223507
    11  H    0.214564
    12  H    0.218526
    13  H    0.365928
    14  H    0.355249
    15  H    0.416399
    16  H    0.427051
    17  N   -0.648624
    18  C   -0.059538
    19  C    0.599269
    20  O   -0.537637
    21  C   -0.346476
    22  C    0.173317
    23  C   -0.160826
    24  C   -0.202507
    25  C   -0.130921
    26  C   -0.151260
    27  C   -0.130960
    28  H    0.390522
    29  H    0.206089
    30  H    0.156645
    31  H    0.176547
    32  H    0.140615
    33  H    0.129259
    34  H    0.151993
    35  H    0.132886
    36  H    0.148482
    37  N   -0.613829
    38  C   -0.052326
    39  C    0.629780
    40  O   -0.571179
    41  C   -0.383557
    42  C    0.596014
    43  N   -0.716319
    44  O   -0.546631
    45  H    0.346899
    46  H    0.219080
    47  H    0.212446
    48  H    0.184500
    49  H    0.363001
    50  H    0.367663
    51  N   -0.591699
    52  C   -0.075964
    53  C    0.601977
    54  O   -0.561949
    55  C   -0.281183
    56  C   -0.312536
    57  C   -0.187291
    58  N   -0.565651
    59  C    0.717221
    60  N   -0.764218
    61  N   -0.751764
    62  O   -0.622347
    63  H    0.355040
    64  H    0.168078
    65  H    0.178997
    66  H    0.155132
    67  H    0.164058
    68  H    0.168286
    69  H    0.194965
    70  H    0.173625
    71  H    0.394323
    72  H    0.381845
    73  H    0.393241
    74  H    0.384759
    75  H    0.389890
 Sum of Mulliken charges =   1.00000
 Mulliken charges with hydrogens summed into heavy atoms:
               1
     1  N    0.497267
     2  C    0.094169
     3  C    0.637600
     4  O   -0.512445
     5  C    0.016243
     6  C    0.630846
     7  N   -0.021624
     8  O   -0.521314
    17  N   -0.258102
    18  C    0.146551
    19  C    0.599269
    20  O   -0.537637
    21  C   -0.013284
    22  C    0.173317
    23  C   -0.020211
    24  C   -0.073249
    25  C    0.021072
    26  C   -0.018374
    27  C    0.017521
    37  N   -0.266930
    38  C    0.166754
    39  C    0.629780
    40  O   -0.571179
    41  C    0.013389
    42  C    0.596014
    43  N    0.014345
    44  O   -0.546631
    51  N   -0.236658
    52  C    0.092114
    53  C    0.601977
    54  O   -0.561949
    55  C    0.052946
    56  C    0.019809
    57  C    0.181299
    58  N   -0.171327
    59  C    0.717221
    60  N    0.010869
    61  N    0.022885
    62  O   -0.622347
 APT charges:
               1
     1  N   -0.713756
     2  C   -0.283772
     3  C   -1.697476
     4  O    0.965337
     5  C   -1.065233
     6  C    1.366785
     7  N   -0.937588
     8  O   -1.477113
     9  H    0.678462
    10  H    0.072859
    11  H    0.613334
    12  H    0.658883
    13  H   -0.472772
    14  H    1.171546
    15  H   -0.528234
    16  H    1.199501
    17  N    0.843275
    18  C   -1.123352
    19  C   -1.210242
    20  O    1.013850
    21  C   -1.915463
    22  C    0.890952
    23  C   -0.192179
    24  C   -0.766758
    25  C   -0.503650
    26  C   -0.635653
    27  C   -0.803253
    28  H   -0.009947
    29  H    0.887186
    30  H    0.005171
    31  H    1.828826
    32  H    1.426913
    33  H    0.176181
    34  H    0.892064
    35  H   -0.419700
    36  H   -0.065256
    37  N   -1.750257
    38  C    0.516633
    39  C    2.224145
    40  O   -2.349385
    41  C   -2.121919
    42  C   -0.956349
    43  N   -1.795602
    44  O    1.209183
    45  H    2.100529
    46  H   -0.062571
    47  H    1.961279
    48  H    0.048943
    49  H    1.969216
    50  H    0.051856
    51  N   -1.975389
    52  C    1.009564
    53  C    0.660446
    54  O   -0.477085
    55  C    0.104680
    56  C   -2.078533
    57  C   -2.482494
    58  N    0.914914
    59  C    0.464424
    60  N   -0.946138
    61  N   -0.245612
    62  O   -1.185533
    63  H    1.616234
    64  H   -0.606418
    65  H   -0.255903
    66  H    0.273534
    67  H    1.174362
    68  H    0.728337
    69  H    0.279890
    70  H    2.115200
    71  H   -1.008830
    72  H    0.916469
    73  H    1.900610
    74  H    0.498473
    75  H   -1.310630
 Sum of APT charges =   1.00000
 APT charges with hydrogens summed into heavy atoms:
               1
     1  N    0.635972
     2  C   -0.210912
     3  C   -1.697476
     4  O    0.965337
     5  C    0.206984
     6  C    1.366785
     7  N   -0.238815
     8  O   -1.477113
    17  N    0.833327
    18  C   -0.236166
    19  C   -1.210242
    20  O    1.013850
    21  C   -0.081466
    22  C    0.890952
    23  C    1.234734
    24  C   -0.590577
    25  C    0.388414
    26  C   -1.055354
    27  C   -0.868509
    37  N    0.350272
    38  C    0.454062
    39  C    2.224145
    40  O   -2.349385
    41  C   -0.111697
    42  C   -0.956349
    43  N    0.225470
    44  O    1.209183
    51  N   -0.359155
    52  C    0.403147
    53  C    0.660446
    54  O   -0.477085
    55  C    0.122311
    56  C   -0.175834
    57  C   -0.087404
    58  N   -0.093916
    59  C    0.464424
    60  N    1.870941
    61  N   -1.057768
    62  O   -1.185533
 Electronic spatial extent (au):  <R**2>=         138196.5965
 Charge=              1.0000 electrons
 Dipole moment (field-independent basis, Debye):
    X=            -34.9573    Y=             -3.6596    Z=            -41.2390  Tot=             54.1855
 Quadrupole moment (field-independent basis, Debye-Ang):
   XX=             53.1000   YY=           -185.0161   ZZ=            198.8788
   XY=              8.1606   XZ=            320.2729   YZ=             -7.8051
 Traceless Quadrupole moment (field-independent basis, Debye-Ang):
   XX=             30.7791   YY=           -207.3370   ZZ=            176.5579
   XY=              8.1606   XZ=            320.2729   YZ=             -7.8051
 Octapole moment (field-independent basis, Debye-Ang**2):
  XXX=           2541.8175  YYY=            960.2022  ZZZ=            528.3828  XYY=           1396.4172
  XXY=            423.7131  XXZ=           -902.2718  XZZ=          -1656.7703  YZZ=            563.2125
  YYZ=           1478.3194  XYZ=            125.9033
 Hexadecapole moment (field-independent basis, Debye-Ang**3):
 XXXX=         -55735.4545 YYYY=         -12603.5219 ZZZZ=         -33984.5732 XXXY=          -7874.9967
 XXXZ=         -16563.6522 YYYX=          -6162.7512 YYYZ=          -5885.3484 ZZZX=          -3639.8071
 ZZZY=          -8871.3763 XXYY=         -13487.5467 XXZZ=           -648.4973 YYZZ=         -14668.1208
 XXYZ=          -3702.6684 YYXZ=         -11205.3880 ZZXY=          -3942.8290
 N-N= 5.186023741158D+03 E-N=-1.481185992550D+04  KE= 1.900586368379D+03
  Exact polarizability:       0.000       0.000       0.000       0.000       0.000       0.000
 Approx polarizability:     467.473     -47.105     442.987     -12.707      -4.068     465.443
 Calling FoFJK, ICntrl=    100127 FMM=F ISym2X=0 I1Cent= 0 IOpClX= 0 NMat=1 NMatS=1 NMatT=0.
 -------------------------------------------------------------------
 Center     Atomic                   Forces (Hartrees/Bohr)
 Number     Number              X              Y              Z
 -------------------------------------------------------------------
      1        7           0.008385863    0.010237813   -0.000047487
      2        6           0.002021372   -0.022925291    0.002360485
      3        6          -0.003125923   -0.007613839   -0.015504516
      4        8           0.001105111    0.001275493    0.006797148
      5        6          -0.000481670    0.002628013    0.005575529
      6        6          -0.010436268   -0.011839072    0.009976271
      7        7           0.000890333    0.004037405   -0.009154356
      8        8           0.011852944    0.014559077   -0.009173966
      9        1          -0.009398259    0.004179434    0.000652883
     10        1           0.000164858    0.004064620   -0.002013322
     11        1          -0.004339639    0.001798621    0.001439094
     12        1          -0.002540274   -0.004723226   -0.003407357
     13        1           0.002463263    0.001448204    0.005222311
     14        1          -0.002060020   -0.004400904    0.001571257
     15        1           0.004215091    0.002247675    0.007943925
     16        1          -0.002664228    0.003585768   -0.007449594
     17        7           0.011890981   -0.005382294   -0.002050071
     18        6          -0.008019227   -0.002597386    0.000642962
     19        6           0.005196134    0.001181045    0.009407634
     20        8          -0.002671820    0.003919917   -0.003241764
     21        6          -0.006308373   -0.000395993   -0.000058978
     22        6          -0.000924510    0.002505769   -0.000929336
     23        6           0.002970409   -0.003202552   -0.001633895
     24        6           0.000541590    0.003903930    0.002778188
     25        6          -0.000598761    0.000146494   -0.005238564
     26        6           0.000608852    0.003676606    0.002549113
     27        6           0.001614499   -0.001794963    0.002185713
     28        1          -0.006474053    0.006502057    0.004957034
     29        1           0.002429040   -0.002788324   -0.002516747
     30        1          -0.002851466    0.001204380   -0.000223800
     31        1          -0.003010035   -0.001767759   -0.000505415
     32        1           0.001803858   -0.001063925   -0.001007431
     33        1          -0.000961326    0.000284140    0.001359191
     34        1           0.001494551   -0.001577003   -0.000505205
     35        1          -0.001063403   -0.002403448    0.001931719
     36        1           0.001560275   -0.001218754    0.001417501
     37        7          -0.013140546    0.000461631    0.004709915
     38        6           0.007067516   -0.001948085   -0.000058100
     39        6          -0.012499932    0.002715297   -0.000625102
     40        8           0.013970163   -0.001070649   -0.000347568
     41        6          -0.008087763    0.014685585   -0.002958207
     42        6           0.002483019   -0.006721372    0.001010988
     43        7          -0.028112276   -0.012848500    0.012587188
     44        8           0.019397110    0.000920710   -0.005105518
     45        1          -0.001132463    0.008892506   -0.007020185
     46        1           0.006284059   -0.003148560   -0.000738922
     47        1          -0.000396615   -0.006641548   -0.004090703
     48        1           0.004813009   -0.004125055   -0.000030772
     49        1           0.001111353    0.008562616   -0.002348147
     50        1           0.007937246    0.002184211   -0.005174888
     51        7           0.007006964   -0.008313063   -0.004088981
     52        6           0.003827860    0.008316346    0.006559109
     53        6           0.007038146   -0.003066001    0.003083740
     54        8          -0.013275999    0.012569774    0.005302554
     55        6           0.008069908    0.004135012   -0.004378879
     56        6           0.001564601    0.003721726   -0.000901217
     57        6          -0.005401444    0.005607128    0.002121640
     58        7           0.005050403    0.000265806    0.002753598
     59        6          -0.003984195    0.013911659    0.002249974
     60        7           0.001141833   -0.004207830   -0.001511265
     61        7           0.001444527   -0.007840126    0.001074008
     62        8           0.008873583   -0.012968073    0.005555556
     63        1          -0.006798604   -0.002157445   -0.002012159
     64        1          -0.001220140    0.003785020   -0.001550837
     65        1           0.000119424    0.000879800    0.002784326
     66        1          -0.002255512    0.001926636   -0.001217882
     67        1          -0.001457173   -0.001204546   -0.000219859
     68        1           0.001490217   -0.005790282   -0.008672936
     69        1          -0.001787048    0.000687701    0.000549542
     70        1          -0.000645611    0.001104404    0.000673361
     71        1           0.000833834    0.000578053   -0.000402421
     72        1          -0.001030663   -0.007710858    0.001010311
     73        1           0.000263553    0.001176708   -0.003465027
     74        1          -0.000957942   -0.005672438   -0.000066372
     75        1          -0.000884176    0.000654377    0.000853981
 -------------------------------------------------------------------
 Cartesian Forces:  Max     0.028112276 RMS     0.005914112
 FormGI is forming the generalized inverse of G from B-inverse, IUseBI=4.

 GradGradGradGradGradGradGradGradGradGradGradGradGradGradGradGradGradGrad
 Berny optimization.
 Internal  Forces:  Max     0.025968637 RMS     0.006070580
 Search for a local minimum.
 Step number   1 out of a maximum of  399
 All quantities printed in internal units (Hartrees-Bohrs-Radians)
 Mixed Optimization -- RFO/linear search
 Second derivative matrix not updated -- analytic derivatives used.
 ITU=  0
     Eigenvalues ---   -0.00622   0.00175   0.00213   0.00231   0.00265
     Eigenvalues ---    0.00295   0.00346   0.00349   0.00393   0.00456
     Eigenvalues ---    0.00490   0.00610   0.00683   0.00763   0.00778
     Eigenvalues ---    0.00922   0.00970   0.01021   0.01121   0.01198
     Eigenvalues ---    0.01287   0.01466   0.01522   0.01657   0.01696
     Eigenvalues ---    0.01764   0.01784   0.01821   0.01828   0.01942
     Eigenvalues ---    0.02111   0.02232   0.02387   0.02393   0.02530
     Eigenvalues ---    0.02711   0.02720   0.02839   0.02896   0.03371
     Eigenvalues ---    0.03437   0.03544   0.03715   0.03784   0.03856
     Eigenvalues ---    0.04055   0.04109   0.04172   0.04317   0.04370
     Eigenvalues ---    0.04436   0.04477   0.04542   0.04697   0.04726
     Eigenvalues ---    0.04886   0.04947   0.05073   0.05113   0.05213
     Eigenvalues ---    0.05382   0.05401   0.05514   0.05685   0.05814
     Eigenvalues ---    0.05874   0.06315   0.06498   0.06897   0.07066
     Eigenvalues ---    0.07345   0.07810   0.08098   0.08302   0.08445
     Eigenvalues ---    0.08595   0.08840   0.08888   0.09160   0.09494
     Eigenvalues ---    0.09692   0.11101   0.11316   0.11389   0.11462
     Eigenvalues ---    0.11778   0.11918   0.11997   0.12068   0.12342
     Eigenvalues ---    0.12478   0.12598   0.12652   0.12983   0.13076
     Eigenvalues ---    0.13197   0.13273   0.13367   0.13595   0.13771
     Eigenvalues ---    0.14057   0.14401   0.14825   0.16465   0.16683
     Eigenvalues ---    0.16945   0.17920   0.18217   0.19007   0.19144
     Eigenvalues ---    0.19482   0.19544   0.19742   0.19976   0.20042
     Eigenvalues ---    0.20324   0.20843   0.21066   0.21562   0.21756
     Eigenvalues ---    0.21951   0.22132   0.22374   0.22673   0.22832
     Eigenvalues ---    0.23434   0.23753   0.24066   0.24263   0.24876
     Eigenvalues ---    0.25447   0.25846   0.26209   0.26601   0.27236
     Eigenvalues ---    0.27406   0.28661   0.28731   0.29310   0.29633
     Eigenvalues ---    0.30483   0.30808   0.31092   0.31838   0.32330
     Eigenvalues ---    0.32639   0.33020   0.33219   0.33323   0.33521
     Eigenvalues ---    0.33761   0.34127   0.34252   0.34429   0.34757
     Eigenvalues ---    0.34949   0.35064   0.35113   0.35261   0.35562
     Eigenvalues ---    0.35696   0.35956   0.35993   0.36092   0.36227
     Eigenvalues ---    0.36270   0.36445   0.36622   0.36823   0.36945
     Eigenvalues ---    0.37143   0.37963   0.38728   0.40143   0.40418
     Eigenvalues ---    0.41361   0.42242   0.42544   0.42894   0.43515
     Eigenvalues ---    0.43733   0.43809   0.44137   0.44356   0.44515
     Eigenvalues ---    0.45309   0.46527   0.47294   0.47633   0.47789
     Eigenvalues ---    0.48224   0.48698   0.48750   0.48823   0.49024
     Eigenvalues ---    0.49607   0.49687   0.49806   0.50147   0.51048
     Eigenvalues ---    0.51360   0.52568   0.54990   0.55182   0.58274
     Eigenvalues ---    0.59466   0.65880   0.71226   0.72762   0.79352
     Eigenvalues ---    0.81510   0.81813   0.83693   0.86784   1.11557
     Eigenvalues ---    1.24170   2.07143   2.69374   4.18330
 RFO step:  Lambda=-3.65525049D-02 EMin=-6.21643487D-03
 Linear search not attempted -- first point.
 Iteration  1 RMS(Cart)=  0.36458101 RMS(Int)=  0.01159259
 Iteration  2 RMS(Cart)=  0.05255662 RMS(Int)=  0.00022438
 Iteration  3 RMS(Cart)=  0.00059913 RMS(Int)=  0.00015160
 Iteration  4 RMS(Cart)=  0.00000016 RMS(Int)=  0.00015160
 Variable       Old X    -DE/DX   Delta X   Delta X   Delta X     New X
                                 (Linear)    (Quad)   (Total)
    R1        2.77229   0.01962   0.00000   0.05021   0.05021   2.82251
    R2        1.97422   0.01028   0.00000   0.03751   0.03751   2.01173
    R3        1.93548   0.00873   0.00000   0.02036   0.02036   1.95583
    R4        1.92811   0.00683   0.00000   0.01632   0.01632   1.94443
    R5        2.88942   0.00332   0.00000   0.00740   0.00740   2.89682
    R6        2.87518   0.00275   0.00000   0.01270   0.01270   2.88789
    R7        2.06656  -0.00130   0.00000  -0.00432  -0.00432   2.06224
    R8        2.32096  -0.00495   0.00000  -0.00520  -0.00520   2.31577
    R9        2.57804  -0.00322   0.00000   0.00429   0.00429   2.58233
   R10        2.87502   0.00200   0.00000   0.00583   0.00583   2.88085
   R11        2.06097   0.00485   0.00000   0.00990   0.00990   2.07087
   R12        2.05431   0.00453   0.00000   0.00988   0.00988   2.06419
   R13        2.56557  -0.00265   0.00000  -0.01501  -0.01501   2.55056
   R14        2.30542   0.02019   0.00000   0.02619   0.02619   2.33161
   R15        1.89947   0.00572   0.00000   0.01109   0.01109   1.91056
[...]
 ,-0.00089361,0.00022824,-0.00051708,0.00103445,0.00005688,0.00000330,-
 0.00008080,-0.00008232,0.00003897,-0.00007094,-0.00011327,0.00019283,-
 0.00006240,0.00013848,0.00019513,-0.00003609,0.00011810,-0.00002720,0.
 00009142,0.00018032,-0.00049788,-0.00049637,0.00008055,0.00010452,0.00
 000627,-0.00072718,0.00041754,0.00018477,0.00085709,-0.00029365,0.0000
 7966,0.00006829,-0.00007499,-0.00018030,-0.00032850,0.00024984,0.00007
 452,-0.00046812,-0.00151481,0.00016550,0.00050049,0.00243226,0.0021650
 3,0.00714964,0.01781812,-0.02606349,0.07528721,0.16580529,-0.31227895,
 -0.00145370,-0.00425992,-0.00082495,0.00038952,-0.00043296,0.00002154,
 -0.00080699,0.00027119,0.00009169,0.00003068,0.00000415,0.00003746,-0.
 00006665,-0.00004929,-0.00003886,0.00010043,0.00000004,0.00003330,0.00
 016345,0.00014455,0.00000805,0.00018072,-0.00003993,0.00028431,0.00026
 061,0.00014765,0.00016917,0.00041245,-0.00023940,0.00093035,-0.0009558
 1,0.00050219,-0.00061199,-0.00310631,-0.00365351,0.01120707,-0.0777886
 3,-0.17732648,0.32596058,0.00009266,0.00002336,0.00011640,-0.00002225,
 -0.00004069,-0.00002637,-0.00075075,0.00021992,0.00006867,0.00035470,-
 0.00019653,-0.00012733,0.00008190,0.00004714,0.00001046,-0.00013218,0.
 00000238,-0.00016799,0.00005751,-0.00002754,0.00012661,0.00007960,0.00
 000499,0.00010517,-0.00002116,-0.00002429,-0.00005995,0.00001297,0.000
 01285,0.00001031,-0.00001037,-0.00000753,-0.00001823,-0.00000945,0.000
 00619,-0.00000307,-0.00000812,-0.00000703,-0.00001770,-0.00001768,-0.0
 0000034,-0.00002742,-0.00006680,0.00000370,-0.00006993,-0.00008615,-0.
 00000440,-0.00008394,0.00053583,-0.00007864,0.00020122,-0.00053524,-0.
 00010123,-0.00028207,-0.00550729,0.00063057,0.00380921,0.00046660,-0.0
 0099095,-0.00233074,-0.00028995,0.00054215,0.00061435,-0.00011974,-0.0
 0015278,-0.00032238,0.00009085,-0.00006331,0.00017867,0.00005737,-0.00
 011506,0.00004967,-0.00000136,-0.00000877,-0.00001954,-0.00000810,0.00
 000088,-0.00000527,0.00003414,-0.00001235,0.00002952,-0.00039479,-0.00
 011650,-0.00020850,0.00009841,0.00001803,0.00012866,0.00010219,0.00053
 937,-0.00094917,0.00018481,-0.00024964,-0.00016363,-0.00000899,0.00005
 036,0.00000159,0.00003484,0.00003215,-0.00006158,0.00002346,-0.0000124
 3,0.00001184,0.00002428,-0.00000078,0.00003065,0.00001309,-0.00000366,
 0.00001290,0.00062657,0.00077154,-0.00129057,-0.00063366,-0.00000564,0
 .00028431,-0.00026064,-0.00004713,-0.00003399,0.00043596,0.00013737,0.
 00013000,0.00006460,0.00002658,0.00007587,-0.00006395,-0.00027558,0.00
 023953,0.00001743,0.00016995,-0.00015118,-0.00005955,0.00027436,-0.000
 21879,0.00022570,-0.00017909,0.00033863,0.00007936,0.00002789,-0.00001
 176,-0.00002862,-0.00000034,0.00002102,0.00000634,0.00004775,-0.000049
 80,0.00002689,-0.00001275,0.00002581,-0.00001138,-0.00001531,0.0000336
 3,0.00010228,0.00033903,-0.00013178,-0.00001623,-0.00024677,-0.0001342
 5,0.00123337,-0.00165202,-0.00049443,-0.00190235,-0.00004296,0.0003854
 3,-0.00006001,-0.00001437,0.00001167,-0.00009603,0.00076257,-0.0004266
 1,0.00324341,-0.00149043,-0.00077164,0.00243137,0.00131675,-0.00010055
 ,-0.00462532,-0.00412128,0.00482906,-0.00352533,0.00069772,-0.00074550
 ,-0.01138883,0.00078250,-0.02329060,-0.00019506,0.00113063,0.00007419,
 -0.00008577,-0.00058171,0.00037016,0.00001230,0.00002051,0.00001770,-0
 .00000810,0.00003738,0.00001241,-0.00000660,0.00000572,-0.00000631,0.0
 0022066,0.00003272,-0.00012629,-0.00000652,-0.00000190,0.00002148,-0.0
 0008601,-0.00033754,0.00036195,-0.00004602,-0.00014929,0.00009723,-0.0
 0058449,0.00074088,0.00069373,0.00253575,0.00027341,-0.00148131,-0.000
 73671,-0.00001131,0.00007889,0.01996804,0.00026504,-0.00026455,-0.0001
 1743,0.00001190,0.00027932,-0.00001188,0.00048326,-0.00011502,-0.00006
 905,-0.00032525,-0.00005780,-0.00002046,-0.00012088,-0.00007949,-0.000
 00044,0.00016446,0.00019131,-0.00000039,-0.00003898,-0.00006872,-0.000
 01408,-0.00010071,-0.00017810,0.00000421,-0.00062695,0.00029933,0.0002
 0248,-0.00002379,-0.00005149,-0.00001442,0.00001816,0.00008859,-0.0000
 0803,0.00005388,0.00000248,0.00000643,-0.00000146,0.00001281,0.0000143
 3,0.00004984,0.00004000,0.00003042,-0.00002388,0.00002298,-0.00003607,
 -0.00000478,0.00003843,0.00000730,-0.00058938,-0.00038172,-0.00012442,
 0.00038725,0.00121194,0.00070467,0.00979801,0.00154936,-0.00339529,-0.
 00691821,-0.00152213,0.00169608,0.00010323,-0.00074701,-0.00051907,0.0
 0008719,0.00004156,0.00050450,-0.00015205,0.00006440,-0.00024785,-0.00
 017319,0.00010981,-0.00004815,-0.00001639,0.00001193,0.00004082,-0.000
 00260,-0.00003289,-0.00000875,-0.00007867,0.00000306,-0.00005154,-0.00
 013943,0.00074135,0.00025795,-0.00013831,-0.00007921,-0.00017880,0.000
 69941,-0.00010787,0.00092612,0.00000340,-0.00023398,0.00000039,0.00003
 616,-0.00004324,-0.00000279,0.00004475,0.00002832,0.00004269,-0.000026
 43,0.00002724,-0.00001979,-0.00001489,0.00001616,-0.00004674,-0.000007
 84,0.00001627,-0.00002239,-0.00308978,-0.00278602,0.00337358,0.0012182
 8,-0.00028452,-0.00050375,-0.00093154,0.00121006,0.00115062,0.00015224
 ,-0.00055620,-0.00042911,-0.00016666,-0.00013381,-0.00012168,-0.000371
 90,0.00045923,-0.00001547,0.00009503,-0.00018578,-0.00002424,0.0005033
 7,-0.00068380,-0.00011001,-0.00044528,0.00085819,-0.00016521,-0.000117
 91,-0.00005707,0.00000698,0.00006300,0.00001044,-0.00008625,-0.0000007
 9,-0.00008835,0.00013997,-0.00002324,0.00002314,0.00005175,0.00000663,
 0.00005256,0.00000452,0.00044867,-0.00092981,-0.00082521,0.00003167,0.
 00021684,0.00014030,-0.00255858,0.00142015,0.00064803,0.00268096,-0.00
 012156,-0.00028053,-0.00004850,-0.00002845,-0.00013232,-0.00024762,0.0
 0016531,-0.00003034,-0.00000868,-0.00046524,0.00012688,0.00116170,0.00
 405897,0.00245518,-0.00006594,-0.02434719,0.00285210,-0.00101505,0.000
 46199,-0.00519364,-0.01550532,-0.41483605,-0.08270975,0.00127936,-0.00
 153821,0.00004809,-0.00043431,0.00036938,0.00045698,0.00001709,0.00000
 937,-0.00001378,-0.00003500,-0.00010604,0.00000019,0.00007844,-0.00000
 523,0.00000235,0.00015381,0.00007408,-0.00007970,0.00002170,0.00000130
 ,-0.00001044,0.00004148,0.00013604,-0.00006466,0.00005485,0.00005970,-
 0.00006461,-0.00048187,-0.00016225,-0.00088446,0.00007676,0.00253458,0
 .00092747,-0.00054487,-0.00020135,0.00019007,0.01548671,0.43173076,-0.
 00003425,-0.00002208,-0.00017404,-0.00000735,0.00000950,0.00008130,0.0
 0035298,-0.00014915,-0.00005651,-0.00021024,0.00008208,-0.00008759,-0.
 00006195,-0.00003932,0.00001971,0.00004067,-0.00005831,0.00012293,-0.0
 0001868,0.00002835,-0.00011054,-0.00000888,0.00004937,-0.00009686,-0.0
 0010178,0.00006387,0.00008397,-0.00001298,-0.00001204,-0.00001715,-0.0
 0001335,-0.00000840,0.00000981,-0.00001191,-0.00001554,0.00000778,-0.0
 0000485,0.00001178,0.00000852,-0.00002056,-0.00000793,0.00001398,0.000
 05558,-0.00001428,0.00006926,0.00009479,-0.00001624,0.00015269,-0.0004
 4980,0.00030388,-0.00051508,0.00004852,-0.00016707,0.00070713,0.010747
 56,0.00102688,-0.00338031,-0.00770207,0.00160185,0.00066338,-0.0007848
 8,0.00075131,0.00071567,0.00025664,-0.00022158,-0.00030727,0.00002407,
 0.00004752,0.00011841,-0.00013917,0.00022016,0.00006577,0.00006933,-0.
 00005601,-0.00003505,0.00002105,-0.00003610,-0.00005805,0.00001463,-0.
 00000219,-0.00001030,-0.00016855,0.00007732,0.00027544,0.00003221,0.00
 004227,-0.00033024,-0.00019055,-0.00011777,-0.00037635,0.00005408,-0.0
 0022414,0.00000284,0.00000370,-0.00005519,-0.00002433,-0.00001695,-0.0
 0004016,-0.00006299,0.00000604,-0.00001397,0.00001085,-0.00001710,0.00
 000184,-0.00000783,0.00000441,-0.00001410,-0.00000263,-0.00271357,-0.0
 0205342,0.00336232,0.00134980,-0.00011010,-0.00053788,-0.00010209,0.00
 058715,0.00079447,-0.00048424,-0.00036328,-0.00045408,-0.00020973,-0.0
 0008070,-0.00011351,0.00015151,0.00048453,-0.00033997,-0.00007992,-0.0
 0030919,0.00017795,-0.00003746,-0.00055119,0.00025004,-0.00027915,0.00
 058543,-0.00050083,-0.00017138,-0.00008975,0.00007710,0.00006435,0.000
 00484,-0.00008170,-0.00001562,-0.00009095,0.00012328,-0.00001952,0.000
 04576,0.00001261,0.00002540,0.00003467,-0.00001649,0.00007397,-0.00061
 845,-0.00033005,0.00001078,0.00041470,0.00015705,-0.00029462,-0.000237
 36,0.00026502,-0.00017763,-0.00046907,0.00004724,-0.00003195,-0.000000
 64,-0.00013110,-0.00022693,0.00026569,-0.00000344,-0.00014425,0.000296
 91,0.00162072,-0.00027737,0.00490399,-0.00566114,0.00410313,0.03047843
 ,0.01664615,-0.00030097,-0.00066584,-0.00163838,-0.02435712,-0.0909907
 6,-0.09361193,0.00020113,-0.00003737,-0.00023888,0.00003277,0.00064717
 ,0.00009829,-0.00002262,-0.00003310,-0.00000786,-0.00001748,-0.0000640
 4,-0.00001746,0.00005617,-0.00001674,0.00002648,0.00017266,-0.00000722
 ,-0.00006364,0.00005462,-0.00000077,-0.00003067,0.00011006,0.00042055,
 -0.00037574,-0.00002701,0.00002789,-0.00008343,-0.00048277,0.00002670,
 -0.00119628,-0.00125461,0.00181818,-0.00304543,0.00031503,-0.00049748,
 0.00000899,0.01868510,0.07926576,0.08602089,0.00083132,-0.00042981,-0.
 00018649,0.00000673,0.00031872,-0.00003573,-0.00041224,0.00023467,0.00
 014213,0.00012134,-0.00031855,-0.00026461,-0.00003111,-0.00003874,0.00
 003999,-0.00007956,0.00021512,-0.00031152,0.00006828,-0.00012743,0.000
 19679,0.00006706,-0.00018276,0.00018639,-0.00155410,0.00058047,0.00047
 941,-0.00001086,-0.00007004,-0.00000285,0.00000699,0.00012396,-0.00004
 849,0.00004761,-0.00000015,0.00000835,-0.00002594,0.00000540,-0.000018
 87,0.00000696,0.00003952,-0.00001491,-0.00016156,0.00001644,-0.0001752
 0,-0.00006570,-0.00002327,0.00006258,0.00011146,-0.00054413,-0.0001860
 8,0.00029635,0.00026758,0.00013643,0.00172423,0.00046408,-0.00022606,-
 0.00178729,0.00091370,0.00063042,-0.00017932,0.00000618,0.00001522,-0.
 00000978,-0.00000810,0.00000034,-0.00001874,-0.00001292,0.00002057,-0.
 00006173,-0.00005911,0.00003378,-0.00002365,0.00000174,0.00001678,-0.0
 0002574,-0.00003174,-0.00003478,-0.00001946,-0.00001394,-0.00001094,-0
 .00033933,0.00106643,0.00044299,-0.00002205,-0.00005294,-0.00005350,0.
 00021851,0.00012646,-0.00003489,0.00003784,-0.00013225,-0.00003787,0.0
 0001448,0.00002068,-0.00000205,0.00009076,0.00004788,-0.00004900,0.000
 00911,0.00000481,-0.00000223,0.00001906,0.00001402,-0.00000084,0.00001
 377,0.00000666,-0.00000044,-0.00054074,-0.00049834,0.00039065,0.000374
 55,0.00004845,0.00001985,-0.00089249,0.00066335,0.00058106,0.00039546,
 -0.00020083,-0.00030143,-0.00010249,-0.00005287,0.00002922,0.00023058,
 -0.00008458,0.00003365,-0.00009324,0.00000114,-0.00004471,-0.00023532,
 0.00001352,-0.00005006,0.00009595,-0.00000539,-0.00005173,-0.00005958,
 -0.00004657,-0.00000910,-0.00000517,0.00001142,-0.00005952,-0.00000884
 ,0.00000638,0.00004488,0.00003098,0.00000792,0.00002622,0.00000920,0.0
 0000097,0.00004311,0.00057052,-0.00018999,-0.00117974,-0.00014956,-0.0
 0064408,0.00011523,-0.00936853,0.00249551,0.00337827,0.00481757,0.0022
 2124,-0.00239924,0.00017945,-0.00017267,-0.00004087,0.00023292,-0.0002
 9410,0.00026603,-0.00098484,0.00083123,-0.00010426,-0.00249857,-0.0012
 0094,0.00065007,-0.00229252,0.00369247,0.00527408,0.00322247,-0.001494
 46,0.00145017,-0.08476652,-0.04929826,-0.17010001,0.00352811,-0.002158
 61,0.00016459,0.00033629,-0.00007457,0.00040208,0.00000164,0.00007677,
 -0.00013746,-0.00004008,-0.00022124,0.00006584,-0.00005620,0.00011144,
 -0.00013488,-0.00023139,0.00002875,0.00001255,-0.00004036,-0.00001757,
 -0.00000097,0.00004209,0.00005981,-0.00008684,-0.00007128,0.00007430,-
 0.00012274,0.00361628,-0.00133208,0.00120238,-0.00105512,-0.00051293,-
 0.00017624,0.00248349,-0.00068798,0.00005829,-0.00115769,-0.00016077,0
 .00447109,0.08561924,0.00040836,-0.00025645,-0.00010766,0.00001408,0.0
 0022597,-0.00004110,0.00014782,0.00004895,0.00004228,-0.00007918,-0.00
 007109,-0.00002067,-0.00004523,-0.00004310,-0.00000171,0.00006268,0.00
 018168,-0.00010743,-0.00000365,-0.00007349,0.00007612,-0.00003599,-0.0
 0016189,0.00007645,-0.00082358,0.00031850,0.00030728,-0.00001103,-0.00
 004773,0.00000233,0.00003040,0.00007941,-0.00002354,0.00004028,0.00000
 460,0.00000407,-0.00000412,0.00000405,0.00000012,0.00003458,0.00002690
 ,0.00000635,-0.00007215,0.00002457,-0.00008788,-0.00002414,0.00000699,
 0.00001590,-0.00021214,-0.00041902,-0.00005416,0.00022409,0.00018797,-
 0.00011535,-0.00073325,-0.00031018,-0.00021458,0.00112351,-0.00096317,
 -0.00085479,0.00037534,-0.00037125,-0.00030669,-0.00005144,0.00009563,
 0.00018275,-0.00004324,-0.00000492,-0.00007593,0.00009059,-0.00015259,
 -0.00010955,-0.00004230,0.00002237,0.00002305,-0.00003409,0.00002925,0
 .00005690,-0.00004756,0.00000211,-0.00002361,0.00028813,0.00065019,0.0
 0019102,-0.00003593,-0.00005408,0.00004745,-0.00018585,0.00007665,0.00
 008596,-0.00010056,0.00012741,0.00006632,0.00000744,0.00001218,0.00001
 061,0.00001312,0.00002012,0.00007736,-0.00000853,0.00001629,-0.0000073
 8,0.00000866,0.00000312,-0.00001287,-0.00000876,0.00001997,-0.00000596
 ,0.00019366,0.00011866,-0.00015901,0.00007963,0.00007219,0.00004684,-0
 .00036812,0.00026258,0.00010618,0.00016490,-0.00010497,-0.00009262,-0.
 00003849,-0.00002228,0.00002729,0.00027402,-0.00000195,-0.00007217,-0.
 00011855,-0.00006926,0.00004879,-0.00036912,0.00004953,0.00013670,0.00
 009776,-0.00011970,-0.00001732,-0.00002017,-0.00001650,-0.00003083,-0.
 00000890,0.00000531,-0.00002276,-0.00000982,0.00001322,0.00001136,0.00
 001535,0.00002119,0.00000781,0.00000955,-0.00000226,0.00001879,0.00031
 406,-0.00020395,-0.00053147,0.00012633,-0.00026923,0.00007459,-0.00623
 172,0.00549927,0.00178888,0.00582904,-0.00175507,-0.00239872,0.0000971
 8,-0.00006436,0.00004079,0.00020670,0.00000655,0.00007166,-0.00027868,
 -0.00010778,-0.00044753,0.00039496,-0.00263486,-0.00133937,0.01425948,
 0.01822827,0.02260641,-0.00151876,-0.00457533,0.00493827,-0.04817339,-
 0.10645043,-0.08630142,0.00234377,-0.00374833,0.00038709,0.00022739,0.
 00001112,0.00001783,0.00002068,0.00004299,-0.00010716,-0.00004081,-0.0
 0015778,0.00003867,-0.00003119,0.00004821,-0.00007395,-0.00007870,-0.0
 0001456,0.00000290,-0.00000227,-0.00000688,-0.00001974,0.00001805,-0.0
 0009530,0.00009657,-0.00000295,0.00012547,-0.00015302,-0.00064937,-0.0
 0314280,0.00330409,0.00018839,-0.00062046,0.00012627,0.00005436,0.0009
 6929,0.00089162,-0.01381619,0.00283139,-0.02604730,0.04657557,0.096622
 92,0.00006941,-0.00003631,-0.00016858,0.00001681,0.00000289,0.00003733
 ,0.00027502,-0.00006142,0.00004660,-0.00012627,0.00005918,-0.00003912,
 -0.00005424,-0.00001782,0.00001949,-0.00000795,-0.00003329,0.00007838,
 0.00001656,-0.00000197,-0.00008526,0.00001737,0.00002934,-0.00006988,-
 0.00022926,0.00007919,0.00015401,-0.00000416,-0.00000711,-0.00001084,-
 0.00000720,0.00001709,0.00001767,0.00000320,-0.00000860,-0.00000029,-0
 .00001846,0.00001597,0.00001025,-0.00001945,0.00001366,0.00001694,0.00
 002621,-0.00001380,0.00005525,0.00008155,-0.00003846,0.00014415,-0.000
 28737,0.00010258,-0.00025787,0.00008467,-0.00011105,0.00013316,0.00116
 675,-0.00023746,-0.00047802,-0.00100438,0.00074757,0.00047249,-0.00004
 720,0.00000358,-0.00002401,0.00012239,-0.00005188,0.00010052,-0.000032
 68,0.00002808,-0.00005549,-0.00016262,0.00018184,0.00004659,0.00002310
 ,-0.00001376,-0.00000216,0.00002640,-0.00004414,-0.00003538,-0.0000078
 4,0.00000404,-0.00001439,0.00014733,0.00007120,0.00027111,-0.00000494,
 -0.00000469,-0.00005583,-0.00002879,-0.00007870,0.00017311,-0.00000864
 ,-0.00001334,-0.00000372,0.00001128,-0.00003265,-0.00001501,0.00001377
 ,0.00001160,0.00000218,-0.00000187,-0.00000294,-0.00000530,-0.00002105
 ,0.00001734,-0.00002345,0.00000574,-0.00000784,-0.00000353,-0.00031489
 ,-0.00004512,0.00037687,0.00020423,-0.00004745,-0.00007394,0.00030604,
 -0.00016436,-0.00010852,-0.00040661,0.00001787,-0.00011811,-0.00005583
 ,0.00000860,-0.00000486,0.00036079,0.00005556,-0.00022573,-0.00011878,
 -0.00010936,0.00015095,-0.00034535,0.00005479,0.00027944,0.00003738,-0
 .00002947,-0.00013945,-0.00002906,-0.00001861,0.00001826,0.00000779,0.
 00000136,-0.00001413,-0.00001260,-0.00001027,0.00001347,0.00000298,0.0
 0001305,-0.00003542,0.00001911,-0.00000376,-0.00001615,0.00001756,0.00
 006764,-0.00013810,0.00025232,-0.00010559,-0.00026774,-0.00143735,0.00
 118294,0.00095020,0.00118073,0.00001282,-0.00291946,0.00011019,-0.0000
 0096,0.00004418,0.00023843,-0.00014183,0.00007313,0.00062413,0.0006237
 8,-0.00100282,-0.00005675,-0.00533218,0.00022530,-0.00912341,-0.001620
 59,-0.02724898,0.00072023,0.00333458,0.00204454,-0.15056302,-0.0831354
 4,-0.33151484,0.00113159,-0.00045220,-0.00034203,0.00021067,0.00000764
 ,-0.00033555,-0.00002222,0.00003281,-0.00005286,0.00001830,-0.00005326
 ,0.00002114,-0.00006664,0.00002495,-0.00003560,-0.00016171,-0.00004611
 ,0.00005516,-0.00004615,0.00001343,-0.00001769,-0.00006180,-0.00035052
 ,0.00025765,-0.00003505,-0.00016327,0.00019355,0.00081826,0.00153864,0
 .00254269,0.00043583,-0.00015648,-0.00000510,-0.00159469,0.00008117,-0
 .00026582,0.00211649,0.00042378,0.00131498,0.15560572,0.08392351,0.355
 89029\\0.00001666,-0.00000235,0.00000046,-0.00000490,0.00000190,0.0000
 0164,0.00000978,-0.00000552,0.00000172,0.00000041,0.00000312,-0.000001
 18,-0.00000577,-0.00000115,0.00000086,0.00000378,0.00000429,0.00000138
 ,0.00000083,-0.00000086,-0.00000230,-0.00000151,-0.00000343,0.00000098
 ,0.00000371,-0.00000287,0.00000030,0.00000064,-0.00000053,0.00000224,0
 .00000156,0.00000106,-0.00000100,-0.00000093,-0.00000475,0.00000026,-0
 .00000073,0.00000018,-0.00000049,0.00000020,0.00000049,0.00000157,-0.0
 0000277,-0.00000262,-0.00000261,-0.00000424,-0.00000064,0.00000134,-0.
 00001813,0.00001363,0.00000464,0.00000480,-0.00000797,-0.00002042,-0.0
 0002049,0.00000482,0.00002055,0.00000609,0.00000251,-0.00000088,-0.000
 00045,-0.00000449,0.00000206,0.00000150,-0.00000496,-0.00000368,-0.000
 00405,-0.00000331,0.00000312,0.00000462,0.00000417,-0.00000241,-0.0000
 0037,0.00000154,-0.00000078,0.00000109,0.00000279,-0.00000154,0.000000
 84,0.00000003,-0.00000004,0.00000097,0.00000706,-0.00000112,0.00000646
 ,0.00000423,0.00000098,0.00000306,-0.00000230,0.00000498,-0.00000122,0
 .00000433,-0.00000317,-0.00000043,-0.00000037,0.00000003,-0.00000023,-
 0.00000004,-0.00000012,0.,0.00000050,0.,0.00000004,-0.00000003,0.00000
 006,-0.00000050,0.00000063,-0.00000071,-0.00000143,-0.00000282,-0.0000
 1407,0.00000549,0.00000214,-0.00000436,-0.00000508,-0.00000051,0.00000
 227,-0.00000274,0.00000218,-0.00000505,-0.00000503,-0.00000134,-0.0000
 0088,0.00000215,-0.00000314,0.00000307,0.00000115,-0.00000500,-0.00000
 597,-0.00000709,-0.00000176,0.00000099,0.00000470,-0.00000318,0.000008
 53,0.00000195,0.00000183,0.00000114,0.00000129,0.00000054,0.00000011,0
 .00000169,-0.00000072,-0.00000158,0.00000064,0.00000143,0.00000071,0.0
 0000181,0.00000149,-0.00000061,0.00000180,0.00000212,0.00000389,0.0000
 0598,-0.00000509,0.00000052,-0.00001213,0.00002051,-0.00000055,0.00000
 846,-0.00000697,-0.00000185,-0.00000209,-0.00000240,0.00000017,-0.0000
 0069,-0.00000478,-0.00000355,0.00001118,0.00000342,0.00000773,-0.00001
 573,-0.00000626,-0.00001388,0.00000390,0.00000244,0.00000877,-0.000002
 43,-0.00000475,-0.00000215,0.00000233,0.00000091,-0.00000441,-0.000002
 09,-0.00000619,0.00000238,0.00000069,0.00000171,0.00000121,-0.00000073
 ,0.00000183,0.00000071,0.00000155,-0.00000036,0.00000078,-0.00000053,-
 0.00000070,-0.00000089,-0.00000031,0.00000137,-0.00000030,-0.00000476,
 0.00000282,0.00000728,0.00000040,-0.00000144,0.00000128,-0.00000099,0.
 00000119,0.00000036,0.00000155,-0.00000156,-0.00000243,0.00000369,0.00
 000981,0.00000387,0.00000363,-0.00000350,-0.00000109,0.00000271,0.0000
 0235,0.00000246,-0.00000519,-0.00000675,-0.00000132\\\@
 The archive entry for this job was punched.


 UNDER MOST GREENE GRASSE LY MOST GREATE SNAKES.
 -- PROVERBS AND REASONS OF THE YEAR 1585
           AS REPRINTED IN PAISLEY MAGAZINE 1828.
 Job cpu time:       0 days  7 hours 42 minutes 43.9 seconds.
 Elapsed time:       0 days  0 hours 57 minutes 54.3 seconds.
 File lengths (MBytes):  RWF=   3960 Int=      0 D2E=      0 Chk=     48 Scr=     16
 Normal termination of Gaussian 16 at Tue May 31 19:37:27 2022.
