 Entering Gaussian System, Link 0=/opt/software/Gaussian/g16-AVX2-C.01/g16/g16
 Input=opt_freq-conf-962.com
 Output=opt_freq-conf-962.log
 Initial command:
 /opt/software/Gaussian/g16-AVX2-C.01/g16/l1.exe "/mnt/gs18/scratch/users/kengmith/Gau-94141.inp" -scrdir="/mnt/gs18/scratch/users/kengmith/"
 Entering Link 1 = /opt/software/Gaussian/g16-AVX2-C.01/g16/l1.exe PID=     94151.
  
 Copyright (c) 1988-2019, Gaussian, Inc.  All Rights Reserved.
  
 This is part of the Gaussian(R) 16 program.  It is based on
 the Gaussian(R) 09 system (copyright 2009, Gaussian, Inc.),
 the Gaussian(R) 03 system (copyright 2003, Gaussian, Inc.),
 the Gaussian(R) 98 system (copyright 1998, Gaussian, Inc.),
 the Gaussian(R) 94 system (copyright 1995, Gaussian, Inc.),
 the Gaussian 92(TM) system (copyright 1992, Gaussian, Inc.),
 the Gaussian 90(TM) system (copyright 1990, Gaussian, Inc.),
 the Gaussian 88(TM) system (copyright 1988, Gaussian, Inc.),
 the Gaussian 86(TM) system (copyright 1986, Carnegie Mellon
 University), and the Gaussian 82(TM) system (copyright 1983,
 Carnegie Mellon University). Gaussian is a federally registered
 trademark of Gaussian, Inc.
  
 This software contains proprietary and confidential information,
 including trade secrets, belonging to Gaussian, Inc.
  
 This software is provided under written license and may be
 used, copied, transmitted, or stored only in accord with that
 written license.
  
 The following legend is applicable only to US Government
 contracts under FAR:
  
                    RESTRICTED RIGHTS LEGEND
  
 Use, reproduction and disclosure by the US Government is
 subject to restrictions as set forth in subparagraphs (a)
 and (c) of the Commercial Computer Software - Restricted
 Rights clause in FAR 52.227-19.
  
 Gaussian, Inc.
 340 Quinnipiac St., Bldg. 40, Wallingford CT 06492
  
  
 ---------------------------------------------------------------
 Warning -- This program may not be used in any manner that
 competes with the business of Gaussian, Inc. or will provide
 assistance to any competitor of Gaussian, Inc.  The licensee
 of this program is prohibited from giving any competitor of
 Gaussian, Inc. access to this program.  By using this program,
 the user acknowledges that Gaussian, Inc. is engaged in the
 business of creating and licensing software in the field of
 computational chemistry and represents and warrants to the
 licensee that it is not a competitor of Gaussian, Inc. and that
 it will not use this program in any manner prohibited above.
 ---------------------------------------------------------------
  

 Cite this work as:
 Gaussian 16, Revision C.01,
 M. J. Frisch, G. W. Trucks, H. B. Schlegel, G. E. Scuseria, 
 M. A. Robb, J. R. Cheeseman, G. Scalmani, V. Barone, 
 G. A. Petersson, H. Nakatsuji, X. Li, M. Caricato, A. V. Marenich, 
 J. Bloino, B. G. Janesko, R. Gomperts, B. Mennucci, H. P. Hratchian, 
 J. V. Ortiz, A. F. Izmaylov, J. L. Sonnenberg, D. Williams-Young, 
 F. Ding, F. Lipparini, F. Egidi, J. Goings, B. Peng, A. Petrone, 
 T. Henderson, D. Ranasinghe, V. G. Zakrzewski, J. Gao, N. Rega, 
 G. Zheng, W. Liang, M. Hada, M. Ehara, K. Toyota, R. Fukuda, 
 J. Hasegawa, M. Ishida, T. Nakajima, Y. Honda, O. Kitao, H. Nakai, 
 T. Vreven, K. Throssell, J. A. Montgomery, Jr., J. E. Peralta, 
 F. Ogliaro, M. J. Bearpark, J. J. Heyd, E. N. Brothers, K. N. Kudin, 
 V. N. Staroverov, T. A. Keith, R. Kobayashi, J. Normand, 
 K. Raghavachari, A. P. Rendell, J. C. Burant, S. S. Iyengar, 
 J. Tomasi, M. Cossi, J. M. Millam, M. Klene, C. Adamo, R. Cammi, 
 J. W. Ochterski, R. L. Martin, K. Morokuma, O. Farkas, 
 J. B. Foresman, and D. J. Fox, Gaussian, Inc., Wallingford CT, 2019.
 
 ******************************************
 Gaussian 16:  ES64L-G16RevC.01  3-Jul-2019
                31-May-2022 
 ******************************************
 %mem=12gb
 %nproc=8
 Will use up to    8 processors via shared memory.
 %chk=conf-962.chk
 ----------------------------------------------------------------------
 # B3LYP/6-31G* empiricaldispersion=gd3 opt=calcfc freq=noraman nosymm 
 integral(ultrafinegrid)
 ----------------------------------------------------------------------
 1/10=4,18=20,19=15,26=4,38=1/1,3;
 2/9=110,12=2,15=1,17=6,18=5,40=1/2;
 3/5=1,6=6,7=1,11=2,25=1,30=1,71=2,74=-5,75=-5,124=31,140=1/1,2,3;
 4//1;
 5/5=2,38=5/2;
 8/6=4,10=90,11=11/1;
 11/6=1,8=1,9=11,15=111,16=1,31=1/1,2,10;
 10/6=1,13=1,31=1/2;
 6/7=2,8=2,9=2,10=2,28=1/1;
 7/10=1,25=1,30=1/1,2,3,16;
 1/10=4,18=20,19=15,26=4/3(2);
 2/9=110,15=1/2;
 99//99;
 2/9=110,15=1/2;
 3/5=1,6=6,7=1,11=2,25=1,30=1,71=1,74=-5,75=-5,124=31/1,2,3;
 4/5=5,16=3,69=1/1;
 5/5=2,38=5/2;
 7/30=1/1,2,3,16;
 1/18=20,19=15,26=4/3(-5);
 2/9=110,15=1/2;
 6/7=2,8=2,9=2,10=2,19=2,28=1/1;
 99/9=1/99;
 ------------------------------------------------------------
 Candidate Structure: Conf:962 OPT and FREQ calc in gas phase
 ------------------------------------------------------------
 Symbolic Z-matrix:
 Charge =  1 Multiplicity = 1
 N                    -7.67184   1.23537  -8.57567 
 C                    -6.96536   1.03522  -7.29502 
 C                    -5.75331   0.11793  -7.50985 
 O                    -4.75287   0.58751  -8.04786 
 C                    -7.91104   0.57763  -6.20243 
 C                    -8.98588   1.61295  -5.96071 
 N                    -10.10987   1.1607   -5.34736 
 O                    -8.83979   2.78363  -6.28118 
 H                    -8.49755   0.61811  -8.58603 
 H                    -6.54884   2.00033  -6.99804 
 H                    -8.37255  -0.36295  -6.43088 
 H                    -7.34714   0.45424  -5.27123 
 H                    -10.83128   1.83535  -5.16808 
 H                    -10.22904   0.19038  -5.09682 
 H                    -8.00652   2.1987   -8.63183 
 H                    -7.09645   1.00057  -9.39082 
 N                    -5.83021  -1.17204  -7.08457 
 C                    -4.62979  -1.97749  -7.0015 
 C                    -4.90337  -3.42323  -7.44119 
 O                    -5.05897  -4.31864  -6.62856 
 C                    -4.0763   -1.97193  -5.56508 
 C                    -3.85158  -0.57693  -5.06139 
 C                    -2.79127   0.19039  -5.53943 
 C                    -4.74474   0.00369  -4.16033 
 C                    -2.62638   1.51223  -5.12977 
 C                    -4.59751   1.32884  -3.76447 
 C                    -3.5355    2.08877  -4.24606 
 H                    -6.71042  -1.59173  -6.81958 
 H                    -3.89906  -1.50274  -7.65977 
 H                    -4.78651  -2.49759  -4.92648 
 H                    -3.14985  -2.54917  -5.55637 
 H                    -2.11409  -0.25201  -6.26371 
 H                    -5.57128  -0.58672  -3.77699 
 H                    -1.796     2.09104  -5.51588 
 H                    -5.30802   1.76348  -3.0711 
 H                    -3.4153    3.11867  -3.93276 
 N                    -4.94223  -3.67832  -8.78066 
 C                    -5.11152  -2.70544  -9.83657 
 C                    -6.5126   -2.08009  -9.87666 
 O                    -6.66551  -0.89395  -10.14028 
 C                    -4.75531  -3.33092  -11.18909 
 C                    -5.68766  -4.45802  -11.60597 
 N                    -5.88758  -4.59335  -12.9364 
 O                    -6.20842  -5.19824  -10.77891 
 H                    -5.22698  -4.6276   -8.98639 
 H                    -4.43778  -1.87086  -9.6552 
 H                    -3.75315  -3.75144  -11.09692 
 H                    -4.72353  -2.55947  -11.96155 
 H                    -6.49991  -5.32721  -13.24777 
 H                    -5.44539  -3.98885  -13.60448 
 N                    -7.54881  -2.9044   -9.60859 
 C                    -8.88526  -2.38778  -9.44996 
 C                    -9.01555  -1.71138  -8.0576 
 O                    -8.53544  -2.32016  -7.09753 
 C                    -9.9087   -3.51941  -9.58096 
 C                    -11.38218  -3.07037  -9.56572 
 C                    -12.10445  -3.30788  -8.23978 
 N                    -11.57299  -2.44006  -7.1781 
 C                    -11.42637  -2.79177  -5.90919 
 N                    -12.19007  -3.78911  -5.41172 
 N                    -10.50704  -2.10711  -5.17314 
 O                    -9.65556  -0.65642  -8.05725 
 H                    -7.38678  -3.89691  -9.55875 
 H                    -9.05486  -1.61317  -10.20063 
 H                    -9.69247  -4.01525  -10.53109 
 H                    -9.7231   -4.25496  -8.79616 
 H                    -11.4508  -2.01116  -9.82393 
 H                    -11.92362  -3.61333  -10.34403 
 H                    -13.17089  -3.09779  -8.357 
 H                    -12.00998  -4.35807  -7.94782 
 H                    -11.16895  -1.55429  -7.45561 
 H                    -12.18075  -3.95002  -4.41599 
 H                    -13.08995  -3.90582  -5.86361 
 H                    -10.37807  -2.48304  -4.23904 
 H                    -9.62206  -2.05275  -5.70144 
 

 GradGradGradGradGradGradGradGradGradGradGradGradGradGradGradGradGradGrad
 Berny optimization.
 Initialization pass.
                           ----------------------------
                           !    Initial Parameters    !
                           ! (Angstroms and Degrees)  !
 --------------------------                            --------------------------
 ! Name  Definition              Value          Derivative Info.                !
 --------------------------------------------------------------------------------
 ! R1    R(1,2)                  1.4762         calculate D2E/DX2 analytically  !
 ! R2    R(1,9)                  1.031          calculate D2E/DX2 analytically  !
 ! R3    R(1,15)                 1.0214         calculate D2E/DX2 analytically  !
 ! R4    R(1,16)                 1.025          calculate D2E/DX2 analytically  !
 ! R5    R(2,3)                  1.5351         calculate D2E/DX2 analytically  !
 ! R6    R(2,5)                  1.5157         calculate D2E/DX2 analytically  !
 ! R7    R(2,10)                 1.0923         calculate D2E/DX2 analytically  !
 ! R8    R(3,4)                  1.2292         calculate D2E/DX2 analytically  !
 ! R9    R(3,17)                 1.3604         calculate D2E/DX2 analytically  !
 ! R10   R(5,6)                  1.5118         calculate D2E/DX2 analytically  !
 ! R11   R(5,11)                 1.0723         calculate D2E/DX2 analytically  !
 ! R12   R(5,12)                 1.0956         calculate D2E/DX2 analytically  !
 ! R13   R(6,7)                  1.358          calculate D2E/DX2 analytically  !
 ! R14   R(6,8)                  1.2225         calculate D2E/DX2 analytically  !
 ! R15   R(7,13)                 1.0039         calculate D2E/DX2 analytically  !
 ! R16   R(7,14)                 1.0092         calculate D2E/DX2 analytically  !
 ! R17   R(17,18)                1.448          calculate D2E/DX2 analytically  !
 ! R18   R(17,28)                1.0105         calculate D2E/DX2 analytically  !
 ! R19   R(18,19)                1.5357         calculate D2E/DX2 analytically  !
 ! R20   R(18,21)                1.5394         calculate D2E/DX2 analytically  !
 ! R21   R(18,29)                1.0921         calculate D2E/DX2 analytically  !
 ! R22   R(19,20)                1.2192         calculate D2E/DX2 analytically  !
 ! R23   R(19,37)                1.3641         calculate D2E/DX2 analytically  !
 ! R24   R(21,22)                1.5001         calculate D2E/DX2 analytically  !
 ! R25   R(21,30)                1.0902         calculate D2E/DX2 analytically  !
 ! R26   R(21,31)                1.0916         calculate D2E/DX2 analytically  !
 ! R27   R(22,23)                1.3934         calculate D2E/DX2 analytically  !
 ! R28   R(22,24)                1.3953         calculate D2E/DX2 analytically  !
 ! R29   R(23,25)                1.3937         calculate D2E/DX2 analytically  !
 ! R30   R(23,32)                1.0858         calculate D2E/DX2 analytically  !
 ! R31   R(24,26)                1.3908         calculate D2E/DX2 analytically  !
 ! R32   R(24,33)                1.0857         calculate D2E/DX2 analytically  !
 ! R33   R(25,27)                1.3928         calculate D2E/DX2 analytically  !
 ! R34   R(25,34)                1.0833         calculate D2E/DX2 analytically  !
 ! R35   R(26,27)                1.3919         calculate D2E/DX2 analytically  !
 ! R36   R(26,35)                1.0837         calculate D2E/DX2 analytically  !
 ! R37   R(27,36)                1.0832         calculate D2E/DX2 analytically  !
 ! R38   R(37,38)                1.4457         calculate D2E/DX2 analytically  !
 ! R39   R(37,45)                1.0122         calculate D2E/DX2 analytically  !
 ! R40   R(38,39)                1.5348         calculate D2E/DX2 analytically  !
 ! R41   R(38,41)                1.5321         calculate D2E/DX2 analytically  !
 ! R42   R(38,46)                1.0878         calculate D2E/DX2 analytically  !
 ! R43   R(39,40)                1.2247         calculate D2E/DX2 analytically  !
 ! R44   R(39,51)                1.351          calculate D2E/DX2 analytically  !
 ! R45   R(41,42)                1.521          calculate D2E/DX2 analytically  !
 ! R46   R(41,47)                1.0907         calculate D2E/DX2 analytically  !
 ! R47   R(41,48)                1.0922         calculate D2E/DX2 analytically  !
 ! R48   R(42,43)                1.3522         calculate D2E/DX2 analytically  !
 ! R49   R(42,44)                1.226          calculate D2E/DX2 analytically  !
 ! R50   R(43,49)                1.0052         calculate D2E/DX2 analytically  !
 ! R51   R(43,50)                1.0036         calculate D2E/DX2 analytically  !
 ! R52   R(51,52)                1.4416         calculate D2E/DX2 analytically  !
 ! R53   R(51,63)                1.0069         calculate D2E/DX2 analytically  !
 ! R54   R(52,53)                1.5534         calculate D2E/DX2 analytically  !
 ! R55   R(52,55)                1.5314         calculate D2E/DX2 analytically  !
 ! R56   R(52,64)                1.0919         calculate D2E/DX2 analytically  !
 ! R57   R(53,54)                1.234          calculate D2E/DX2 analytically  !
 ! R58   R(53,62)                1.2339         calculate D2E/DX2 analytically  !
 ! R59   R(55,56)                1.5405         calculate D2E/DX2 analytically  !
 ! R60   R(55,65)                1.0933         calculate D2E/DX2 analytically  !
 ! R61   R(55,66)                1.0915         calculate D2E/DX2 analytically  !
 ! R62   R(56,57)                1.5285         calculate D2E/DX2 analytically  !
 ! R63   R(56,67)                1.0924         calculate D2E/DX2 analytically  !
 ! R64   R(56,68)                1.0926         calculate D2E/DX2 analytically  !
 ! R65   R(57,58)                1.4706         calculate D2E/DX2 analytically  !
 ! R66   R(57,69)                1.0932         calculate D2E/DX2 analytically  !
 ! R67   R(57,70)                1.0941         calculate D2E/DX2 analytically  !
 ! R68   R(58,59)                1.3249         calculate D2E/DX2 analytically  !
 ! R69   R(58,71)                1.0123         calculate D2E/DX2 analytically  !
 ! R70   R(59,60)                1.3511         calculate D2E/DX2 analytically  !
 ! R71   R(59,61)                1.3622         calculate D2E/DX2 analytically  !
 ! R72   R(60,72)                1.0087         calculate D2E/DX2 analytically  !
 ! R73   R(60,73)                1.0137         calculate D2E/DX2 analytically  !
 ! R74   R(61,74)                1.0151         calculate D2E/DX2 analytically  !
 ! R75   R(61,75)                1.0321         calculate D2E/DX2 analytically  !
 ! A1    A(2,1,9)              108.109          calculate D2E/DX2 analytically  !
 ! A2    A(2,1,15)             109.4145         calculate D2E/DX2 analytically  !
 ! A3    A(2,1,16)             112.9666         calculate D2E/DX2 analytically  !
 ! A4    A(9,1,15)             107.5602         calculate D2E/DX2 analytically  !
 ! A5    A(9,1,16)             107.7245         calculate D2E/DX2 analytically  !
 ! A6    A(15,1,16)            110.8713         calculate D2E/DX2 analytically  !
 ! A7    A(1,2,3)              109.7224         calculate D2E/DX2 analytically  !
 ! A8    A(1,2,5)              111.5729         calculate D2E/DX2 analytically  !
 ! A9    A(1,2,10)             107.371          calculate D2E/DX2 analytically  !
 ! A10   A(3,2,5)              114.3989         calculate D2E/DX2 analytically  !
 ! A11   A(3,2,10)             105.3626         calculate D2E/DX2 analytically  !
 ! A12   A(5,2,10)             107.9789         calculate D2E/DX2 analytically  !
 ! A13   A(2,3,4)              118.3987         calculate D2E/DX2 analytically  !
 ! A14   A(2,3,17)             118.5681         calculate D2E/DX2 analytically  !
 ! A15   A(4,3,17)             123.0298         calculate D2E/DX2 analytically  !
 ! A16   A(2,5,6)              110.6151         calculate D2E/DX2 analytically  !
 ! A17   A(2,5,11)             112.3186         calculate D2E/DX2 analytically  !
 ! A18   A(2,5,12)             108.9985         calculate D2E/DX2 analytically  !
 ! A19   A(6,5,11)             109.1938         calculate D2E/DX2 analytically  !
 ! A20   A(6,5,12)             107.8881         calculate D2E/DX2 analytically  !
 ! A21   A(11,5,12)            107.6857         calculate D2E/DX2 analytically  !
 ! A22   A(5,6,7)              115.6332         calculate D2E/DX2 analytically  !
 ! A23   A(5,6,8)              121.9317         calculate D2E/DX2 analytically  !
 ! A24   A(7,6,8)              122.4271         calculate D2E/DX2 analytically  !
 ! A25   A(6,7,13)             116.8501         calculate D2E/DX2 analytically  !
 ! A26   A(6,7,14)             122.0103         calculate D2E/DX2 analytically  !
 ! A27   A(13,7,14)            121.1293         calculate D2E/DX2 analytically  !
 ! A28   A(3,17,18)            119.902          calculate D2E/DX2 analytically  !
 ! A29   A(3,17,28)            121.67           calculate D2E/DX2 analytically  !
 ! A30   A(18,17,28)           118.4279         calculate D2E/DX2 analytically  !
 ! A31   A(17,18,19)           111.0732         calculate D2E/DX2 analytically  !
 ! A32   A(17,18,21)           110.4631         calculate D2E/DX2 analytically  !
 ! A33   A(17,18,29)           106.1598         calculate D2E/DX2 analytically  !
 ! A34   A(19,18,21)           109.5494         calculate D2E/DX2 analytically  !
 ! A35   A(19,18,29)           110.8469         calculate D2E/DX2 analytically  !
 ! A36   A(21,18,29)           108.6808         calculate D2E/DX2 analytically  !
 ! A37   A(18,19,20)           121.5553         calculate D2E/DX2 analytically  !
 ! A38   A(18,19,37)           117.5337         calculate D2E/DX2 analytically  !
 ! A39   A(20,19,37)           120.9001         calculate D2E/DX2 analytically  !
 ! A40   A(18,21,22)           111.7489         calculate D2E/DX2 analytically  !
 ! A41   A(18,21,30)           108.0965         calculate D2E/DX2 analytically  !
 ! A42   A(18,21,31)           108.1011         calculate D2E/DX2 analytically  !
 ! A43   A(22,21,30)           110.4448         calculate D2E/DX2 analytically  !
 ! A44   A(22,21,31)           111.2194         calculate D2E/DX2 analytically  !
 ! A45   A(30,21,31)           107.052          calculate D2E/DX2 analytically  !
 ! A46   A(21,22,23)           120.7244         calculate D2E/DX2 analytically  !
 ! A47   A(21,22,24)           120.5262         calculate D2E/DX2 analytically  !
 ! A48   A(23,22,24)           118.6537         calculate D2E/DX2 analytically  !
 ! A49   A(22,23,25)           120.7633         calculate D2E/DX2 analytically  !
 ! A50   A(22,23,32)           118.6252         calculate D2E/DX2 analytically  !
 ! A51   A(25,23,32)           120.5807         calculate D2E/DX2 analytically  !
 ! A52   A(22,24,26)           120.8322         calculate D2E/DX2 analytically  !
 ! A53   A(22,24,33)           119.279          calculate D2E/DX2 analytically  !
 ! A54   A(26,24,33)           119.8833         calculate D2E/DX2 analytically  !
 ! A55   A(23,25,27)           120.1258         calculate D2E/DX2 analytically  !
 ! A56   A(23,25,34)           119.5166         calculate D2E/DX2 analytically  !
 ! A57   A(27,25,34)           120.3504         calculate D2E/DX2 analytically  !
 ! A58   A(24,26,27)           120.165          calculate D2E/DX2 analytically  !
 ! A59   A(24,26,35)           119.6571         calculate D2E/DX2 analytically  !
 ! A60   A(27,26,35)           120.1748         calculate D2E/DX2 analytically  !
 ! A61   A(25,27,26)           119.4439         calculate D2E/DX2 analytically  !
 ! A62   A(25,27,36)           120.3098         calculate D2E/DX2 analytically  !
 ! A63   A(26,27,36)           120.2458         calculate D2E/DX2 analytically  !
 ! A64   A(19,37,38)           126.4899         calculate D2E/DX2 analytically  !
 ! A65   A(19,37,45)           112.5182         calculate D2E/DX2 analytically  !
 ! A66   A(38,37,45)           116.7255         calculate D2E/DX2 analytically  !
 ! A67   A(37,38,39)           113.5878         calculate D2E/DX2 analytically  !
 ! A68   A(37,38,41)           110.0479         calculate D2E/DX2 analytically  !
 ! A69   A(37,38,46)           108.7826         calculate D2E/DX2 analytically  !
 ! A70   A(39,38,41)           110.825          calculate D2E/DX2 analytically  !
 ! A71   A(39,38,46)           104.9007         calculate D2E/DX2 analytically  !
 ! A72   A(41,38,46)           108.4449         calculate D2E/DX2 analytically  !
 ! A73   A(38,39,40)           120.9458         calculate D2E/DX2 analytically  !
 ! A74   A(38,39,51)           116.5124         calculate D2E/DX2 analytically  !
 ! A75   A(40,39,51)           122.5418         calculate D2E/DX2 analytically  !
 ! A76   A(38,41,42)           113.7004         calculate D2E/DX2 analytically  !
 ! A77   A(38,41,47)           107.2425         calculate D2E/DX2 analytically  !
 ! A78   A(38,41,48)           110.0455         calculate D2E/DX2 analytically  !
 ! A79   A(42,41,47)           107.4984         calculate D2E/DX2 analytically  !
 ! A80   A(42,41,48)           110.3286         calculate D2E/DX2 analytically  !
 ! A81   A(47,41,48)           107.78           calculate D2E/DX2 analytically  !
 ! A82   A(41,42,43)           115.7521         calculate D2E/DX2 analytically  !
 ! A83   A(41,42,44)           121.5252         calculate D2E/DX2 analytically  !
 ! A84   A(43,42,44)           122.719          calculate D2E/DX2 analytically  !
 ! A85   A(42,43,49)           117.8985         calculate D2E/DX2 analytically  !
 ! A86   A(42,43,50)           121.9745         calculate D2E/DX2 analytically  !
 ! A87   A(49,43,50)           120.127          calculate D2E/DX2 analytically  !
 ! A88   A(39,51,52)           120.9476         calculate D2E/DX2 analytically  !
 ! A89   A(39,51,63)           119.1993         calculate D2E/DX2 analytically  !
 ! A90   A(52,51,63)           119.8013         calculate D2E/DX2 analytically  !
 ! A91   A(51,52,53)           109.4161         calculate D2E/DX2 analytically  !
 ! A92   A(51,52,55)           110.2024         calculate D2E/DX2 analytically  !
 ! A93   A(51,52,64)           108.8188         calculate D2E/DX2 analytically  !
 ! A94   A(53,52,55)           110.0217         calculate D2E/DX2 analytically  !
 ! A95   A(53,52,64)           107.1138         calculate D2E/DX2 analytically  !
 ! A96   A(55,52,64)           111.1988         calculate D2E/DX2 analytically  !
 ! A97   A(52,53,54)           116.7364         calculate D2E/DX2 analytically  !
 ! A98   A(52,53,62)           114.5844         calculate D2E/DX2 analytically  !
 ! A99   A(54,53,62)           128.5608         calculate D2E/DX2 analytically  !
 ! A100  A(52,55,56)           115.024          calculate D2E/DX2 analytically  !
 ! A101  A(52,55,65)           106.099          calculate D2E/DX2 analytically  !
 ! A102  A(52,55,66)           108.8344         calculate D2E/DX2 analytically  !
 ! A103  A(56,55,65)           109.2665         calculate D2E/DX2 analytically  !
 ! A104  A(56,55,66)           110.6075         calculate D2E/DX2 analytically  !
 ! A105  A(65,55,66)           106.5938         calculate D2E/DX2 analytically  !
 ! A106  A(55,56,57)           114.5377         calculate D2E/DX2 analytically  !
 ! A107  A(55,56,67)           109.901          calculate D2E/DX2 analytically  !
 ! A108  A(55,56,68)           108.7903         calculate D2E/DX2 analytically  !
 ! A109  A(57,56,67)           109.029          calculate D2E/DX2 analytically  !
 ! A110  A(57,56,68)           107.8524         calculate D2E/DX2 analytically  !
 ! A111  A(67,56,68)           106.4            calculate D2E/DX2 analytically  !
 ! A112  A(56,57,58)           111.3335         calculate D2E/DX2 analytically  !
 ! A113  A(56,57,69)           109.7608         calculate D2E/DX2 analytically  !
 ! A114  A(56,57,70)           109.8676         calculate D2E/DX2 analytically  !
 ! A115  A(58,57,69)           108.4531         calculate D2E/DX2 analytically  !
 ! A116  A(58,57,70)           110.033          calculate D2E/DX2 analytically  !
 ! A117  A(69,57,70)           107.2957         calculate D2E/DX2 analytically  !
 ! A118  A(57,58,59)           125.0837         calculate D2E/DX2 analytically  !
 ! A119  A(57,58,71)           117.5588         calculate D2E/DX2 analytically  !
 ! A120  A(59,58,71)           116.7845         calculate D2E/DX2 analytically  !
 ! A121  A(58,59,60)           119.0811         calculate D2E/DX2 analytically  !
 ! A122  A(58,59,61)           117.3074         calculate D2E/DX2 analytically  !
 ! A123  A(60,59,61)           123.6096         calculate D2E/DX2 analytically  !
 ! A124  A(59,60,72)           118.4247         calculate D2E/DX2 analytically  !
 ! A125  A(59,60,73)           115.0002         calculate D2E/DX2 analytically  !
 ! A126  A(72,60,73)           115.4609         calculate D2E/DX2 analytically  !
 ! A127  A(59,61,74)           113.3785         calculate D2E/DX2 analytically  !
 ! A128  A(59,61,75)           109.1817         calculate D2E/DX2 analytically  !
 ! A129  A(74,61,75)           112.4313         calculate D2E/DX2 analytically  !
 ! D1    D(9,1,2,3)            100.8421         calculate D2E/DX2 analytically  !
 ! D2    D(9,1,2,5)            -27.0101         calculate D2E/DX2 analytically  !
 ! D3    D(9,1,2,10)          -145.1395         calculate D2E/DX2 analytically  !
 ! D4    D(15,1,2,3)          -142.2971         calculate D2E/DX2 analytically  !
 ! D5    D(15,1,2,5)            89.8508         calculate D2E/DX2 analytically  !
 ! D6    D(15,1,2,10)          -28.2786         calculate D2E/DX2 analytically  !
 ! D7    D(16,1,2,3)           -18.2668         calculate D2E/DX2 analytically  !
 ! D8    D(16,1,2,5)          -146.119          calculate D2E/DX2 analytically  !
 ! D9    D(16,1,2,10)           95.7516         calculate D2E/DX2 analytically  !
 ! D10   D(1,2,3,4)             75.8454         calculate D2E/DX2 analytically  !
 ! D11   D(1,2,3,17)          -104.81           calculate D2E/DX2 analytically  !
 ! D12   D(5,2,3,4)           -157.8901         calculate D2E/DX2 analytically  !
 ! D13   D(5,2,3,17)            21.4545         calculate D2E/DX2 analytically  !
 ! D14   D(10,2,3,4)           -39.4579         calculate D2E/DX2 analytically  !
 ! D15   D(10,2,3,17)          139.8867         calculate D2E/DX2 analytically  !
 ! D16   D(1,2,5,6)            -60.8597         calculate D2E/DX2 analytically  !
 ! D17   D(1,2,5,11)            61.4249         calculate D2E/DX2 analytically  !
 ! D18   D(1,2,5,12)          -179.3229         calculate D2E/DX2 analytically  !
 ! D19   D(3,2,5,6)            173.8434         calculate D2E/DX2 analytically  !
 ! D20   D(3,2,5,11)           -63.872          calculate D2E/DX2 analytically  !
 ! D21   D(3,2,5,12)            55.3801         calculate D2E/DX2 analytically  !
 ! D22   D(10,2,5,6)            56.9046         calculate D2E/DX2 analytically  !
 ! D23   D(10,2,5,11)          179.1892         calculate D2E/DX2 analytically  !
 ! D24   D(10,2,5,12)          -61.5587         calculate D2E/DX2 analytically  !
 ! D25   D(2,3,17,18)         -166.5678         calculate D2E/DX2 analytically  !
 ! D26   D(2,3,17,28)           13.3299         calculate D2E/DX2 analytically  !
 ! D27   D(4,3,17,18)           12.7446         calculate D2E/DX2 analytically  !
 ! D28   D(4,3,17,28)         -167.3577         calculate D2E/DX2 analytically  !
 ! D29   D(2,5,6,7)            159.4606         calculate D2E/DX2 analytically  !
 ! D30   D(2,5,6,8)            -21.5459         calculate D2E/DX2 analytically  !
 ! D31   D(11,5,6,7)            35.3653         calculate D2E/DX2 analytically  !
 ! D32   D(11,5,6,8)          -145.6413         calculate D2E/DX2 analytically  !
 ! D33   D(12,5,6,7)           -81.4025         calculate D2E/DX2 analytically  !
 ! D34   D(12,5,6,8)            97.591          calculate D2E/DX2 analytically  !
 ! D35   D(5,6,7,13)           179.2993         calculate D2E/DX2 analytically  !
 ! D36   D(5,6,7,14)            -1.8603         calculate D2E/DX2 analytically  !
 ! D37   D(8,6,7,13)             0.3114         calculate D2E/DX2 analytically  !
 ! D38   D(8,6,7,14)           179.1518         calculate D2E/DX2 analytically  !
 ! D39   D(3,17,18,19)        -141.6055         calculate D2E/DX2 analytically  !
 ! D40   D(3,17,18,21)          96.6224         calculate D2E/DX2 analytically  !
 ! D41   D(3,17,18,29)         -21.0268         calculate D2E/DX2 analytically  !
 ! D42   D(28,17,18,19)         38.4935         calculate D2E/DX2 analytically  !
 ! D43   D(28,17,18,21)        -83.2786         calculate D2E/DX2 analytically  !
 ! D44   D(28,17,18,29)        159.0722         calculate D2E/DX2 analytically  !
 ! D45   D(17,18,19,20)       -101.0799         calculate D2E/DX2 analytically  !
 ! D46   D(17,18,19,37)         80.1082         calculate D2E/DX2 analytically  !
 ! D47   D(21,18,19,20)         21.2237         calculate D2E/DX2 analytically  !
 ! D48   D(21,18,19,37)       -157.5881         calculate D2E/DX2 analytically  !
 ! D49   D(29,18,19,20)        141.1521         calculate D2E/DX2 analytically  !
 ! D50   D(29,18,19,37)        -37.6598         calculate D2E/DX2 analytically  !
 ! D51   D(17,18,21,22)        -54.6578         calculate D2E/DX2 analytically  !
 ! D52   D(17,18,21,30)         67.0785         calculate D2E/DX2 analytically  !
 ! D53   D(17,18,21,31)       -177.3665         calculate D2E/DX2 analytically  !
 ! D54   D(19,18,21,22)       -177.3249         calculate D2E/DX2 analytically  !
 ! D55   D(19,18,21,30)        -55.5886         calculate D2E/DX2 analytically  !
 ! D56   D(19,18,21,31)         59.9664         calculate D2E/DX2 analytically  !
 ! D57   D(29,18,21,22)         61.43           calculate D2E/DX2 analytically  !
 ! D58   D(29,18,21,30)       -176.8337         calculate D2E/DX2 analytically  !
 ! D59   D(29,18,21,31)        -61.2788         calculate D2E/DX2 analytically  !
 ! D60   D(18,19,37,38)        -17.8864         calculate D2E/DX2 analytically  !
 ! D61   D(18,19,37,45)       -173.6987         calculate D2E/DX2 analytically  !
 ! D62   D(20,19,37,38)        163.2935         calculate D2E/DX2 analytically  !
 ! D63   D(20,19,37,45)          7.4812         calculate D2E/DX2 analytically  !
 ! D64   D(18,21,22,23)        -72.9696         calculate D2E/DX2 analytically  !
 ! D65   D(18,21,22,24)        103.4238         calculate D2E/DX2 analytically  !
 ! D66   D(30,21,22,23)        166.6577         calculate D2E/DX2 analytically  !
 ! D67   D(30,21,22,24)        -16.9489         calculate D2E/DX2 analytically  !
 ! D68   D(31,21,22,23)         47.9427         calculate D2E/DX2 analytically  !
 ! D69   D(31,21,22,24)       -135.6639         calculate D2E/DX2 analytically  !
 ! D70   D(21,22,23,25)        176.2975         calculate D2E/DX2 analytically  !
 ! D71   D(21,22,23,32)         -1.6959         calculate D2E/DX2 analytically  !
 ! D72   D(24,22,23,25)         -0.1623         calculate D2E/DX2 analytically  !
 ! D73   D(24,22,23,32)       -178.1557         calculate D2E/DX2 analytically  !
 ! D74   D(21,22,24,26)       -175.2686         calculate D2E/DX2 analytically  !
 ! D75   D(21,22,24,33)          3.8814         calculate D2E/DX2 analytically  !
 ! D76   D(23,22,24,26)          1.1985         calculate D2E/DX2 analytically  !
 ! D77   D(23,22,24,33)       -179.6515         calculate D2E/DX2 analytically  !
 ! D78   D(22,23,25,27)         -0.8365         calculate D2E/DX2 analytically  !
 ! D79   D(22,23,25,34)       -179.8683         calculate D2E/DX2 analytically  !
 ! D80   D(32,23,25,27)        177.1175         calculate D2E/DX2 analytically  !
 ! D81   D(32,23,25,34)         -1.9142         calculate D2E/DX2 analytically  !
 ! D82   D(22,24,26,27)         -1.2388         calculate D2E/DX2 analytically  !
 ! D83   D(22,24,26,35)        179.3986         calculate D2E/DX2 analytically  !
 ! D84   D(33,24,26,27)        179.6163         calculate D2E/DX2 analytically  !
 ! D85   D(33,24,26,35)          0.2537         calculate D2E/DX2 analytically  !
 ! D86   D(23,25,27,26)          0.8033         calculate D2E/DX2 analytically  !
 ! D87   D(23,25,27,36)       -179.4396         calculate D2E/DX2 analytically  !
 ! D88   D(34,25,27,26)        179.8269         calculate D2E/DX2 analytically  !
 ! D89   D(34,25,27,36)         -0.4161         calculate D2E/DX2 analytically  !
 ! D90   D(24,26,27,25)          0.2227         calculate D2E/DX2 analytically  !
 ! D91   D(24,26,27,36)       -179.5345         calculate D2E/DX2 analytically  !
 ! D92   D(35,26,27,25)        179.5819         calculate D2E/DX2 analytically  !
 ! D93   D(35,26,27,36)         -0.1753         calculate D2E/DX2 analytically  !
 ! D94   D(19,37,38,39)        -69.128          calculate D2E/DX2 analytically  !
 ! D95   D(19,37,38,41)        165.9624         calculate D2E/DX2 analytically  !
 ! D96   D(19,37,38,46)         47.2868         calculate D2E/DX2 analytically  !
 ! D97   D(45,37,38,39)         85.7999         calculate D2E/DX2 analytically  !
 ! D98   D(45,37,38,41)        -39.1098         calculate D2E/DX2 analytically  !
 ! D99   D(45,37,38,46)       -157.7853         calculate D2E/DX2 analytically  !
 ! D100  D(37,38,39,40)        141.8186         calculate D2E/DX2 analytically  !
 ! D101  D(37,38,39,51)        -38.2137         calculate D2E/DX2 analytically  !
 ! D102  D(41,38,39,40)        -93.6899         calculate D2E/DX2 analytically  !
 ! D103  D(41,38,39,51)         86.2778         calculate D2E/DX2 analytically  !
 ! D104  D(46,38,39,40)         23.1499         calculate D2E/DX2 analytically  !
 ! D105  D(46,38,39,51)       -156.8824         calculate D2E/DX2 analytically  !
 ! D106  D(37,38,41,42)         64.9289         calculate D2E/DX2 analytically  !
 ! D107  D(37,38,41,47)        -53.7611         calculate D2E/DX2 analytically  !
 ! D108  D(37,38,41,48)       -170.7355         calculate D2E/DX2 analytically  !
 ! D109  D(39,38,41,42)        -61.5508         calculate D2E/DX2 analytically  !
 ! D110  D(39,38,41,47)        179.7592         calculate D2E/DX2 analytically  !
 ! D111  D(39,38,41,48)         62.7848         calculate D2E/DX2 analytically  !
 ! D112  D(46,38,41,42)       -176.1884         calculate D2E/DX2 analytically  !
 ! D113  D(46,38,41,47)         65.1216         calculate D2E/DX2 analytically  !
 ! D114  D(46,38,41,48)        -51.8528         calculate D2E/DX2 analytically  !
 ! D115  D(38,39,51,52)        171.9406         calculate D2E/DX2 analytically  !
 ! D116  D(38,39,51,63)        -10.6837         calculate D2E/DX2 analytically  !
 ! D117  D(40,39,51,52)         -8.0923         calculate D2E/DX2 analytically  !
 ! D118  D(40,39,51,63)        169.2834         calculate D2E/DX2 analytically  !
 ! D119  D(38,41,42,43)        148.135          calculate D2E/DX2 analytically  !
 ! D120  D(38,41,42,44)        -32.5448         calculate D2E/DX2 analytically  !
 ! D121  D(47,41,42,43)        -93.3217         calculate D2E/DX2 analytically  !
 ! D122  D(47,41,42,44)         85.9985         calculate D2E/DX2 analytically  !
 ! D123  D(48,41,42,43)         23.9522         calculate D2E/DX2 analytically  !
 ! D124  D(48,41,42,44)       -156.7276         calculate D2E/DX2 analytically  !
 ! D125  D(41,42,43,49)       -179.873          calculate D2E/DX2 analytically  !
 ! D126  D(41,42,43,50)          0.1786         calculate D2E/DX2 analytically  !
 ! D127  D(44,42,43,49)          0.8158         calculate D2E/DX2 analytically  !
 ! D128  D(44,42,43,50)       -179.1326         calculate D2E/DX2 analytically  !
 ! D129  D(39,51,52,53)        -76.09           calculate D2E/DX2 analytically  !
 ! D130  D(39,51,52,55)        162.8109         calculate D2E/DX2 analytically  !
 ! D131  D(39,51,52,64)         40.6381         calculate D2E/DX2 analytically  !
 ! D132  D(63,51,52,53)        106.55           calculate D2E/DX2 analytically  !
 ! D133  D(63,51,52,55)        -14.5491         calculate D2E/DX2 analytically  !
 ! D134  D(63,51,52,64)       -136.7219         calculate D2E/DX2 analytically  !
 ! D135  D(51,52,53,54)        -44.4371         calculate D2E/DX2 analytically  !
 ! D136  D(51,52,53,62)        139.1753         calculate D2E/DX2 analytically  !
 ! D137  D(55,52,53,54)         76.7715         calculate D2E/DX2 analytically  !
 ! D138  D(55,52,53,62)        -99.6161         calculate D2E/DX2 analytically  !
 ! D139  D(64,52,53,54)       -162.238          calculate D2E/DX2 analytically  !
 ! D140  D(64,52,53,62)         21.3744         calculate D2E/DX2 analytically  !
 ! D141  D(51,52,55,56)       -174.3405         calculate D2E/DX2 analytically  !
 ! D142  D(51,52,55,65)        -53.4272         calculate D2E/DX2 analytically  !
 ! D143  D(51,52,55,66)         60.9349         calculate D2E/DX2 analytically  !
 ! D144  D(53,52,55,56)         64.9228         calculate D2E/DX2 analytically  !
 ! D145  D(53,52,55,65)       -174.1639         calculate D2E/DX2 analytically  !
 ! D146  D(53,52,55,66)        -59.8017         calculate D2E/DX2 analytically  !
 ! D147  D(64,52,55,56)        -53.5841         calculate D2E/DX2 analytically  !
 ! D148  D(64,52,55,65)         67.3292         calculate D2E/DX2 analytically  !
 ! D149  D(64,52,55,66)       -178.3086         calculate D2E/DX2 analytically  !
 ! D150  D(52,55,56,57)       -102.6676         calculate D2E/DX2 analytically  !
 ! D151  D(52,55,56,67)         20.4559         calculate D2E/DX2 analytically  !
 ! D152  D(52,55,56,68)        136.5819         calculate D2E/DX2 analytically  !
 ! D153  D(65,55,56,57)        138.1657         calculate D2E/DX2 analytically  !
 ! D154  D(65,55,56,67)        -98.7108         calculate D2E/DX2 analytically  !
 ! D155  D(65,55,56,68)         17.4152         calculate D2E/DX2 analytically  !
 ! D156  D(66,55,56,57)         21.1236         calculate D2E/DX2 analytically  !
 ! D157  D(66,55,56,67)        144.2471         calculate D2E/DX2 analytically  !
 ! D158  D(66,55,56,68)        -99.6268         calculate D2E/DX2 analytically  !
 ! D159  D(55,56,57,58)         67.9873         calculate D2E/DX2 analytically  !
 ! D160  D(55,56,57,69)       -171.9212         calculate D2E/DX2 analytically  !
 ! D161  D(55,56,57,70)        -54.1646         calculate D2E/DX2 analytically  !
 ! D162  D(67,56,57,58)        -55.6044         calculate D2E/DX2 analytically  !
 ! D163  D(67,56,57,69)         64.4872         calculate D2E/DX2 analytically  !
 ! D164  D(67,56,57,70)       -177.7562         calculate D2E/DX2 analytically  !
 ! D165  D(68,56,57,58)       -170.7456         calculate D2E/DX2 analytically  !
 ! D166  D(68,56,57,69)        -50.6541         calculate D2E/DX2 analytically  !
 ! D167  D(68,56,57,70)         67.1025         calculate D2E/DX2 analytically  !
 ! D168  D(56,57,58,59)       -143.2436         calculate D2E/DX2 analytically  !
 ! D169  D(56,57,58,71)         27.7703         calculate D2E/DX2 analytically  !
 ! D170  D(69,57,58,59)         95.8951         calculate D2E/DX2 analytically  !
 ! D171  D(69,57,58,71)        -93.091          calculate D2E/DX2 analytically  !
 ! D172  D(70,57,58,59)        -21.1874         calculate D2E/DX2 analytically  !
 ! D173  D(70,57,58,71)        149.8265         calculate D2E/DX2 analytically  !
 ! D174  D(57,58,59,60)        -23.9785         calculate D2E/DX2 analytically  !
 ! D175  D(57,58,59,61)        156.5098         calculate D2E/DX2 analytically  !
 ! D176  D(71,58,59,60)        164.9449         calculate D2E/DX2 analytically  !
 ! D177  D(71,58,59,61)        -14.5668         calculate D2E/DX2 analytically  !
 ! D178  D(58,59,60,72)       -170.2413         calculate D2E/DX2 analytically  !
 ! D179  D(58,59,60,73)        -27.8914         calculate D2E/DX2 analytically  !
 ! D180  D(61,59,60,72)          9.2377         calculate D2E/DX2 analytically  !
 ! D181  D(61,59,60,73)        151.5876         calculate D2E/DX2 analytically  !
 ! D182  D(58,59,61,74)       -174.3309         calculate D2E/DX2 analytically  !
 ! D183  D(58,59,61,75)        -48.1366         calculate D2E/DX2 analytically  !
 ! D184  D(60,59,61,74)          6.1815         calculate D2E/DX2 analytically  !
 ! D185  D(60,59,61,75)        132.3758         calculate D2E/DX2 analytically  !
 --------------------------------------------------------------------------------
 Trust Radius=3.00D-01 FncErr=1.00D-07 GrdErr=1.00D-06 EigMax=2.50D+02 EigMin=1.00D-04
 Number of steps in this run=    399 maximum allowed number of steps=    450.
 GradGradGradGradGradGradGradGradGradGradGradGradGradGradGradGradGradGrad

 Symmetry turned off by external request.
 Stoichiometry    C23H36N9O7(1+)
 Framework group  C1[X(C23H36N9O7)]
 Deg. of freedom   219
 Full point group                 C1      NOp   1
                          Input orientation:                          
 ---------------------------------------------------------------------
 Center     Atomic      Atomic             Coordinates (Angstroms)
 Number     Number       Type             X           Y           Z
 ---------------------------------------------------------------------
      1          7           0       -7.671838    1.235371   -8.575672
      2          6           0       -6.965364    1.035220   -7.295023
      3          6           0       -5.753313    0.117934   -7.509851
      4          8           0       -4.752872    0.587511   -8.047858
      5          6           0       -7.911041    0.577634   -6.202433
      6          6           0       -8.985882    1.612950   -5.960710
      7          7           0      -10.109867    1.160698   -5.347362
      8          8           0       -8.839794    2.783633   -6.281183
      9          1           0       -8.497552    0.618108   -8.586029
     10          1           0       -6.548841    2.000333   -6.998044
     11          1           0       -8.372547   -0.362954   -6.430877
     12          1           0       -7.347138    0.454243   -5.271234
     13          1           0      -10.831278    1.835352   -5.168083
     14          1           0      -10.229037    0.190375   -5.096820
     15          1           0       -8.006516    2.198699   -8.631833
     16          1           0       -7.096449    1.000565   -9.390825
     17          7           0       -5.830210   -1.172037   -7.084571
     18          6           0       -4.629791   -1.977490   -7.001501
     19          6           0       -4.903372   -3.423231   -7.441192
     20          8           0       -5.058971   -4.318638   -6.628556
     21          6           0       -4.076302   -1.971930   -5.565080
     22          6           0       -3.851580   -0.576929   -5.061393
     23          6           0       -2.791272    0.190387   -5.539430
     24          6           0       -4.744742    0.003690   -4.160325
     25          6           0       -2.626379    1.512228   -5.129767
     26          6           0       -4.597512    1.328842   -3.764472
     27          6           0       -3.535496    2.088772   -4.246055
     28          1           0       -6.710416   -1.591731   -6.819583
     29          1           0       -3.899062   -1.502744   -7.659770
     30          1           0       -4.786508   -2.497594   -4.926478
     31          1           0       -3.149854   -2.549171   -5.556367
     32          1           0       -2.114092   -0.252012   -6.263714
     33          1           0       -5.571278   -0.586720   -3.776990
     34          1           0       -1.795996    2.091043   -5.515878
     35          1           0       -5.308016    1.763476   -3.071097
     36          1           0       -3.415303    3.118667   -3.932762
     37          7           0       -4.942232   -3.678319   -8.780660
     38          6           0       -5.111525   -2.705441   -9.836571
     39          6           0       -6.512599   -2.080093   -9.876658
     40          8           0       -6.665513   -0.893953  -10.140276
     41          6           0       -4.755309   -3.330917  -11.189089
     42          6           0       -5.687662   -4.458020  -11.605973
     43          7           0       -5.887581   -4.593346  -12.936397
     44          8           0       -6.208425   -5.198244  -10.778908
     45          1           0       -5.226977   -4.627596   -8.986392
     46          1           0       -4.437784   -1.870863   -9.655197
     47          1           0       -3.753146   -3.751441  -11.096916
     48          1           0       -4.723530   -2.559470  -11.961550
     49          1           0       -6.499913   -5.327210  -13.247765
     50          1           0       -5.445392   -3.988846  -13.604476
     51          7           0       -7.548806   -2.904400   -9.608591
     52          6           0       -8.885257   -2.387781   -9.449961
     53          6           0       -9.015546   -1.711380   -8.057604
     54          8           0       -8.535443   -2.320158   -7.097535
     55          6           0       -9.908695   -3.519408   -9.580957
     56          6           0      -11.382176   -3.070367   -9.565716
     57          6           0      -12.104453   -3.307880   -8.239785
     58          7           0      -11.572990   -2.440064   -7.178105
     59          6           0      -11.426368   -2.791765   -5.909190
     60          7           0      -12.190068   -3.789115   -5.411720
     61          7           0      -10.507037   -2.107111   -5.173138
     62          8           0       -9.655562   -0.656423   -8.057247
     63          1           0       -7.386776   -3.896910   -9.558750
     64          1           0       -9.054860   -1.613167  -10.200629
     65          1           0       -9.692473   -4.015255  -10.531094
     66          1           0       -9.723102   -4.254962   -8.796164
     67          1           0      -11.450800   -2.011165   -9.823934
     68          1           0      -11.923617   -3.613331  -10.344028
     69          1           0      -13.170894   -3.097786   -8.357000
     70          1           0      -12.009980   -4.358069   -7.947817
     71          1           0      -11.168950   -1.554294   -7.455610
     72          1           0      -12.180745   -3.950025   -4.415990
     73          1           0      -13.089946   -3.905816   -5.863615
     74          1           0      -10.378070   -2.483045   -4.239041
     75          1           0       -9.622060   -2.052746   -5.701435
 ---------------------------------------------------------------------
 Rotational constants (GHZ):           0.1067201           0.0899869           0.0616429
 Standard basis: 6-31G(d) (6D, 7F)
   657 basis functions,  1236 primitive gaussians,   657 cartesian basis functions
   146 alpha electrons      146 beta electrons
       nuclear repulsion energy      5125.3229358701 Hartrees.
 NAtoms=   75 NActive=   75 NUniq=   75 SFac= 1.00D+00 NAtFMM=   60 NAOKFM=T Big=T
 Integral buffers will be    131072 words long.
 Raffenetti 2 integral format.
 Two-electron integral symmetry is turned off.
 Nuclear repulsion after empirical dispersion term =     5125.2031067614 Hartrees.
 One-electron integrals computed using PRISM.
 NBasis=   657 RedAO= T EigKep=  4.48D-04  NBF=   657
 NBsUse=   657 1.00D-06 EigRej= -1.00D+00 NBFU=   657
 ExpMin= 1.61D-01 ExpMax= 5.48D+03 ExpMxC= 8.25D+02 IAcc=3 IRadAn=         5 AccDes= 0.00D+00
 Harris functional with IExCor=  402 and IRadAn=       5 diagonalized for initial guess.
 HarFok:  IExCor=  402 AccDes= 0.00D+00 IRadAn=         5 IDoV= 1 UseB2=F ITyADJ=14
 ICtDFT=  3500011 ScaDFX=  1.000000  1.000000  1.000000  1.000000
 FoFCou: FMM=F IPFlag=           0 FMFlag=      100000 FMFlg1=        2001
         NFxFlg=           0 DoJE=T BraDBF=F KetDBF=T FulRan=T
         wScrn=  0.000000 ICntrl=       500 IOpCl=  0 I1Cent=   200000004 NGrid=           0
         NMat0=    1 NMatS0=      1 NMatT0=    0 NMatD0=    1 NMtDS0=    0 NMtDT0=    0
 Symmetry not used in FoFCou.
 Requested convergence on RMS density matrix=1.00D-08 within 128 cycles.
 Requested convergence on MAX density matrix=1.00D-06.
 Requested convergence on             energy=1.00D-06.
 No special actions if energy rises.
 Integral accuracy reduced to 1.0D-05 until final iterations.
 Initial convergence to 1.0D-05 achieved.  Increase integral accuracy.
 SCF Done:  E(RB3LYP) =  -1917.48464222     A.U. after   15 cycles
            NFock= 15  Conv=0.62D-08     -V/T= 2.0087
 DoSCS=F DFT=T ScalE2(SS,OS)=  1.000000  1.000000
 Range of M.O.s used for correlation:     1   657
 NBasis=   657 NAE=   146 NBE=   146 NFC=     0 NFV=     0
 NROrb=    657 NOA=   146 NOB=   146 NVA=   511 NVB=   511
 Symmetrizing basis deriv contribution to polar:
 IMax=3 JMax=2 DiffMx= 0.00D+00
 G2DrvN: will do    76 centers at a time, making    1 passes.
 Calling FoFCou, ICntrl=  3107 FMM=T I1Cent=   0 AccDes= 0.00D+00.
 End of G2Drv F.D. properties file   721 does not exist.
 End of G2Drv F.D. properties file   722 does not exist.
 End of G2Drv F.D. properties file   788 does not exist.
          IDoAtm=11111111111111111111111111111111111111111111111111
          IDoAtm=1111111111111111111111111
          Differentiating once with respect to nuclear coordinates.
 CalDSu exits because no D1Ps are significant.
          There are   228 degrees of freedom in the 1st order CPHF.  IDoFFX=6 NUNeed=     0.
    222 vectors produced by pass  0 Test12= 7.46D-14 1.00D-09 XBig12= 1.76D-01 1.38D-01.
 AX will form    72 AO Fock derivatives at one time.
    222 vectors produced by pass  1 Test12= 7.46D-14 1.00D-09 XBig12= 2.51D-02 2.11D-02.
    222 vectors produced by pass  2 Test12= 7.46D-14 1.00D-09 XBig12= 1.59D-04 1.67D-03.
    222 vectors produced by pass  3 Test12= 7.46D-14 1.00D-09 XBig12= 5.82D-07 6.25D-05.
    222 vectors produced by pass  4 Test12= 7.46D-14 1.00D-09 XBig12= 9.46D-10 2.18D-06.
    175 vectors produced by pass  5 Test12= 7.46D-14 1.00D-09 XBig12= 8.72D-13 7.77D-08.
      8 vectors produced by pass  6 Test12= 7.46D-14 1.00D-09 XBig12= 7.98D-16 2.65D-09.
 InvSVY:  IOpt=1 It=  1 EMax= 5.55D-16
 Solved reduced A of dimension  1293 with   228 vectors.
 End of Minotr F.D. properties file   721 does not exist.
 End of Minotr F.D. properties file   722 does not exist.
 End of Minotr F.D. properties file   788 does not exist.

 **********************************************************************

            Population analysis using the SCF Density.

 **********************************************************************

 Alpha  occ. eigenvalues --  -19.22699 -19.22363 -19.21721 -19.21701 -19.20707
 Alpha  occ. eigenvalues --  -19.20338 -19.18977 -14.54519 -14.52906 -14.50968
 Alpha  occ. eigenvalues --  -14.50420 -14.45878 -14.45102 -14.44686 -14.44622
 Alpha  occ. eigenvalues --  -14.43340 -10.47898 -10.39411 -10.39241 -10.38284
 Alpha  occ. eigenvalues --  -10.38258 -10.38166 -10.36264 -10.36047 -10.35130
 Alpha  occ. eigenvalues --  -10.32971 -10.32113 -10.30960 -10.30798 -10.29941
 Alpha  occ. eigenvalues --  -10.29918 -10.28843 -10.25429 -10.25319 -10.25050
 Alpha  occ. eigenvalues --  -10.24989 -10.24723 -10.24665 -10.24575  -1.18189
 Alpha  occ. eigenvalues --   -1.16612  -1.14280  -1.13756  -1.13281  -1.12629
 Alpha  occ. eigenvalues --   -1.11355  -1.10086  -1.08620  -1.06002  -1.04970
 Alpha  occ. eigenvalues --   -1.02728  -1.01599  -1.00913  -1.00482  -0.99693
 Alpha  occ. eigenvalues --   -0.91943  -0.91889  -0.89680  -0.87957  -0.85872
 Alpha  occ. eigenvalues --   -0.85493  -0.80848  -0.80474  -0.79871  -0.78488
 Alpha  occ. eigenvalues --   -0.78130  -0.76698  -0.73574  -0.73336  -0.71885
 Alpha  occ. eigenvalues --   -0.70289  -0.70021  -0.69234  -0.69169  -0.68123
 Alpha  occ. eigenvalues --   -0.67610  -0.67369  -0.66776  -0.66426  -0.65793
 Alpha  occ. eigenvalues --   -0.64849  -0.64689  -0.64520  -0.63693  -0.63669
 Alpha  occ. eigenvalues --   -0.62144  -0.61539  -0.60406  -0.60110  -0.59106
 Alpha  occ. eigenvalues --   -0.58852  -0.57685  -0.57480  -0.57452  -0.56106
 Alpha  occ. eigenvalues --   -0.55714  -0.55369  -0.55193  -0.54604  -0.54447
 Alpha  occ. eigenvalues --   -0.53486  -0.53356  -0.53182  -0.52525  -0.51846
 Alpha  occ. eigenvalues --   -0.51594  -0.51374  -0.51272  -0.50536  -0.50198
 Alpha  occ. eigenvalues --   -0.49845  -0.49157  -0.48441  -0.48269  -0.47991
 Alpha  occ. eigenvalues --   -0.47892  -0.47348  -0.47120  -0.46616  -0.46206
 Alpha  occ. eigenvalues --   -0.45927  -0.45844  -0.45253  -0.45198  -0.44742
 Alpha  occ. eigenvalues --   -0.44587  -0.43073  -0.41810  -0.40612  -0.39977
 Alpha  occ. eigenvalues --   -0.39893  -0.39646  -0.37930  -0.37497  -0.37141
 Alpha  occ. eigenvalues --   -0.36914  -0.36013  -0.35735  -0.35052  -0.34520
 Alpha  occ. eigenvalues --   -0.34084  -0.33690  -0.32659  -0.32220  -0.30955
 Alpha  occ. eigenvalues --   -0.30107
 Alpha virt. eigenvalues --   -0.14295  -0.09526  -0.08290  -0.08003  -0.07800
 Alpha virt. eigenvalues --   -0.07111  -0.06809  -0.06054  -0.05762  -0.05593
 Alpha virt. eigenvalues --   -0.04055  -0.02530  -0.02081  -0.01727  -0.01359
 Alpha virt. eigenvalues --    0.00346   0.00680   0.01084   0.01561   0.01871
 Alpha virt. eigenvalues --    0.02249   0.02806   0.03607   0.03726   0.04225
 Alpha virt. eigenvalues --    0.04723   0.04912   0.05149   0.05527   0.05697
 Alpha virt. eigenvalues --    0.06231   0.06668   0.06805   0.07621   0.07974
 Alpha virt. eigenvalues --    0.08385   0.08612   0.09062   0.09166   0.09783
 Alpha virt. eigenvalues --    0.10581   0.10763   0.10819   0.11248   0.11606
 Alpha virt. eigenvalues --    0.11949   0.12111   0.12342   0.12741   0.13668
 Alpha virt. eigenvalues --    0.13854   0.14284   0.14839   0.15099   0.15263
 Alpha virt. eigenvalues --    0.16740   0.17242   0.17746   0.17937   0.18621
 Alpha virt. eigenvalues --    0.19420   0.19497   0.20069   0.20629   0.21699
 Alpha virt. eigenvalues --    0.22420   0.24558   0.24787   0.25054   0.25402
 Alpha virt. eigenvalues --    0.25765   0.25894   0.26466   0.27024   0.27628
 Alpha virt. eigenvalues --    0.28981   0.29207   0.30021   0.31157   0.32255
 Alpha virt. eigenvalues --    0.32717   0.34702   0.36713   0.37740   0.37960
 Alpha virt. eigenvalues --    0.38862   0.39032   0.39656   0.40049   0.40908
 Alpha virt. eigenvalues --    0.41693   0.42197   0.42926   0.43170   0.43587
 Alpha virt. eigenvalues --    0.44247   0.45249   0.45700   0.47350   0.47517
 Alpha virt. eigenvalues --    0.47925   0.48106   0.48590   0.48898   0.48917
 Alpha virt. eigenvalues --    0.49430   0.50449   0.50746   0.51002   0.51442
 Alpha virt. eigenvalues --    0.51881   0.52202   0.52556   0.52731   0.53387
 Alpha virt. eigenvalues --    0.53767   0.53889   0.54208   0.54521   0.55293
 Alpha virt. eigenvalues --    0.55463   0.55736   0.55888   0.56229   0.56638
 Alpha virt. eigenvalues --    0.56888   0.57184   0.57332   0.58107   0.58244
 Alpha virt. eigenvalues --    0.58753   0.58981   0.59417   0.59773   0.60601
 Alpha virt. eigenvalues --    0.61144   0.61266   0.62283   0.63095   0.63475
 Alpha virt. eigenvalues --    0.63577   0.63995   0.64827   0.65094   0.65658
 Alpha virt. eigenvalues --    0.66442   0.66695   0.67147   0.67862   0.68608
 Alpha virt. eigenvalues --    0.69630   0.70202   0.70511   0.70649   0.70784
 Alpha virt. eigenvalues --    0.71815   0.72262   0.72531   0.73153   0.73272
 Alpha virt. eigenvalues --    0.73712   0.74135   0.74726   0.75147   0.75773
 Alpha virt. eigenvalues --    0.76014   0.76317   0.76967   0.77231   0.77531
 Alpha virt. eigenvalues --    0.77928   0.78408   0.78569   0.78649   0.78761
 Alpha virt. eigenvalues --    0.79353   0.79413   0.79588   0.79930   0.80456
 Alpha virt. eigenvalues --    0.80682   0.81035   0.81527   0.82117   0.82530
 Alpha virt. eigenvalues --    0.82800   0.83049   0.83349   0.84034   0.84581
 Alpha virt. eigenvalues --    0.85120   0.85427   0.85691   0.86340   0.86823
 Alpha virt. eigenvalues --    0.87170   0.87861   0.88455   0.89598   0.89938
 Alpha virt. eigenvalues --    0.90738   0.90871   0.91693   0.92090   0.93207
 Alpha virt. eigenvalues --    0.93450   0.93725   0.94437   0.95312   0.95570
 Alpha virt. eigenvalues --    0.96139   0.96907   0.97209   0.97902   0.99098
 Alpha virt. eigenvalues --    1.00379   1.00415   1.01484   1.02023   1.02474
 Alpha virt. eigenvalues --    1.03522   1.03707   1.04859   1.05869   1.06464
 Alpha virt. eigenvalues --    1.07228   1.07557   1.07758   1.09175   1.09760
 Alpha virt. eigenvalues --    1.10623   1.10849   1.10953   1.12647   1.13007
 Alpha virt. eigenvalues --    1.13480   1.14003   1.15066   1.15940   1.16344
 Alpha virt. eigenvalues --    1.17316   1.18058   1.18483   1.19313   1.20595
 Alpha virt. eigenvalues --    1.20685   1.21342   1.21911   1.22098   1.23837
 Alpha virt. eigenvalues --    1.24624   1.26774   1.27126   1.28166   1.29164
 Alpha virt. eigenvalues --    1.29562   1.30410   1.30812   1.31019   1.31882
 Alpha virt. eigenvalues --    1.32866   1.33496   1.35245   1.35930   1.36065
 Alpha virt. eigenvalues --    1.37651   1.38656   1.38991   1.39858   1.40423
 Alpha virt. eigenvalues --    1.41260   1.41880   1.42482   1.43394   1.44012
 Alpha virt. eigenvalues --    1.44575   1.45043   1.45997   1.46354   1.47851
 Alpha virt. eigenvalues --    1.48194   1.49445   1.51515   1.52105   1.52974
 Alpha virt. eigenvalues --    1.53646   1.54301   1.54585   1.55586   1.56113
 Alpha virt. eigenvalues --    1.56947   1.57538   1.58817   1.59427   1.61123
 Alpha virt. eigenvalues --    1.61496   1.62299   1.62533   1.63693   1.64306
 Alpha virt. eigenvalues --    1.64907   1.65353   1.65947   1.66966   1.68147
 Alpha virt. eigenvalues --    1.68526   1.69350   1.69830   1.70858   1.71474
 Alpha virt. eigenvalues --    1.72388   1.72782   1.73954   1.74278   1.74433
 Alpha virt. eigenvalues --    1.75164   1.75898   1.76488   1.76745   1.77019
 Alpha virt. eigenvalues --    1.77698   1.78356   1.78840   1.79110   1.79919
 Alpha virt. eigenvalues --    1.80350   1.80724   1.81137   1.81469   1.82702
 Alpha virt. eigenvalues --    1.82791   1.83533   1.84040   1.84949   1.85467
 Alpha virt. eigenvalues --    1.86611   1.87002   1.87496   1.88150   1.88574
 Alpha virt. eigenvalues --    1.88885   1.89560   1.90848   1.91081   1.92018
 Alpha virt. eigenvalues --    1.92037   1.92783   1.93290   1.93804   1.94092
 Alpha virt. eigenvalues --    1.94693   1.95759   1.96869   1.98142   1.98261
 Alpha virt. eigenvalues --    1.98898   1.99637   2.00381   2.01024   2.01219
 Alpha virt. eigenvalues --    2.01566   2.01992   2.02280   2.03572   2.03905
 Alpha virt. eigenvalues --    2.05756   2.05973   2.06722   2.07209   2.07664
 Alpha virt. eigenvalues --    2.08373   2.09107   2.09739   2.10777   2.11277
 Alpha virt. eigenvalues --    2.11665   2.12363   2.13960   2.15230   2.16016
 Alpha virt. eigenvalues --    2.17070   2.17590   2.17760   2.18728   2.19268
 Alpha virt. eigenvalues --    2.20576   2.21181   2.21849   2.23052   2.24307
 Alpha virt. eigenvalues --    2.24508   2.25426   2.25752   2.27131   2.27537
 Alpha virt. eigenvalues --    2.28415   2.28611   2.30139   2.30768   2.31738
 Alpha virt. eigenvalues --    2.32740   2.33014   2.33886   2.35201   2.36276
 Alpha virt. eigenvalues --    2.37658   2.38258   2.39157   2.39542   2.39754
 Alpha virt. eigenvalues --    2.41778   2.42367   2.43446   2.43642   2.44701
 Alpha virt. eigenvalues --    2.46236   2.47013   2.48889   2.49260   2.50175
 Alpha virt. eigenvalues --    2.50604   2.51754   2.52156   2.52586   2.53433
 Alpha virt. eigenvalues --    2.54029   2.54779   2.55613   2.56412   2.56954
 Alpha virt. eigenvalues --    2.58055   2.58944   2.59100   2.60303   2.60578
 Alpha virt. eigenvalues --    2.61222   2.61916   2.63848   2.65842   2.66747
 Alpha virt. eigenvalues --    2.67589   2.68941   2.69310   2.69760   2.71341
 Alpha virt. eigenvalues --    2.72398   2.73820   2.77336   2.78050   2.80748
 Alpha virt. eigenvalues --    2.81640   2.82033   2.84791   2.88390   2.88779
 Alpha virt. eigenvalues --    2.90729   2.92004   2.92421   2.93453   2.95152
 Alpha virt. eigenvalues --    2.95903   2.96434   2.97078   3.00338   3.01072
 Alpha virt. eigenvalues --    3.01650   3.02525   3.08036   3.08207   3.10491
 Alpha virt. eigenvalues --    3.12018   3.36812   3.67476   3.71421   3.76213
 Alpha virt. eigenvalues --    3.77215   3.85307   3.90706   3.91339   3.96310
 Alpha virt. eigenvalues --    3.98952   4.00706   4.03002   4.03886   4.04322
 Alpha virt. eigenvalues --    4.06401   4.07714   4.11205   4.11788   4.16322
 Alpha virt. eigenvalues --    4.17496   4.17830   4.19727   4.22691   4.25624
 Alpha virt. eigenvalues --    4.28842   4.33838   4.36557   4.37758   4.40097
 Alpha virt. eigenvalues --    4.40687   4.45352   4.48218   4.49438   4.51008
 Alpha virt. eigenvalues --    4.57777   4.63618   4.66614   4.68555   4.71197
 Alpha virt. eigenvalues --    4.72773
          Condensed to atoms (all electrons):
 Mulliken charges:
               1
     1  N   -0.770158
     2  C   -0.098274
     3  C    0.634267
     4  O   -0.518012
     5  C   -0.439976
     6  C    0.617607
     7  N   -0.772301
     8  O   -0.522298
     9  H    0.437560
    10  H    0.242000
    11  H    0.192899
    12  H    0.207689
    13  H    0.351389
    14  H    0.367531
    15  H    0.411836
    16  H    0.439530
    17  N   -0.656192
    18  C   -0.064284
    19  C    0.594835
    20  O   -0.494705
    21  C   -0.349875
    22  C    0.166346
    23  C   -0.151428
    24  C   -0.195049
    25  C   -0.126929
    26  C   -0.137149
    27  C   -0.129809
    28  H    0.389989
    29  H    0.197254
    30  H    0.164397
    31  H    0.170499
    32  H    0.130491
    33  H    0.108914
    34  H    0.142992
    35  H    0.131157
    36  H    0.141814
    37  N   -0.613490
    38  C   -0.070593
    39  C    0.637917
    40  O   -0.587755
    41  C   -0.387247
    42  C    0.607895
    43  N   -0.732954
    44  O   -0.530172
    45  H    0.360602
    46  H    0.202298
    47  H    0.213685
    48  H    0.177790
    49  H    0.359755
    50  H    0.359138
    51  N   -0.601851
    52  C    0.004139
    53  C    0.622302
    54  O   -0.586315
    55  C   -0.318533
    56  C   -0.308099
    57  C   -0.164200
    58  N   -0.587680
    59  C    0.702102
    60  N   -0.720637
    61  N   -0.775717
    62  O   -0.625146
    63  H    0.369095
    64  H    0.160915
    65  H    0.175422
    66  H    0.165991
    67  H    0.179552
    68  H    0.181773
    69  H    0.181289
    70  H    0.190505
    71  H    0.410649
    72  H    0.376905
    73  H    0.382703
    74  H    0.353666
    75  H    0.419743
 Sum of Mulliken charges =   1.00000
 Mulliken charges with hydrogens summed into heavy atoms:
               1
     1  N    0.518768
     2  C    0.143726
     3  C    0.634267
     4  O   -0.518012
     5  C   -0.039388
     6  C    0.617607
     7  N   -0.053381
     8  O   -0.522298
    17  N   -0.266203
    18  C    0.132970
    19  C    0.594835
    20  O   -0.494705
    21  C   -0.014980
    22  C    0.166346
    23  C   -0.020937
    24  C   -0.086135
    25  C    0.016064
    26  C   -0.005992
    27  C    0.012005
    37  N   -0.252888
    38  C    0.131706
    39  C    0.637917
    40  O   -0.587755
    41  C    0.004228
    42  C    0.607895
    43  N   -0.014061
    44  O   -0.530172
    51  N   -0.232756
    52  C    0.165054
    53  C    0.622302
    54  O   -0.586315
    55  C    0.022880
    56  C    0.053226
    57  C    0.207594
    58  N   -0.177030
    59  C    0.702102
    60  N    0.038971
    61  N   -0.002307
    62  O   -0.625146
 APT charges:
               1
     1  N   -2.865231
     2  C    1.074163
     3  C    0.498648
     4  O   -0.663630
     5  C   -0.013353
     6  C   -1.216722
     7  N   -1.215558
     8  O    0.502252
     9  H    0.965520
    10  H   -0.282903
    11  H    0.826838
    12  H   -0.780227
    13  H    1.730328
    14  H    0.315548
    15  H    1.191705
    16  H    0.907210
    17  N   -1.377172
    18  C   -0.588172
    19  C   -0.254046
    20  O   -0.492873
    21  C   -0.085952
    22  C    0.279796
    23  C   -0.601889
    24  C   -0.657239
    25  C   -0.598521
    26  C   -0.535765
    27  C   -0.583300
    28  H    1.018012
    29  H    0.321890
    30  H    0.328775
    31  H   -0.002155
    32  H    0.581237
    33  H    0.569401
    34  H    0.429375
    35  H    0.486674
    36  H    0.388531
    37  N   -0.564852
    38  C    0.500362
    39  C   -0.771341
    40  O    0.015997
    41  C   -1.297749
    42  C   -0.586641
    43  N   -1.488256
    44  O   -0.647523
    45  H    1.382128
    46  H   -0.542284
    47  H   -0.217821
    48  H    1.031412
    49  H    2.432644
    50  H    1.127110
    51  N   -0.165342
    52  C   -1.191522
    53  C    1.060274
    54  O   -1.633254
    55  C   -0.406910
    56  C   -2.714787
    57  C   -2.561726
    58  N    1.539122
    59  C   -0.275934
    60  N   -1.429577
    61  N   -0.762793
    62  O   -0.266880
    63  H    0.779451
    64  H    1.107796
    65  H    1.351571
    66  H   -0.396569
    67  H    0.410135
    68  H    2.248808
    69  H    1.910654
    70  H    0.603398
    71  H   -0.126616
    72  H   -0.239242
    73  H    2.914121
    74  H   -0.465126
    75  H   -0.263429
 Sum of APT charges =   1.00000
 APT charges with hydrogens summed into heavy atoms:
               1
     1  N    0.199205
     2  C    0.791260
     3  C    0.498648
     4  O   -0.663630
     5  C    0.033258
     6  C   -1.216722
     7  N    0.830318
     8  O    0.502252
    17  N   -0.359160
    18  C   -0.266281
    19  C   -0.254046
    20  O   -0.492873
    21  C    0.240667
    22  C    0.279796
    23  C   -0.020652
    24  C   -0.087838
    25  C   -0.169147
    26  C   -0.049092
    27  C   -0.194769
    37  N    0.817276
    38  C   -0.041922
    39  C   -0.771341
    40  O    0.015997
    41  C   -0.484159
    42  C   -0.586641
    43  N    2.071497
    44  O   -0.647523
    51  N    0.614109
    52  C   -0.083726
    53  C    1.060274
    54  O   -1.633254
    55  C    0.548092
    56  C   -0.055844
    57  C   -0.047674
    58  N    1.412506
    59  C   -0.275934
    60  N    1.245302
    61  N   -1.491349
    62  O   -0.266880
 Electronic spatial extent (au):  <R**2>=         134910.1856
 Charge=              1.0000 electrons
 Dipole moment (field-independent basis, Debye):
    X=            -49.3209    Y=            -11.3394    Z=            -39.2394  Tot=             64.0380
 Quadrupole moment (field-independent basis, Debye-Ang):
   XX=            329.3537   YY=           -190.4061   ZZ=            167.3517
   XY=            132.8144   XZ=            355.2480   YZ=            103.2481
 Traceless Quadrupole moment (field-independent basis, Debye-Ang):
   XX=            227.2539   YY=           -292.5059   ZZ=             65.2520
   XY=            132.8144   XZ=            355.2480   YZ=            103.2481
 Octapole moment (field-independent basis, Debye-Ang**2):
  XXX=          -1668.7027  YYY=            915.8613  ZZZ=            665.2607  XYY=           1171.3259
  XXY=          -1287.3969  XXZ=          -1995.6463  XZZ=          -1536.9820  YZZ=           -830.0054
  YYZ=           1343.7520  XYZ=           -982.7267
 Hexadecapole moment (field-independent basis, Debye-Ang**3):
 XXXX=          -1479.9894 YYYY=          -9263.0111 ZZZZ=         -30434.4198 XXXY=          12117.3530
 XXXZ=           4785.0963 YYYX=          -6402.1630 YYYZ=          -8439.4926 ZZZX=          -4414.2645
 ZZZY=           5132.9159 XXYY=          -9136.5124 XXZZ=           2262.0780 YYZZ=         -11019.3869
 XXYZ=           7703.4988 YYXZ=          -8676.5346 ZZXY=           6559.0431
 N-N= 5.125203106761D+03 E-N=-1.469369530525D+04  KE= 1.900885052863D+03
  Exact polarizability:       0.000       0.000       0.000       0.000       0.000       0.000
 Approx polarizability:     424.503      45.992     499.602     -47.142     -19.490     440.994
 Calling FoFJK, ICntrl=    100127 FMM=F ISym2X=0 I1Cent= 0 IOpClX= 0 NMat=1 NMatS=1 NMatT=0.
 -------------------------------------------------------------------
 Center     Atomic                   Forces (Hartrees/Bohr)
 Number     Number              X              Y              Z
 -------------------------------------------------------------------
      1        7          -0.009127359    0.009134908   -0.009540322
      2        6           0.017897880   -0.005683557    0.023105674
      3        6           0.012916175   -0.002466943   -0.006693199
      4        8          -0.007018527    0.001346316    0.001064432
      5        6           0.000200924    0.008725212    0.010646730
      6        6          -0.007178561   -0.002793255    0.006770381
      7        7           0.008926428   -0.001256001   -0.002090461
      8        8           0.001562501    0.010057271   -0.009335093
      9        1          -0.008223736   -0.006841422   -0.005179321
     10        1           0.001146226   -0.001084173   -0.002748445
     11        1           0.001151994   -0.004374364    0.002668264
     12        1           0.004066021    0.001502328   -0.001305099
     13        1          -0.005863395    0.002027747    0.003375418
     14        1          -0.004284165   -0.000062251   -0.000251110
     15        1          -0.001879333    0.003251174    0.000673146
     16        1           0.004796752   -0.003495559   -0.001905778
     17        7          -0.002911615    0.007388269   -0.004830090
     18        6           0.008282006   -0.003690629    0.003963865
     19        6          -0.001363039    0.004326272    0.000946876
     20        8          -0.000803581   -0.004335736    0.005293588
     21        6          -0.000464276   -0.001429635    0.001161074
     22        6          -0.000385440   -0.000479846    0.001168890
     23        6           0.001872156    0.002153018   -0.000793247
     24        6          -0.002743294   -0.000617861   -0.000935778
     25        6           0.001873408   -0.001800153   -0.003064768
     26        6          -0.001997977    0.002285856    0.003058008
     27        6           0.000527312    0.001121625    0.000198558
     28        1          -0.003439113   -0.001003055    0.004032373
     29        1           0.000330282   -0.001202528   -0.000814931
     30        1          -0.000583198   -0.002994218    0.001197827
     31        1           0.002155644   -0.002206926    0.000269617
     32        1           0.002489541    0.000948318    0.000022413
     33        1          -0.001170303   -0.001384193    0.001273481
     34        1           0.001501207    0.001563948   -0.000432482
     35        1          -0.001219340    0.001367327    0.001806957
     36        1           0.000306971    0.002059038    0.000594311
     37        7           0.001266509   -0.002853854    0.000576348
     38        6          -0.001644408   -0.000544425   -0.000396033
     39        6          -0.002430737   -0.014426259    0.001626748
     40        8          -0.003893584    0.020905151   -0.001987880
     41        6           0.003135868    0.001452974   -0.004364018
     42        6           0.004737971    0.005423201   -0.004810510
     43        7          -0.000305100    0.001362705    0.007559224
     44        8          -0.008171390   -0.009498039    0.005420328
     45        1          -0.000687282   -0.002770514   -0.003571759
     46        1           0.001222323    0.003778607   -0.001949192
     47        1           0.004549204   -0.001336029   -0.001365421
     48        1           0.000764867    0.002985568    0.000423905
     49        1          -0.001440349   -0.004638651   -0.004125875
     50        1           0.000800265    0.001595502   -0.005142165
     51        7           0.002431999    0.001588342   -0.004993186
     52        6           0.003226218    0.003523297    0.006689687
     53        6           0.009652305   -0.033230668   -0.053178017
     54        8           0.009484443   -0.014240491    0.035654839
     55        6           0.002493881    0.000205975   -0.006322677
     56        6           0.003563394    0.000805384   -0.000151538
     57        6          -0.007985316    0.003077588   -0.001607919
     58        7          -0.007565756   -0.014237167    0.001939777
     59        6          -0.002664651    0.006483946   -0.004222156
     60        7           0.000529895    0.008003613   -0.001103786
     61        7          -0.007915161   -0.013920458    0.007612667
     62        8          -0.029297514    0.044038485    0.005075619
     63        1           0.003055655   -0.005169638    0.002982306
     64        1          -0.001602476   -0.000909290   -0.002166588
     65        1          -0.000892386   -0.002354102   -0.001418022
     66        1           0.001194963   -0.002606084    0.003332705
     67        1          -0.001186497    0.002774096   -0.001499242
     68        1          -0.003129005   -0.000707502    0.001053762
     69        1          -0.003352090   -0.000069061   -0.002007551
     70        1           0.002303216    0.000495614    0.003224381
     71        1           0.008370875    0.007514633   -0.002991582
     72        1           0.000584245   -0.004143454    0.002353889
     73        1          -0.000158384   -0.004474862    0.003165402
     74        1           0.001067007    0.003397431    0.002245780
     75        1           0.008539805    0.002662115   -0.004934008
 -------------------------------------------------------------------
 Cartesian Forces:  Max     0.053178017 RMS     0.007799175
 FormGI is forming the generalized inverse of G from B-inverse, IUseBI=4.

 GradGradGradGradGradGradGradGradGradGradGradGradGradGradGradGradGradGrad
 Berny optimization.
 Internal  Forces:  Max     0.053377582 RMS     0.010878701
 Search for a local minimum.
 Step number   1 out of a maximum of  399
 All quantities printed in internal units (Hartrees-Bohrs-Radians)
 Mixed Optimization -- RFO/linear search
 Second derivative matrix not updated -- analytic derivatives used.
 ITU=  0
     Eigenvalues ---   -0.01011  -0.00336  -0.00163   0.00015   0.00082
     Eigenvalues ---    0.00115   0.00161   0.00232   0.00270   0.00375
     Eigenvalues ---    0.00389   0.00413   0.00423   0.00500   0.00588
     Eigenvalues ---    0.00708   0.00871   0.00945   0.00985   0.01133
     Eigenvalues ---    0.01253   0.01414   0.01585   0.01599   0.01679
     Eigenvalues ---    0.01744   0.01780   0.01849   0.01887   0.01926
     Eigenvalues ---    0.02134   0.02316   0.02394   0.02473   0.02572
     Eigenvalues ---    0.02653   0.02777   0.02860   0.02871   0.03076
     Eigenvalues ---    0.03663   0.03704   0.03930   0.03964   0.04088
     Eigenvalues ---    0.04092   0.04187   0.04220   0.04255   0.04325
     Eigenvalues ---    0.04508   0.04540   0.04594   0.04644   0.04712
     Eigenvalues ---    0.04746   0.04843   0.04920   0.05016   0.05100
     Eigenvalues ---    0.05110   0.05326   0.05543   0.05556   0.05911
     Eigenvalues ---    0.06044   0.06309   0.06437   0.06517   0.07141
     Eigenvalues ---    0.07278   0.07602   0.07632   0.07821   0.08080
     Eigenvalues ---    0.08301   0.08416   0.08602   0.08877   0.09635
     Eigenvalues ---    0.10829   0.10930   0.11005   0.11309   0.11601
     Eigenvalues ---    0.11718   0.11842   0.12013   0.12171   0.12285
     Eigenvalues ---    0.12428   0.12587   0.12893   0.12948   0.13125
     Eigenvalues ---    0.13159   0.13382   0.13480   0.13771   0.13794
     Eigenvalues ---    0.14493   0.14687   0.15102   0.15811   0.16486
     Eigenvalues ---    0.16868   0.17881   0.18776   0.18834   0.18962
     Eigenvalues ---    0.19468   0.19756   0.20083   0.20308   0.20389
     Eigenvalues ---    0.20511   0.21132   0.21197   0.21721   0.21845
     Eigenvalues ---    0.22253   0.22516   0.22734   0.22824   0.23120
     Eigenvalues ---    0.23430   0.24055   0.24198   0.24638   0.24748
     Eigenvalues ---    0.25016   0.25440   0.25958   0.26687   0.27367
     Eigenvalues ---    0.27672   0.28137   0.28716   0.29233   0.29876
     Eigenvalues ---    0.30290   0.30514   0.31298   0.31968   0.32634
     Eigenvalues ---    0.33041   0.33588   0.33823   0.33881   0.34044
     Eigenvalues ---    0.34201   0.34267   0.34462   0.34513   0.34563
     Eigenvalues ---    0.34664   0.34754   0.34871   0.34919   0.35071
     Eigenvalues ---    0.35118   0.35482   0.35649   0.35941   0.36053
     Eigenvalues ---    0.36271   0.36423   0.36555   0.36718   0.36851
     Eigenvalues ---    0.36889   0.37182   0.38031   0.38600   0.39539
     Eigenvalues ---    0.39728   0.40635   0.41626   0.42722   0.42913
     Eigenvalues ---    0.43097   0.43541   0.44215   0.45465   0.45835
     Eigenvalues ---    0.45850   0.46150   0.46209   0.46987   0.47164
     Eigenvalues ---    0.47566   0.47881   0.47933   0.48157   0.48408
     Eigenvalues ---    0.48614   0.49346   0.49598   0.49811   0.49875
     Eigenvalues ---    0.50012   0.52237   0.52577   0.56874   0.60965
     Eigenvalues ---    0.62794   0.67691   0.71612   0.81160   0.83094
     Eigenvalues ---    0.83686   0.85406   0.85609   0.88430   0.88927
     Eigenvalues ---    0.93860   2.86207   4.24841   8.95222
 RFO step:  Lambda=-3.26454485D-02 EMin=-1.01146067D-02
 Linear search not attempted -- first point.
 Iteration  1 RMS(Cart)=  0.31085621 RMS(Int)=  0.01275446
 Iteration  2 RMS(Cart)=  0.09189926 RMS(Int)=  0.00053918
 Iteration  3 RMS(Cart)=  0.00171240 RMS(Int)=  0.00030687
 Iteration  4 RMS(Cart)=  0.00000080 RMS(Int)=  0.00030687
 Variable       Old X    -DE/DX   Delta X   Delta X   Delta X     New X
                                 (Linear)    (Quad)   (Total)
    R1        2.78965   0.02102   0.00000   0.05944   0.05944   2.84910
    R2        1.94827   0.01073   0.00000   0.01824   0.01824   1.96651
    R3        1.93008   0.00365   0.00000   0.00711   0.00711   1.93719
    R4        1.93702   0.00501   0.00000   0.01049   0.01049   1.94751
    R5        2.90098   0.00500   0.00000   0.02439   0.02439   2.92537
    R6        2.86432   0.00426   0.00000   0.01337   0.01337   2.87769
    R7        2.06416  -0.00127   0.00000  -0.00399  -0.00399   2.06016
    R8        2.32278  -0.00566   0.00000  -0.00493  -0.00493   2.31785
    R9        2.57086   0.00520   0.00000  -0.00568  -0.00568   2.56518
   R10        2.85692   0.01008   0.00000   0.02472   0.02472   2.88164
   R11        2.02640   0.00277   0.00000   0.02712   0.02712   2.05352
   R12        2.07039   0.00081   0.00000   0.00064   0.00064   2.07103
   R13        2.56618   0.00124   0.00000  -0.00450  -0.00450   2.56168
   R14        2.31022   0.01226   0.00000   0.01406   0.01406   2.32428
   R15        1.89702   0.00618   0.00000   0.01202   0.01202   1.90904
[...]
 00740,0.00004529,0.00003534,-0.00003210,-0.00002345,0.00000217,0.00001
 734,-0.00005888,-0.00002944,0.00001145,0.00002085,0.00001011,0.0000062
 8,-0.00000765,0.00000827,0.00000225,-0.00000428,0.00000216,0.00000515,
 0.00000492,-0.00000267,-0.00000498,0.00001325,-0.00000320,-0.00000378,
 0.00000905,-0.00000075,-0.00000188,-0.00024328,-0.00012778,-0.00005556
 ,0.00009120,0.00001384,0.00007098,0.00006205,-0.00011060,0.00056209,0.
 00005265,0.00013760,-0.00044660,0.00007844,-0.00004976,0.00005245,-0.0
 0032507,-0.00083765,-0.00087670,0.00131690,0.00230263,0.00097844,0.000
 90664,0.00190295,-0.00306591,0.00768105,-0.01133188,0.00306669,-0.1061
 6344,0.03650988,-0.05402120,0.00009522,0.00419964,0.00364557,-0.000054
 63,-0.00002947,-0.00026486,0.00004195,0.00002927,0.00004696,-0.0000062
 9,0.00000494,-0.00003136,-0.00009380,-0.00000794,0.00001053,0.00006232
 ,0.00002044,0.00002922,-0.00018354,-0.00018972,0.00044339,0.00003469,0
 .00009813,-0.00012885,-0.00036496,0.00015743,-0.00020807,0.00071336,-0
 .00053799,-0.00269854,-0.00001862,-0.00039012,-0.00004697,-0.01895607,
 -0.00582063,-0.00423474,0.11550757,-0.02608729,0.05705483,-0.00011509,
 -0.00011476,0.00006146,0.00006890,0.00002657,0.00005554,0.00003255,-0.
 00003239,0.00002046,-0.00006404,0.00002633,-0.00001758,-0.00001099,0.0
 0002326,-0.00003020,0.00004682,0.00000465,0.00007246,-0.00002741,-0.00
 001970,-0.00002524,-0.00005057,-0.00000405,-0.00005590,0.00016186,0.00
 022367,-0.00016387,-0.00001433,0.00000037,-0.00000880,0.00003901,0.000
 00634,0.00003327,0.00000489,-0.00002165,0.00001776,0.00000995,0.000005
 84,-0.00000552,0.00002821,-0.00001575,0.00001324,-0.00000672,0.0000274
 2,0.00000874,0.00001148,-0.00000191,-0.00001640,-0.00010741,0.00001201
 ,-0.00012746,0.00016163,-0.00005594,0.00010418,0.00002689,-0.00019099,
 0.00044473,0.00008226,0.00022710,-0.00028967,-0.00016846,-0.00007285,0
 .00001514,0.00007160,0.00002351,-0.00004374,-0.00001482,0.00001820,0.0
 0000522,-0.00017620,-0.00006345,-0.00000681,0.00001081,0.00002067,-0.0
 0001356,0.00005263,0.00001575,-0.00005487,-0.00001243,0.00003844,0.000
 00321,0.00015934,0.00008601,0.00006724,-0.00002010,0.00000537,-0.00003
 123,0.00005336,-0.00003812,0.00006981,-0.00000887,0.00000851,-0.000004
 16,0.00001162,-0.00000175,0.00000247,0.00008043,-0.00005381,0.00004152
 ,0.00000599,0.00000786,0.00000421,-0.00000066,-0.00000321,0.00001698,0
 .00001216,0.00001292,0.00000826,-0.00004758,0.00000478,-0.00029164,0.0
 0002277,-0.00009250,0.00007182,0.00021999,0.00015018,-0.00008942,-0.00
 009394,-0.00004771,0.00003480,-0.00001562,0.00001472,-0.00001895,0.000
 00333,-0.00001239,0.00002717,-0.00000918,0.00000515,-0.00001896,-0.000
 02229,0.00002205,-0.00003047,0.00001866,0.00000303,0.00001984,-0.00000
 978,0.00001080,-0.00000282,-0.00000714,0.00000302,0.00001329,0.0000052
 8,-0.00000223,-0.00001317,0.00000662,-0.00000336,0.00000291,0.00000601
 ,-0.00000376,0.00000188,-0.00015627,-0.00006202,0.00013109,0.00041304,
 0.00004523,0.00000730,-0.00070728,0.00154654,-0.00109029,-0.00241422,-
 0.00080900,0.00359749,-0.00009884,-0.00002221,0.00014872,-0.00038162,-
 0.00016467,-0.00024135,0.00052724,0.00109663,-0.00012421,-0.00358350,-
 0.00487085,-0.00343516,-0.00376723,0.02432975,-0.02803773,0.00060299,0
 .00042433,0.00215531,-0.08379959,0.02274966,-0.06630808,-0.00001756,-0
 .00084091,0.00009351,0.00005457,-0.00006875,-0.00004333,0.00001065,0.0
 0001564,0.00005344,0.00006441,0.00004148,0.00001706,0.00000253,-0.0000
 1880,-0.00002027,-0.00001146,0.00001197,0.00000916,0.00010443,0.000058
 65,-0.00011579,-0.00006318,0.00002653,-0.00012308,0.00001396,-0.000059
 82,-0.00000414,-0.00036539,-0.00022838,0.00024398,-0.00071364,-0.00221
 146,-0.00107566,-0.00016374,0.00028856,0.00048639,0.07625728,-0.000036
 71,-0.00011097,-0.00001431,0.00004024,0.00003285,0.00005382,0.00000583
 ,0.00007476,0.00000047,-0.00001756,-0.00003913,-0.00001775,-0.00000983
 ,-0.00001072,0.00000140,0.00001858,0.00002168,0.00013294,0.00004009,-0
 .00001135,-0.00008934,-0.00002641,-0.00000719,-0.00010042,0.00006800,0
 .00013421,-0.00005306,-0.00000762,-0.00000361,-0.00001205,0.00001124,0
 .00001049,0.00003811,0.00000514,-0.00001210,0.00001097,-0.00001522,-0.
 00001708,0.00000772,-0.00001411,-0.00002765,0.00002317,-0.00001452,0.0
 0004457,0.00003176,-0.00001768,0.00005660,0.00003279,-0.00004695,-0.00
 012195,-0.00008782,0.00001942,-0.00001369,0.00006533,0.00005716,0.0002
 5747,-0.00007818,-0.00009997,-0.00021175,0.00003581,-0.00001195,-0.000
 00483,0.00001975,0.00002987,0.00016275,0.00005011,0.00002020,-0.000039
 41,-0.00003762,-0.00019685,-0.00022396,-0.00000220,0.00001465,0.000024
 69,-0.00001142,0.00004320,0.00004628,-0.00000750,0.00000108,-0.0000077
 8,-0.00001328,0.00007289,0.00007963,0.00007788,-0.00000067,-0.00000266
 ,-0.00001012,0.00000300,0.00005953,0.00003814,0.00002215,0.00000253,-0
 .00001369,0.00002889,0.00001277,-0.00000526,-0.00002371,0.00003820,0.0
 0005654,0.00001008,0.00000274,-0.00000355,-0.00000499,-0.00004882,-0.0
 0002082,0.00000932,0.00001353,0.00000254,-0.00003992,-0.00006953,0.000
 04032,0.00001460,0.00001991,-0.00000999,0.00010765,0.00016377,-0.00005
 700,-0.00000859,-0.00015103,0.00001556,-0.00000899,-0.00000788,-0.0000
 0043,0.00003765,0.00004202,-0.00005946,-0.00000659,-0.00000582,0.00003
 613,-0.00003694,-0.00004588,0.00003972,0.00002133,0.00001231,-0.000022
 70,-0.00000350,0.00000200,0.00000950,-0.00000046,0.00000238,-0.0000001
 4,0.00000193,-0.00000163,0.00000237,0.00000062,0.00000184,-0.00000593,
 0.00000111,0.00000365,-0.00000251,-0.00006702,-0.00007082,0.00002599,0
 .00014512,-0.00005269,0.00003343,-0.00075756,0.00106500,-0.00047897,-0
 .00047536,-0.00062153,0.00152428,-0.00003750,0.00007753,0.00003375,0.0
 0018552,-0.00001294,0.00029196,-0.00139272,0.00058329,0.00084494,-0.00
 266774,0.00405039,0.00075787,-0.00093022,0.00183753,-0.01285435,0.0006
 5847,-0.00109665,-0.00197750,0.02998674,-0.13701438,0.20885645,0.00021
 382,-0.00064617,-0.00007308,0.00002638,0.00001651,-0.00005569,0.000010
 14,-0.00000110,0.00004876,0.00002975,0.00001768,-0.00001029,-0.0000258
 3,-0.00000371,0.00000025,-0.00000895,-0.00001940,-0.00000359,-0.000050
 76,-0.00003694,0.00005613,-0.00024607,-0.00010862,-0.00044357,0.000086
 72,0.00003495,-0.00007768,-0.00003089,-0.00028785,-0.00069383,-0.00183
 831,-0.00040268,-0.00017253,0.00041565,-0.00009950,-0.00014560,-0.0302
 8676,0.13835321,-0.00004750,-0.00010564,-0.00000871,0.00004443,0.00002
 680,0.00004877,0.00003873,0.00007487,-0.00001233,-0.00004671,-0.000037
 26,-0.00000290,-0.00000408,-0.00000523,-0.00000519,0.00002267,0.000047
 93,0.00012457,0.00001597,-0.00003735,-0.00007943,-0.00003399,-0.000025
 01,-0.00008630,0.00007786,0.00013069,-0.00004512,-0.00000764,-0.000001
 85,-0.00000810,0.00001566,0.00000820,0.00002502,0.00000405,-0.00001044
 ,0.00000859,-0.00000614,-0.00000183,0.00000678,-0.00000186,-0.00001119
 ,0.00002030,-0.00000591,0.00004703,0.00002235,-0.00000521,0.00004979,0
 .00001994,-0.00004918,-0.00009380,-0.00006764,0.00000800,-0.00001407,0
 .00004599,0.00005327,0.00017960,-0.00006990,-0.00012484,-0.00012964,0.
 00002673,0.00004644,0.00003522,-0.00001168,-0.00001308,0.00008515,0.00
 004124,0.00001090,-0.00002927,-0.00003040,-0.00007508,-0.00008580,-0.0
 0004489,0.00000559,0.00001362,-0.00000932,-0.00001300,0.00002628,0.000
 00303,-0.00000108,-0.00001195,-0.00001763,0.00006012,0.00005675,0.0000
 4669,0.00000147,-0.00000370,0.00000183,0.00000829,0.00002481,0.0000418
 1,-0.00001449,-0.00001027,0.00000463,0.00001844,0.00000578,0.00000212,
 -0.00000583,0.00001276,0.00007581,0.00000590,-0.00000265,-0.00000057,0
 .00000803,-0.00003683,-0.00000457,0.00000443,0.00000006,0.00000482,-0.
 00005358,-0.00003896,0.00003016,0.00001986,0.00000132,0.00000236,0.000
 13982,0.00017983,-0.00007179,-0.00003737,-0.00014002,0.00003219,-0.000
 00720,-0.00000532,-0.00000786,0.00004603,0.00003048,-0.00008669,-0.000
 01684,0.00000871,0.00005301,-0.00005572,-0.00003131,0.00005501,0.00003
 068,0.00000050,-0.00002112,-0.00000470,0.00000315,0.00000522,-0.000003
 42,0.00000438,0.00000301,0.00000466,-0.00000204,0.00000090,0.00000689,
 -0.00000468,-0.00000626,0.00000691,0.00000032,-0.00000489,-0.00017955,
 -0.00007705,0.00002481,0.00002961,-0.00005199,-0.00001736,0.00000702,-
 0.00018711,0.00000338,0.00066377,-0.00003556,-0.00076889,0.00007415,0.
 00007006,-0.00008485,0.00036114,0.00017221,0.00020916,-0.00194290,0.00
 091399,0.00131936,-0.00124946,-0.00087274,0.00256680,-0.00311786,0.007
 62903,-0.01437486,0.00391759,-0.00024699,-0.00074308,-0.06965448,0.187
 96224,-0.31326321,-0.00008731,-0.00010672,0.00016741,0.00003568,0.0000
 3440,-0.00002186,-0.00000657,-0.00000521,0.00000102,-0.00002845,-0.000
 02580,0.00002358,0.00000645,-0.00003268,-0.00000763,-0.00001360,-0.000
 03074,-0.00000162,-0.00005405,-0.00006270,0.00015260,-0.00014755,-0.00
 018197,-0.00043614,0.00006798,-0.00001151,0.00003792,0.00079632,-0.000
 27041,-0.00055742,-0.00124372,-0.00069867,0.00112048,0.00040819,-0.000
 06965,-0.00033922,0.07842046,-0.19765781,0.33197573,0.00027377,0.00060
 799,-0.00030130,-0.00013794,-0.00010153,-0.00011533,-0.00033611,-0.001
 02053,0.00048655,0.00049897,0.00036950,-0.00030205,-0.00004484,0.00009
 130,0.00001324,0.00020823,-0.00042922,-0.00028718,-0.00014192,0.000212
 98,0.00025119,-0.00012450,0.00026569,0.00016226,-0.00050306,-0.0009386
 4,0.00070268,0.00003215,0.00001401,0.00002479,-0.00000828,-0.00006355,
 -0.00009632,-0.00000470,0.00001911,0.00000199,0.00005355,-0.00000982,-
 0.00002110,0.00005080,-0.00003403,-0.00003659,0.00013225,-0.00023691,-
 0.00006158,0.00004906,-0.00015580,0.00004546,0.00033001,0.00090999,-0.
 00001372,-0.00011662,0.00012165,-0.00010985,-0.00038265,-0.00003271,0.
 00061797,0.00040261,-0.00003578,-0.00029590,-0.00047111,-0.00050943,0.
 00025982,0.00016424,-0.00017626,-0.00015981,-0.00006471,0.00010521,0.0
 0009829,-0.00012675,0.00001299,0.00023643,0.00000154,0.00000006,0.0000
 1489,0.00014899,-0.00004863,-0.00009545,-0.00000132,0.00009292,0.00001
 850,-0.00070912,-0.00093616,0.00014478,0.00002186,-0.00000624,-0.00005
 420,-0.00025286,0.00023692,-0.00040297,0.00018838,0.00012936,-0.000024
 93,-0.00003512,-0.00001403,-0.00002214,0.00012947,-0.00002394,-0.00028
 830,0.00000349,0.00002983,0.00000341,-0.00002459,0.00005689,0.00004106
 ,0.00000763,0.00003867,0.00000434,0.00026503,-0.00010212,-0.00030902,-
 0.00012249,-0.00001923,0.00011676,-0.00077423,-0.00079750,0.00044717,0
 .00014507,0.00058392,-0.00032069,-0.00002691,-0.00000819,0.00008183,-0
 .00002386,0.00013494,0.00046491,-0.00001086,-0.00012041,-0.00029562,0.
 00006432,-0.00011306,-0.00030491,-0.00007658,0.00014513,0.00012289,0.0
 0001079,0.00000239,0.00001359,0.00001865,-0.00003500,-0.00002388,-0.00
 002149,-0.00000078,-0.00001816,0.00000967,0.00003551,0.00001584,-0.000
 01158,0.00000639,0.00003999,0.00015701,0.00012973,-0.00076734,-0.00119
 693,0.00237097,-0.00084275,0.01036431,-0.01624896,0.00151186,-0.008808
 65,0.00970876,-0.01126968,0.00060485,0.00023376,-0.00059183,0.00087533
 ,0.00036254,-0.00017187,-0.00114634,-0.00082880,-0.00199080,0.00268082
 ,-0.00383754,0.00681443,-0.03354849,-0.00909158,0.00258823,0.00247077,
 0.00330956,-0.00012940,-0.23365138,-0.08191328,0.11286507,-0.00483023,
 0.00677859,0.00174780,-0.00010179,0.00038565,0.00064088,-0.00021253,-0
 .00021338,-0.00103944,-0.00039905,-0.00025913,0.00001690,0.00018713,0.
 00000790,0.00013150,0.00002027,-0.00007218,0.00009380,-0.00027783,-0.0
 0010534,0.00032189,0.00037189,0.00014468,0.00066048,0.00016204,0.00007
 837,0.00017605,0.00068699,0.00321155,-0.00231164,-0.00031464,-0.000732
 42,0.00016206,0.00035789,-0.00071493,-0.00076070,0.01778104,0.00700118
 ,-0.00713348,0.24911123,0.00029703,0.00036586,-0.00029446,-0.00007905,
 0.00000147,-0.00004179,-0.00022587,-0.00038550,0.00025040,0.00032213,0
 .00010340,-0.00017723,-0.00004926,0.00000543,0.00006441,0.00014479,-0.
 00029720,-0.00005665,-0.00001097,0.00015470,0.00005882,-0.00008671,0.0
 0017850,-0.00001018,-0.00052328,-0.00072654,0.00050552,0.00002698,-0.0
 0000238,-0.00000202,-0.00006207,-0.00006753,-0.00003103,0.00000632,0.0
 0002378,-0.00000647,0.00000797,-0.00003960,-0.00000067,-0.00001578,-0.
 00005346,-0.00000823,0.00007353,-0.00009986,0.00001349,-0.00002162,0.0
 0004754,0.00013511,0.00020211,0.00018393,-0.00007427,-0.00019391,0.000
 14300,-0.00008545,-0.00012199,0.00058358,-0.00027328,-0.00014461,-0.00
 050706,0.00018272,0.00002098,-0.00010061,0.00006090,0.00000271,0.00016
 583,0.00007996,0.00000206,-0.00004377,-0.00003190,-0.00021419,-0.00036
 276,0.00028269,0.00000491,0.00002234,0.00001605,0.00016286,-0.00001449
 ,-0.00005558,0.00001291,0.00001593,-0.00001819,-0.00053856,-0.00034331
 ,0.00025346,0.00004346,-0.00002342,0.00000257,-0.00006039,0.00024368,-
 0.00007551,0.00008547,0.00002519,-0.00001040,0.00001794,0.00001703,-0.
 00002034,-0.00010236,0.00017145,-0.00035461,0.00001070,0.00001028,-0.0
 0000686,-0.00001923,-0.00002746,-0.00002658,0.00001149,0.00003532,-0.0
 0000343,0.00011637,-0.00015943,0.00015984,-0.00005551,0.00008799,0.000
 00694,-0.00038364,-0.00019582,0.00019854,0.00012143,0.00004992,-0.0001
 9289,-0.00001593,-0.00003085,0.00005526,0.00004839,0.00013887,0.000135
 59,-0.00001843,-0.00006992,-0.00008971,-0.00001823,-0.00013221,-0.0000
 7741,-0.00001224,0.00008033,0.00001534,0.00000393,-0.00000068,0.000025
 23,0.00001309,-0.00001670,-0.00002165,-0.00001159,-0.00000032,0.000004
 68,0.00000672,0.00001915,-0.00000110,-0.00000477,0.00000922,0.00001702
 ,0.00002948,-0.00010166,-0.00055561,-0.00022151,0.00051497,-0.00024204
 ,0.00149040,-0.00312400,0.00836511,0.00249867,-0.00580869,-0.01046716,
 0.00031819,0.00025387,-0.00035181,0.00046566,0.00040533,-0.00018124,-0
 .00084427,-0.00046678,-0.00101159,0.00426012,-0.00545083,0.00444375,-0
 .02067686,-0.00591960,-0.01007318,0.00014016,0.00616769,0.00063807,-0.
 05872516,-0.05357560,0.07157062,-0.00065970,0.00169913,-0.00243432,-0.
 00006276,0.00034129,0.00033554,-0.00007022,-0.00005485,-0.00029675,-0.
 00022668,-0.00018196,0.00004387,0.00012217,-0.00010432,0.00001088,0.00
 005269,-0.00007285,0.00007865,-0.00013273,-0.00009638,0.00020210,0.000
 26632,0.00008794,0.00048459,-0.00008098,-0.00009958,0.00015008,0.00330
 722,0.00118325,0.00124691,0.00043900,-0.00008885,0.00021261,-0.0013321
 1,-0.00029831,0.00019861,-0.01117357,-0.00568789,0.00366541,0.08204042
 ,0.07129585,-0.00081413,-0.00132208,0.00062773,0.00046696,0.00025366,0
 .00040041,0.00048158,0.00097671,-0.00046537,-0.00071393,-0.00032587,0.
 00024363,-0.00002692,-0.00005812,-0.00010631,-0.00005256,0.00051788,0.
 00070635,0.00012976,-0.00030827,-0.00046970,-0.00004773,-0.00033700,-0
 .00048290,0.00127474,0.00216157,-0.00155195,-0.00010301,-0.00002031,-0
 .00008658,0.00013268,0.00008310,0.00028365,0.00002380,-0.00009856,0.00
 004690,-0.00005484,0.00001133,0.00002070,-0.00000282,-0.00003114,0.000
 09470,-0.00020111,0.00042836,0.00014797,-0.00004066,0.00021144,-0.0000
 7794,-0.00081234,-0.00106941,-0.00046648,0.00053932,-0.00030432,0.0005
 3754,0.00058225,-0.00005707,0.00048830,-0.00030808,0.00027423,-0.00037
 520,-0.00016109,0.00002491,0.00003213,0.00009919,0.00038487,0.00009056
 ,0.00000763,-0.00007756,-0.00014294,-0.00053099,-0.00051119,0.00002325
 ,0.00005148,0.00009294,-0.00005105,0.00009281,0.00011470,-0.00005004,-
 0.00003288,0.00003488,-0.00003243,0.00115907,0.00111670,0.00047459,-0.
 00007874,0.00001348,-0.00006172,0.00009363,-0.00001972,0.00031699,-0.0
 0004002,-0.00002634,-0.00006247,0.00009767,0.00002181,0.00002212,-0.00
 003779,0.00003596,-0.00001161,0.00002123,-0.00000542,0.00001076,0.0000
 1174,-0.00008680,-0.00001821,0.00003309,0.00001114,0.00001349,-0.00050
 877,0.00001411,-0.00037343,0.00022362,-0.00020906,0.00005315,0.0016786
 9,0.00161651,-0.00085777,-0.00043530,-0.00101312,0.00050025,-0.0000265
 4,0.00003826,-0.00014810,0.00009737,-0.00013472,-0.00057157,-0.0000266
 4,0.00015221,0.00035521,-0.00019963,0.00013224,0.00033861,0.00016768,-
 0.00014230,-0.00012546,-0.00004724,0.00003221,-0.00000653,-0.00004278,
 0.00005365,0.00006448,0.00004392,-0.00000784,-0.00001228,0.00000910,-0
 .00005281,-0.00002064,0.00003351,-0.00001385,-0.00004667,-0.00083638,-
 0.00052190,0.00139988,0.00267379,-0.00088306,0.00016963,-0.01246169,0.
 02392074,-0.01252292,-0.00078237,-0.01298983,0.01342946,-0.00082962,-0
 .00010707,0.00115627,-0.00112450,-0.00046404,0.00014142,0.00145617,0.0
 0058326,0.00088702,-0.00144511,0.00316374,-0.00734901,-0.00615140,-0.0
 1382646,0.02947688,-0.00905261,-0.00188738,-0.00411542,0.11119371,0.07
 816304,-0.15201145,0.00461249,-0.01194366,-0.00150678,0.00031850,-0.00
 060604,-0.00086886,0.00016518,0.00016563,0.00091421,0.00061392,0.00034
 086,0.00010225,-0.00020677,-0.00018335,-0.00020964,-0.00006215,0.00009
 418,-0.00017599,0.00035063,0.00015890,-0.00033420,-0.00009307,-0.00012
 528,-0.00035835,-0.00010129,0.00002782,-0.00003854,-0.00409623,-0.0008
 8813,0.00179628,0.00014364,0.00112567,-0.00006222,-0.00067718,-0.00146
 832,0.00043205,0.01537802,0.00208439,-0.00703572,-0.10119166,-0.066509
 74,0.13746561\\0.00001257,0.00000673,-0.00001589,-0.00000626,0.0000063
 7,0.00000370,0.00000791,0.00000280,-0.00000926,-0.00000294,-0.00000987
 ,-0.00000400,0.00000499,-0.00000126,-0.00000610,-0.00000222,-0.0000021
 4,0.00000394,-0.00000019,0.00000125,-0.00000132,-0.00000021,0.00000013
 ,-0.00000317,-0.00000640,-0.00000404,-0.00000339,0.00000258,-0.0000053
 6,0.00000030,-0.00000552,0.00000249,0.00000299,-0.00000173,0.00000090,
 -0.00000058,-0.00000038,-0.00000053,-0.00000094,-0.00000279,0.00000005
 ,-0.00000101,0.00000085,0.00000283,0.00000409,-0.00000831,0.00000070,0
 .00000663,-0.00000805,0.00001221,0.00001144,0.00000041,0.00000071,-0.0
 0000066,-0.00001420,0.00001331,-0.00000539,0.00000239,-0.00000030,0.00
 000176,-0.00000683,-0.00000092,-0.00000302,-0.00000203,-0.00000021,0.0
 0000546,0.00000030,0.00000270,0.00000067,0.00000024,0.00000129,-0.0000
 0306,0.00000437,-0.00000199,-0.00000005,-0.00000041,0.00000195,-0.0000
 0036,-0.00000093,-0.00000142,0.00000351,0.00000884,-0.00001403,-0.0000
 0156,0.00000261,-0.00000106,0.00000530,0.00000063,0.00000019,0.0000001
 9,0.00000047,0.00000080,0.00000002,0.00000014,0.,-0.00000087,0.0000012
 5,-0.00000029,0.00000105,-0.00000032,0.00000068,-0.00000065,-0.0000000
 9,0.00000022,-0.00000014,0.00000041,0.00000095,0.00000027,0.00001720,-
 0.00000773,-0.00000377,0.00000040,0.00000561,-0.00000967,-0.00000432,-
 0.00001701,0.00001746,0.00000304,0.00000678,-0.00000912,-0.00000284,0.
 00000169,0.00000011,-0.00000426,0.00000367,0.00000219,-0.00000084,-0.0
 0000148,-0.00000018,0.00000088,-0.00000804,-0.00000338,-0.00000087,0.0
 0000043,0.00000227,-0.00000188,-0.00000062,0.00000312,0.00000079,-0.00
 000065,0.00000025,-0.00000011,-0.00000006,-0.00000001,0.00000052,-0.00
 000102,-0.00000011,0.00000051,0.00000060,0.00000006,-0.00000643,0.0000
 1363,-0.00000133,0.00000652,-0.00000220,-0.00000285,-0.00000570,-0.000
 00136,0.00000047,0.00000337,-0.00000146,0.00001526,0.00000090,-0.00000
 101,-0.00000007,-0.00000190,0.00000124,0.00000040,0.00000922,-0.000001
 46,-0.00000167,-0.00000827,-0.00000486,0.00000763,-0.00000398,0.000005
 20,-0.00000954,-0.00000203,0.00000103,0.00000689,0.00001395,-0.0000060
 5,-0.00000509,-0.00000167,-0.00000010,0.00000058,0.00000286,0.00000443
 ,-0.00000500,0.00000289,0.00000052,0.00000024,0.00000015,-0.00000093,0
 .00000052,0.00000033,-0.00000039,0.00000164,0.00000011,-0.00000072,0.0
 0000121,0.00000091,-0.00000064,-0.00000066,0.00000059,0.00000075,0.000
 00142,-0.00000154,-0.00000012,0.00000052,0.00000031,-0.00000022,0.0000
 0047,0.00000143,-0.00000225,-0.00000036,0.00000017,-0.00000107,-0.0000
 0186,-0.00000066,-0.00000136,0.00000201,-0.00000091,0.00000144,0.00000
 008\\\@
 The archive entry for this job was punched.


 When cryptography is outlawed, bayl bhgynjf jvyy unir cevinpl.
 Job cpu time:       0 days  7 hours  7 minutes  3.9 seconds.
 Elapsed time:       0 days  0 hours 53 minutes 27.1 seconds.
 File lengths (MBytes):  RWF=   3960 Int=      0 D2E=      0 Chk=     48 Scr=     16
 Normal termination of Gaussian 16 at Tue May 31 21:48:38 2022.
