 Entering Gaussian System, Link 0=/opt/software/Gaussian/g16-AVX2-C.01/g16/g16
 Input=opt_freq-conf-883.com
 Output=opt_freq-conf-883.log
 Initial command:
 /opt/software/Gaussian/g16-AVX2-C.01/g16/l1.exe "/mnt/gs18/scratch/users/kengmith/Gau-125132.inp" -scrdir="/mnt/gs18/scratch/users/kengmith/"
 Entering Link 1 = /opt/software/Gaussian/g16-AVX2-C.01/g16/l1.exe PID=    125153.
  
 Copyright (c) 1988-2019, Gaussian, Inc.  All Rights Reserved.
  
 This is part of the Gaussian(R) 16 program.  It is based on
 the Gaussian(R) 09 system (copyright 2009, Gaussian, Inc.),
 the Gaussian(R) 03 system (copyright 2003, Gaussian, Inc.),
 the Gaussian(R) 98 system (copyright 1998, Gaussian, Inc.),
 the Gaussian(R) 94 system (copyright 1995, Gaussian, Inc.),
 the Gaussian 92(TM) system (copyright 1992, Gaussian, Inc.),
 the Gaussian 90(TM) system (copyright 1990, Gaussian, Inc.),
 the Gaussian 88(TM) system (copyright 1988, Gaussian, Inc.),
 the Gaussian 86(TM) system (copyright 1986, Carnegie Mellon
 University), and the Gaussian 82(TM) system (copyright 1983,
 Carnegie Mellon University). Gaussian is a federally registered
 trademark of Gaussian, Inc.
  
 This software contains proprietary and confidential information,
 including trade secrets, belonging to Gaussian, Inc.
  
 This software is provided under written license and may be
 used, copied, transmitted, or stored only in accord with that
 written license.
  
 The following legend is applicable only to US Government
 contracts under FAR:
  
                    RESTRICTED RIGHTS LEGEND
  
 Use, reproduction and disclosure by the US Government is
 subject to restrictions as set forth in subparagraphs (a)
 and (c) of the Commercial Computer Software - Restricted
 Rights clause in FAR 52.227-19.
  
 Gaussian, Inc.
 340 Quinnipiac St., Bldg. 40, Wallingford CT 06492
  
  
 ---------------------------------------------------------------
 Warning -- This program may not be used in any manner that
 competes with the business of Gaussian, Inc. or will provide
 assistance to any competitor of Gaussian, Inc.  The licensee
 of this program is prohibited from giving any competitor of
 Gaussian, Inc. access to this program.  By using this program,
 the user acknowledges that Gaussian, Inc. is engaged in the
 business of creating and licensing software in the field of
 computational chemistry and represents and warrants to the
 licensee that it is not a competitor of Gaussian, Inc. and that
 it will not use this program in any manner prohibited above.
 ---------------------------------------------------------------
  

 Cite this work as:
 Gaussian 16, Revision C.01,
 M. J. Frisch, G. W. Trucks, H. B. Schlegel, G. E. Scuseria, 
 M. A. Robb, J. R. Cheeseman, G. Scalmani, V. Barone, 
 G. A. Petersson, H. Nakatsuji, X. Li, M. Caricato, A. V. Marenich, 
 J. Bloino, B. G. Janesko, R. Gomperts, B. Mennucci, H. P. Hratchian, 
 J. V. Ortiz, A. F. Izmaylov, J. L. Sonnenberg, D. Williams-Young, 
 F. Ding, F. Lipparini, F. Egidi, J. Goings, B. Peng, A. Petrone, 
 T. Henderson, D. Ranasinghe, V. G. Zakrzewski, J. Gao, N. Rega, 
 G. Zheng, W. Liang, M. Hada, M. Ehara, K. Toyota, R. Fukuda, 
 J. Hasegawa, M. Ishida, T. Nakajima, Y. Honda, O. Kitao, H. Nakai, 
 T. Vreven, K. Throssell, J. A. Montgomery, Jr., J. E. Peralta, 
 F. Ogliaro, M. J. Bearpark, J. J. Heyd, E. N. Brothers, K. N. Kudin, 
 V. N. Staroverov, T. A. Keith, R. Kobayashi, J. Normand, 
 K. Raghavachari, A. P. Rendell, J. C. Burant, S. S. Iyengar, 
 J. Tomasi, M. Cossi, J. M. Millam, M. Klene, C. Adamo, R. Cammi, 
 J. W. Ochterski, R. L. Martin, K. Morokuma, O. Farkas, 
 J. B. Foresman, and D. J. Fox, Gaussian, Inc., Wallingford CT, 2019.
 
 ******************************************
 Gaussian 16:  ES64L-G16RevC.01  3-Jul-2019
                31-May-2022 
 ******************************************
 %mem=12gb
 %nproc=8
 Will use up to    8 processors via shared memory.
 %chk=conf-883.chk
 ----------------------------------------------------------------------
 # B3LYP/6-31G* empiricaldispersion=gd3 opt=calcfc freq=noraman nosymm 
 integral(ultrafinegrid)
 ----------------------------------------------------------------------
 1/10=4,18=20,19=15,26=4,38=1/1,3;
 2/9=110,12=2,15=1,17=6,18=5,40=1/2;
 3/5=1,6=6,7=1,11=2,25=1,30=1,71=2,74=-5,75=-5,124=31,140=1/1,2,3;
 4//1;
 5/5=2,38=5/2;
 8/6=4,10=90,11=11/1;
 11/6=1,8=1,9=11,15=111,16=1,31=1/1,2,10;
 10/6=1,13=1,31=1/2;
 6/7=2,8=2,9=2,10=2,28=1/1;
 7/10=1,25=1,30=1/1,2,3,16;
 1/10=4,18=20,19=15,26=4/3(2);
 2/9=110,15=1/2;
 99//99;
 2/9=110,15=1/2;
 3/5=1,6=6,7=1,11=2,25=1,30=1,71=1,74=-5,75=-5,124=31/1,2,3;
 4/5=5,16=3,69=1/1;
 5/5=2,38=5/2;
 7/30=1/1,2,3,16;
 1/18=20,19=15,26=4/3(-5);
 2/9=110,15=1/2;
 6/7=2,8=2,9=2,10=2,19=2,28=1/1;
 99/9=1/99;
 ------------------------------------------------------------
 Candidate Structure: Conf:883 OPT and FREQ calc in gas phase
 ------------------------------------------------------------
 Symbolic Z-matrix:
 Charge =  1 Multiplicity = 1
 N                    -9.33765  -2.40266  -9.50082 
 C                    -9.74422  -3.04218  -8.24403 
 C                    -9.24491  -2.25812  -7.04036 
 O                    -10.04058  -1.7852   -6.23732 
 C                    -9.2461   -4.47787  -8.17467 
 C                    -9.87536  -5.37058  -9.229 
 N                    -9.92618  -6.68333  -8.89982 
 O                    -10.27865  -4.93781  -10.29603 
 H                    -9.75015  -2.95387  -10.2618 
 H                    -10.83346  -3.02874  -8.16093 
 H                    -8.16576  -4.50499  -8.32283 
 H                    -9.43122  -4.87899  -7.17784 
 H                    -10.30102  -7.33061  -9.5712 
 H                    -9.54219  -7.01378  -8.03102 
 H                    -9.64833  -1.42946  -9.5574 
 H                    -8.31564  -2.44196  -9.58148 
 N                    -7.89848  -2.10079  -6.91411 
 C                    -7.35628  -1.72543  -5.63008 
 C                    -6.49032  -0.45473  -5.63727 
 O                    -5.48943  -0.37472  -4.93346 
 C                    -6.59056  -2.89528  -4.98611 
 C                    -7.32046  -4.20825  -5.05384 
 C                    -8.49292  -4.41259  -4.33164 
 C                    -6.8589   -5.23152  -5.87542 
 C                    -9.18428  -5.61989  -4.41182 
 C                    -7.53534  -6.44348  -5.94893 
 C                    -8.69739  -6.64306  -5.21522 
 H                    -7.29847  -2.5252   -7.60535 
 H                    -8.2249   -1.47776  -5.01961 
 H                    -5.62579  -3.00037  -5.49084 
 H                    -6.37715  -2.61727  -3.95462 
 H                    -8.8714   -3.60993  -3.70582 
 H                    -5.96694  -5.07433  -6.47474 
 H                    -10.10793  -5.74568  -3.86134 
 H                    -7.17187  -7.21986  -6.61779 
 H                    -9.24494  -7.5773   -5.30573 
 N                    -6.84485   0.58286  -6.43072 
 C                    -8.05202   0.81807  -7.18435 
 C                    -7.88914   0.47034  -8.67111 
 O                    -8.84941   0.56845  -9.43085 
 C                    -8.54776   2.26013  -7.04438 
 C                    -7.55121   3.3037   -7.51191 
 N                    -8.08039   4.45102  -7.99062 
 O                    -6.34394   3.12887  -7.41453 
 H                    -6.22172   1.36854  -6.36985 
 H                    -8.82899   0.16512  -6.78356 
 H                    -8.73428   2.45246  -5.98662 
 H                    -9.49115   2.37565  -7.57828 
 H                    -7.45417   5.17002  -8.30704 
 H                    -9.07186   4.58038  -8.06818 
 N                    -6.66551   0.04419  -9.04911 
 C                    -6.43132  -0.576    -10.33271 
 C                    -5.74759  -1.93779  -10.00997 
 O                    -4.52161  -2.034    -10.17355 
 C                    -5.71728   0.35086  -11.30501 
 C                    -4.27883   0.80452  -11.0415 
 C                    -4.00411   1.36307  -9.64759 
 N                    -3.67255   0.2503   -8.75476 
 C                    -3.62869   0.28448  -7.43235 
 N                    -3.82672   1.42398  -6.76327 
 N                    -3.30796  -0.83967  -6.75698 
 O                    -6.50347  -2.80273  -9.50481 
 H                    -6.02077  -0.18679  -8.32887 
 H                    -7.42579  -0.7635   -10.74277 
 H                    -5.75304  -0.12036  -12.29499 
 H                    -6.35942   1.23507  -11.37276 
 H                    -3.58047  -0.01481  -11.23219 
 H                    -4.0611    1.57768  -11.78649 
 H                    -3.16423   2.06029  -9.6719 
 H                    -4.87105   1.91456  -9.27391 
 H                    -3.63898  -0.65832  -9.21074 
 H                    -3.94376   1.35571  -5.76429 
 H                    -4.33651   2.17029  -7.2127 
 H                    -3.69856  -0.91251  -5.82781 
 H                    -3.29669  -1.69771  -7.2939 
 

 GradGradGradGradGradGradGradGradGradGradGradGradGradGradGradGradGradGrad
 Berny optimization.
 Initialization pass.
                           ----------------------------
                           !    Initial Parameters    !
                           ! (Angstroms and Degrees)  !
 --------------------------                            --------------------------
 ! Name  Definition              Value          Derivative Info.                !
 --------------------------------------------------------------------------------
 ! R1    R(1,2)                  1.4676         calculate D2E/DX2 analytically  !
 ! R2    R(1,9)                  1.0262         calculate D2E/DX2 analytically  !
 ! R3    R(1,15)                 1.0232         calculate D2E/DX2 analytically  !
 ! R4    R(1,16)                 1.0259         calculate D2E/DX2 analytically  !
 ! R5    R(2,3)                  1.5208         calculate D2E/DX2 analytically  !
 ! R6    R(2,5)                  1.5212         calculate D2E/DX2 analytically  !
 ! R7    R(2,10)                 1.0925         calculate D2E/DX2 analytically  !
 ! R8    R(3,4)                  1.2254         calculate D2E/DX2 analytically  !
 ! R9    R(3,17)                 1.3615         calculate D2E/DX2 analytically  !
 ! R10   R(5,6)                  1.5181         calculate D2E/DX2 analytically  !
 ! R11   R(5,11)                 1.0908         calculate D2E/DX2 analytically  !
 ! R12   R(5,12)                 1.0903         calculate D2E/DX2 analytically  !
 ! R13   R(6,7)                  1.3544         calculate D2E/DX2 analytically  !
 ! R14   R(6,8)                  1.22           calculate D2E/DX2 analytically  !
 ! R15   R(7,13)                 1.0051         calculate D2E/DX2 analytically  !
 ! R16   R(7,14)                 1.0057         calculate D2E/DX2 analytically  !
 ! R17   R(17,18)                1.4435         calculate D2E/DX2 analytically  !
 ! R18   R(17,28)                1.0089         calculate D2E/DX2 analytically  !
 ! R19   R(18,19)                1.5377         calculate D2E/DX2 analytically  !
 ! R20   R(18,21)                1.5393         calculate D2E/DX2 analytically  !
 ! R21   R(18,29)                1.0902         calculate D2E/DX2 analytically  !
 ! R22   R(19,20)                1.2262         calculate D2E/DX2 analytically  !
 ! R23   R(19,37)                1.3535         calculate D2E/DX2 analytically  !
 ! R24   R(21,22)                1.5037         calculate D2E/DX2 analytically  !
 ! R25   R(21,30)                1.0939         calculate D2E/DX2 analytically  !
 ! R26   R(21,31)                1.0894         calculate D2E/DX2 analytically  !
 ! R27   R(22,23)                1.3921         calculate D2E/DX2 analytically  !
 ! R28   R(22,24)                1.3911         calculate D2E/DX2 analytically  !
 ! R29   R(23,25)                1.3935         calculate D2E/DX2 analytically  !
 ! R30   R(23,32)                1.0859         calculate D2E/DX2 analytically  !
 ! R31   R(24,26)                1.3899         calculate D2E/DX2 analytically  !
 ! R32   R(24,33)                1.086          calculate D2E/DX2 analytically  !
 ! R33   R(25,27)                1.389          calculate D2E/DX2 analytically  !
 ! R34   R(25,34)                1.0826         calculate D2E/DX2 analytically  !
 ! R35   R(26,27)                1.3887         calculate D2E/DX2 analytically  !
 ! R36   R(26,35)                1.0873         calculate D2E/DX2 analytically  !
 ! R37   R(27,36)                1.0866         calculate D2E/DX2 analytically  !
 ! R38   R(37,38)                1.4424         calculate D2E/DX2 analytically  !
 ! R39   R(37,45)                1.0046         calculate D2E/DX2 analytically  !
 ! R40   R(38,39)                1.5355         calculate D2E/DX2 analytically  !
 ! R41   R(38,41)                1.5313         calculate D2E/DX2 analytically  !
 ! R42   R(38,46)                1.0912         calculate D2E/DX2 analytically  !
 ! R43   R(39,40)                1.2284         calculate D2E/DX2 analytically  !
 ! R44   R(39,51)                1.3497         calculate D2E/DX2 analytically  !
 ! R45   R(41,42)                1.5168         calculate D2E/DX2 analytically  !
 ! R46   R(41,47)                1.0912         calculate D2E/DX2 analytically  !
 ! R47   R(41,48)                1.0901         calculate D2E/DX2 analytically  !
 ! R48   R(42,43)                1.3511         calculate D2E/DX2 analytically  !
 ! R49   R(42,44)                1.2237         calculate D2E/DX2 analytically  !
 ! R50   R(43,49)                1.0046         calculate D2E/DX2 analytically  !
 ! R51   R(43,50)                1.0029         calculate D2E/DX2 analytically  !
 ! R52   R(51,52)                1.4447         calculate D2E/DX2 analytically  !
 ! R53   R(51,63)                0.9939         calculate D2E/DX2 analytically  !
 ! R54   R(52,53)                1.5576         calculate D2E/DX2 analytically  !
 ! R55   R(52,55)                1.5213         calculate D2E/DX2 analytically  !
 ! R56   R(52,64)                1.0919         calculate D2E/DX2 analytically  !
 ! R57   R(53,54)                1.2406         calculate D2E/DX2 analytically  !
 ! R58   R(53,62)                1.2549         calculate D2E/DX2 analytically  !
 ! R59   R(55,56)                1.5311         calculate D2E/DX2 analytically  !
 ! R60   R(55,65)                1.097          calculate D2E/DX2 analytically  !
 ! R61   R(55,66)                1.0949         calculate D2E/DX2 analytically  !
 ! R62   R(56,57)                1.5266         calculate D2E/DX2 analytically  !
 ! R63   R(56,67)                1.0933         calculate D2E/DX2 analytically  !
 ! R64   R(56,68)                1.0955         calculate D2E/DX2 analytically  !
 ! R65   R(57,58)                1.4647         calculate D2E/DX2 analytically  !
 ! R66   R(57,69)                1.0918         calculate D2E/DX2 analytically  !
 ! R67   R(57,70)                1.0933         calculate D2E/DX2 analytically  !
 ! R68   R(58,59)                1.3236         calculate D2E/DX2 analytically  !
 ! R69   R(58,71)                1.0172         calculate D2E/DX2 analytically  !
 ! R70   R(59,60)                1.3362         calculate D2E/DX2 analytically  !
 ! R71   R(59,61)                1.3501         calculate D2E/DX2 analytically  !
 ! R72   R(60,72)                1.0081         calculate D2E/DX2 analytically  !
 ! R73   R(60,73)                1.0094         calculate D2E/DX2 analytically  !
 ! R74   R(61,74)                1.0106         calculate D2E/DX2 analytically  !
 ! R75   R(61,75)                1.0122         calculate D2E/DX2 analytically  !
 ! A1    A(2,1,9)              106.8352         calculate D2E/DX2 analytically  !
 ! A2    A(2,1,15)             112.1929         calculate D2E/DX2 analytically  !
 ! A3    A(2,1,16)             109.063          calculate D2E/DX2 analytically  !
 ! A4    A(9,1,15)             110.3557         calculate D2E/DX2 analytically  !
 ! A5    A(9,1,16)             108.757          calculate D2E/DX2 analytically  !
 ! A6    A(15,1,16)            109.5464         calculate D2E/DX2 analytically  !
 ! A7    A(1,2,3)              111.2334         calculate D2E/DX2 analytically  !
 ! A8    A(1,2,5)              111.0751         calculate D2E/DX2 analytically  !
 ! A9    A(1,2,10)             109.6325         calculate D2E/DX2 analytically  !
 ! A10   A(3,2,5)              110.0582         calculate D2E/DX2 analytically  !
 ! A11   A(3,2,10)             105.1169         calculate D2E/DX2 analytically  !
 ! A12   A(5,2,10)             109.5495         calculate D2E/DX2 analytically  !
 ! A13   A(2,3,4)              120.2953         calculate D2E/DX2 analytically  !
 ! A14   A(2,3,17)             117.2362         calculate D2E/DX2 analytically  !
 ! A15   A(4,3,17)             122.4646         calculate D2E/DX2 analytically  !
 ! A16   A(2,5,6)              112.805          calculate D2E/DX2 analytically  !
 ! A17   A(2,5,11)             109.9736         calculate D2E/DX2 analytically  !
 ! A18   A(2,5,12)             109.4686         calculate D2E/DX2 analytically  !
 ! A19   A(6,5,11)             107.553          calculate D2E/DX2 analytically  !
 ! A20   A(6,5,12)             110.3802         calculate D2E/DX2 analytically  !
 ! A21   A(11,5,12)            106.4497         calculate D2E/DX2 analytically  !
 ! A22   A(5,6,7)              114.6294         calculate D2E/DX2 analytically  !
 ! A23   A(5,6,8)              122.4015         calculate D2E/DX2 analytically  !
 ! A24   A(7,6,8)              122.9557         calculate D2E/DX2 analytically  !
 ! A25   A(6,7,13)             118.4148         calculate D2E/DX2 analytically  !
 ! A26   A(6,7,14)             120.9387         calculate D2E/DX2 analytically  !
 ! A27   A(13,7,14)            120.5196         calculate D2E/DX2 analytically  !
 ! A28   A(3,17,18)            118.9476         calculate D2E/DX2 analytically  !
 ! A29   A(3,17,28)            118.4238         calculate D2E/DX2 analytically  !
 ! A30   A(18,17,28)           119.6994         calculate D2E/DX2 analytically  !
 ! A31   A(17,18,19)           114.9768         calculate D2E/DX2 analytically  !
 ! A32   A(17,18,21)           111.1837         calculate D2E/DX2 analytically  !
 ! A33   A(17,18,29)           104.9464         calculate D2E/DX2 analytically  !
 ! A34   A(19,18,21)           110.4766         calculate D2E/DX2 analytically  !
 ! A35   A(19,18,29)           105.282          calculate D2E/DX2 analytically  !
 ! A36   A(21,18,29)           109.5562         calculate D2E/DX2 analytically  !
 ! A37   A(18,19,20)           120.7243         calculate D2E/DX2 analytically  !
 ! A38   A(18,19,37)           119.2566         calculate D2E/DX2 analytically  !
 ! A39   A(20,19,37)           120.0191         calculate D2E/DX2 analytically  !
 ! A40   A(18,21,22)           113.7822         calculate D2E/DX2 analytically  !
 ! A41   A(18,21,30)           108.5844         calculate D2E/DX2 analytically  !
 ! A42   A(18,21,31)           107.4339         calculate D2E/DX2 analytically  !
 ! A43   A(22,21,30)           108.8714         calculate D2E/DX2 analytically  !
 ! A44   A(22,21,31)           111.1338         calculate D2E/DX2 analytically  !
 ! A45   A(30,21,31)           106.7757         calculate D2E/DX2 analytically  !
 ! A46   A(21,22,23)           120.9041         calculate D2E/DX2 analytically  !
 ! A47   A(21,22,24)           120.5184         calculate D2E/DX2 analytically  !
 ! A48   A(23,22,24)           118.5462         calculate D2E/DX2 analytically  !
 ! A49   A(22,23,25)           121.0075         calculate D2E/DX2 analytically  !
 ! A50   A(22,23,32)           118.9491         calculate D2E/DX2 analytically  !
 ! A51   A(25,23,32)           120.0411         calculate D2E/DX2 analytically  !
 ! A52   A(22,24,26)           120.7418         calculate D2E/DX2 analytically  !
 ! A53   A(22,24,33)           119.4692         calculate D2E/DX2 analytically  !
 ! A54   A(26,24,33)           119.7843         calculate D2E/DX2 analytically  !
 ! A55   A(23,25,27)           119.8376         calculate D2E/DX2 analytically  !
 ! A56   A(23,25,34)           119.6492         calculate D2E/DX2 analytically  !
 ! A57   A(27,25,34)           120.5026         calculate D2E/DX2 analytically  !
 ! A58   A(24,26,27)           120.3066         calculate D2E/DX2 analytically  !
 ! A59   A(24,26,35)           119.5025         calculate D2E/DX2 analytically  !
 ! A60   A(27,26,35)           120.1397         calculate D2E/DX2 analytically  !
 ! A61   A(25,27,26)           119.54           calculate D2E/DX2 analytically  !
 ! A62   A(25,27,36)           120.3214         calculate D2E/DX2 analytically  !
 ! A63   A(26,27,36)           120.0793         calculate D2E/DX2 analytically  !
 ! A64   A(19,37,38)           130.5818         calculate D2E/DX2 analytically  !
 ! A65   A(19,37,45)           113.6748         calculate D2E/DX2 analytically  !
 ! A66   A(38,37,45)           115.0389         calculate D2E/DX2 analytically  !
 ! A67   A(37,38,39)           112.3447         calculate D2E/DX2 analytically  !
 ! A68   A(37,38,41)           112.1323         calculate D2E/DX2 analytically  !
 ! A69   A(37,38,46)           107.8451         calculate D2E/DX2 analytically  !
 ! A70   A(39,38,41)           109.6391         calculate D2E/DX2 analytically  !
 ! A71   A(39,38,46)           107.1968         calculate D2E/DX2 analytically  !
 ! A72   A(41,38,46)           107.4231         calculate D2E/DX2 analytically  !
 ! A73   A(38,39,40)           119.8562         calculate D2E/DX2 analytically  !
 ! A74   A(38,39,51)           116.0287         calculate D2E/DX2 analytically  !
 ! A75   A(40,39,51)           124.1046         calculate D2E/DX2 analytically  !
 ! A76   A(38,41,42)           114.0186         calculate D2E/DX2 analytically  !
 ! A77   A(38,41,47)           108.0556         calculate D2E/DX2 analytically  !
 ! A78   A(38,41,48)           109.5843         calculate D2E/DX2 analytically  !
 ! A79   A(42,41,47)           106.8477         calculate D2E/DX2 analytically  !
 ! A80   A(42,41,48)           110.1632         calculate D2E/DX2 analytically  !
 ! A81   A(47,41,48)           107.9482         calculate D2E/DX2 analytically  !
 ! A82   A(41,42,43)           115.8558         calculate D2E/DX2 analytically  !
 ! A83   A(41,42,44)           121.6914         calculate D2E/DX2 analytically  !
 ! A84   A(43,42,44)           122.4043         calculate D2E/DX2 analytically  !
 ! A85   A(42,43,49)           118.3728         calculate D2E/DX2 analytically  !
 ! A86   A(42,43,50)           121.6103         calculate D2E/DX2 analytically  !
 ! A87   A(49,43,50)           119.9718         calculate D2E/DX2 analytically  !
 ! A88   A(39,51,52)           122.0956         calculate D2E/DX2 analytically  !
 ! A89   A(39,51,63)           117.2929         calculate D2E/DX2 analytically  !
 ! A90   A(52,51,63)           116.0363         calculate D2E/DX2 analytically  !
 ! A91   A(51,52,53)           105.2118         calculate D2E/DX2 analytically  !
 ! A92   A(51,52,55)           112.4826         calculate D2E/DX2 analytically  !
 ! A93   A(51,52,64)           105.055          calculate D2E/DX2 analytically  !
 ! A94   A(53,52,55)           117.3271         calculate D2E/DX2 analytically  !
 ! A95   A(53,52,64)           109.1155         calculate D2E/DX2 analytically  !
 ! A96   A(55,52,64)           106.9821         calculate D2E/DX2 analytically  !
 ! A97   A(52,53,54)           118.3123         calculate D2E/DX2 analytically  !
 ! A98   A(52,53,62)           114.9367         calculate D2E/DX2 analytically  !
 ! A99   A(54,53,62)           126.5058         calculate D2E/DX2 analytically  !
 ! A100  A(52,55,56)           120.762          calculate D2E/DX2 analytically  !
 ! A101  A(52,55,65)           107.4438         calculate D2E/DX2 analytically  !
 ! A102  A(52,55,66)           104.8512         calculate D2E/DX2 analytically  !
 ! A103  A(56,55,65)           108.2527         calculate D2E/DX2 analytically  !
 ! A104  A(56,55,66)           108.8059         calculate D2E/DX2 analytically  !
 ! A105  A(65,55,66)           105.7799         calculate D2E/DX2 analytically  !
 ! A106  A(55,56,57)           115.7609         calculate D2E/DX2 analytically  !
 ! A107  A(55,56,67)           110.3672         calculate D2E/DX2 analytically  !
 ! A108  A(55,56,68)           106.1875         calculate D2E/DX2 analytically  !
 ! A109  A(57,56,67)           108.5721         calculate D2E/DX2 analytically  !
 ! A110  A(57,56,68)           109.083          calculate D2E/DX2 analytically  !
 ! A111  A(67,56,68)           106.4583         calculate D2E/DX2 analytically  !
 ! A112  A(56,57,58)           108.6237         calculate D2E/DX2 analytically  !
 ! A113  A(56,57,69)           110.5942         calculate D2E/DX2 analytically  !
 ! A114  A(56,57,70)           110.7291         calculate D2E/DX2 analytically  !
 ! A115  A(58,57,69)           108.94           calculate D2E/DX2 analytically  !
 ! A116  A(58,57,70)           110.7547         calculate D2E/DX2 analytically  !
 ! A117  A(69,57,70)           107.1856         calculate D2E/DX2 analytically  !
 ! A118  A(57,58,59)           126.649          calculate D2E/DX2 analytically  !
 ! A119  A(57,58,71)           114.3852         calculate D2E/DX2 analytically  !
 ! A120  A(59,58,71)           118.0248         calculate D2E/DX2 analytically  !
 ! A121  A(58,59,60)           121.1587         calculate D2E/DX2 analytically  !
 ! A122  A(58,59,61)           119.0892         calculate D2E/DX2 analytically  !
 ! A123  A(60,59,61)           119.6579         calculate D2E/DX2 analytically  !
 ! A124  A(59,60,72)           117.1069         calculate D2E/DX2 analytically  !
 ! A125  A(59,60,73)           118.8449         calculate D2E/DX2 analytically  !
 ! A126  A(72,60,73)           115.6359         calculate D2E/DX2 analytically  !
 ! A127  A(59,61,74)           115.3498         calculate D2E/DX2 analytically  !
 ! A128  A(59,61,75)           116.3031         calculate D2E/DX2 analytically  !
 ! A129  A(74,61,75)           115.5257         calculate D2E/DX2 analytically  !
 ! D1    D(9,1,2,3)           -176.9719         calculate D2E/DX2 analytically  !
 ! D2    D(9,1,2,5)             60.0674         calculate D2E/DX2 analytically  !
 ! D3    D(9,1,2,10)           -61.145          calculate D2E/DX2 analytically  !
 ! D4    D(15,1,2,3)           -55.9115         calculate D2E/DX2 analytically  !
 ! D5    D(15,1,2,5)          -178.8722         calculate D2E/DX2 analytically  !
 ! D6    D(15,1,2,10)           59.9154         calculate D2E/DX2 analytically  !
 ! D7    D(16,1,2,3)            65.6406         calculate D2E/DX2 analytically  !
 ! D8    D(16,1,2,5)           -57.3201         calculate D2E/DX2 analytically  !
 ! D9    D(16,1,2,10)         -178.5326         calculate D2E/DX2 analytically  !
 ! D10   D(1,2,3,4)            119.0018         calculate D2E/DX2 analytically  !
 ! D11   D(1,2,3,17)           -60.2957         calculate D2E/DX2 analytically  !
 ! D12   D(5,2,3,4)           -117.4555         calculate D2E/DX2 analytically  !
 ! D13   D(5,2,3,17)            63.247          calculate D2E/DX2 analytically  !
 ! D14   D(10,2,3,4)             0.425          calculate D2E/DX2 analytically  !
 ! D15   D(10,2,3,17)         -178.8725         calculate D2E/DX2 analytically  !
 ! D16   D(1,2,5,6)            -65.0346         calculate D2E/DX2 analytically  !
 ! D17   D(1,2,5,11)            55.0262         calculate D2E/DX2 analytically  !
 ! D18   D(1,2,5,12)           171.6448         calculate D2E/DX2 analytically  !
 ! D19   D(3,2,5,6)            171.3305         calculate D2E/DX2 analytically  !
 ! D20   D(3,2,5,11)           -68.6087         calculate D2E/DX2 analytically  !
 ! D21   D(3,2,5,12)            48.0099         calculate D2E/DX2 analytically  !
 ! D22   D(10,2,5,6)            56.2265         calculate D2E/DX2 analytically  !
 ! D23   D(10,2,5,11)          176.2873         calculate D2E/DX2 analytically  !
 ! D24   D(10,2,5,12)          -67.0941         calculate D2E/DX2 analytically  !
 ! D25   D(2,3,17,18)         -161.9887         calculate D2E/DX2 analytically  !
 ! D26   D(2,3,17,28)           -1.3994         calculate D2E/DX2 analytically  !
 ! D27   D(4,3,17,18)           18.7302         calculate D2E/DX2 analytically  !
 ! D28   D(4,3,17,28)          179.3196         calculate D2E/DX2 analytically  !
 ! D29   D(2,5,6,7)           -153.8277         calculate D2E/DX2 analytically  !
 ! D30   D(2,5,6,8)             27.4675         calculate D2E/DX2 analytically  !
 ! D31   D(11,5,6,7)            84.7293         calculate D2E/DX2 analytically  !
 ! D32   D(11,5,6,8)           -93.9755         calculate D2E/DX2 analytically  !
 ! D33   D(12,5,6,7)           -31.0146         calculate D2E/DX2 analytically  !
 ! D34   D(12,5,6,8)           150.2807         calculate D2E/DX2 analytically  !
 ! D35   D(5,6,7,13)          -177.7818         calculate D2E/DX2 analytically  !
 ! D36   D(5,6,7,14)            -1.8556         calculate D2E/DX2 analytically  !
 ! D37   D(8,6,7,13)             0.9148         calculate D2E/DX2 analytically  !
 ! D38   D(8,6,7,14)           176.8411         calculate D2E/DX2 analytically  !
 ! D39   D(3,17,18,19)        -124.3533         calculate D2E/DX2 analytically  !
 ! D40   D(3,17,18,21)         109.1761         calculate D2E/DX2 analytically  !
 ! D41   D(3,17,18,29)          -9.1842         calculate D2E/DX2 analytically  !
 ! D42   D(28,17,18,19)         75.3089         calculate D2E/DX2 analytically  !
 ! D43   D(28,17,18,21)        -51.1617         calculate D2E/DX2 analytically  !
 ! D44   D(28,17,18,29)       -169.522          calculate D2E/DX2 analytically  !
 ! D45   D(17,18,19,20)       -142.5251         calculate D2E/DX2 analytically  !
 ! D46   D(17,18,19,37)         37.5628         calculate D2E/DX2 analytically  !
 ! D47   D(21,18,19,20)        -15.6929         calculate D2E/DX2 analytically  !
 ! D48   D(21,18,19,37)        164.3949         calculate D2E/DX2 analytically  !
 ! D49   D(29,18,19,20)        102.4996         calculate D2E/DX2 analytically  !
 ! D50   D(29,18,19,37)        -77.4126         calculate D2E/DX2 analytically  !
 ! D51   D(17,18,21,22)        -45.772          calculate D2E/DX2 analytically  !
 ! D52   D(17,18,21,30)         75.6325         calculate D2E/DX2 analytically  !
 ! D53   D(17,18,21,31)       -169.2324         calculate D2E/DX2 analytically  !
 ! D54   D(19,18,21,22)       -174.683          calculate D2E/DX2 analytically  !
 ! D55   D(19,18,21,30)        -53.2786         calculate D2E/DX2 analytically  !
 ! D56   D(19,18,21,31)         61.8565         calculate D2E/DX2 analytically  !
 ! D57   D(29,18,21,22)         69.7721         calculate D2E/DX2 analytically  !
 ! D58   D(29,18,21,30)       -168.8234         calculate D2E/DX2 analytically  !
 ! D59   D(29,18,21,31)        -53.6883         calculate D2E/DX2 analytically  !
 ! D60   D(18,19,37,38)         10.2419         calculate D2E/DX2 analytically  !
 ! D61   D(18,19,37,45)        179.9887         calculate D2E/DX2 analytically  !
 ! D62   D(20,19,37,38)       -169.6709         calculate D2E/DX2 analytically  !
 ! D63   D(20,19,37,45)          0.0759         calculate D2E/DX2 analytically  !
 ! D64   D(18,21,22,23)        -67.7353         calculate D2E/DX2 analytically  !
 ! D65   D(18,21,22,24)        110.201          calculate D2E/DX2 analytically  !
 ! D66   D(30,21,22,23)        171.0201         calculate D2E/DX2 analytically  !
 ! D67   D(30,21,22,24)        -11.0436         calculate D2E/DX2 analytically  !
 ! D68   D(31,21,22,23)         53.6881         calculate D2E/DX2 analytically  !
 ! D69   D(31,21,22,24)       -128.3756         calculate D2E/DX2 analytically  !
 ! D70   D(21,22,23,25)        178.8162         calculate D2E/DX2 analytically  !
 ! D71   D(21,22,23,32)         -0.6406         calculate D2E/DX2 analytically  !
 ! D72   D(24,22,23,25)          0.8401         calculate D2E/DX2 analytically  !
 ! D73   D(24,22,23,32)       -178.6168         calculate D2E/DX2 analytically  !
 ! D74   D(21,22,24,26)       -179.5319         calculate D2E/DX2 analytically  !
 ! D75   D(21,22,24,33)         -0.3243         calculate D2E/DX2 analytically  !
 ! D76   D(23,22,24,26)         -1.5476         calculate D2E/DX2 analytically  !
 ! D77   D(23,22,24,33)        177.66           calculate D2E/DX2 analytically  !
 ! D78   D(22,23,25,27)          0.4528         calculate D2E/DX2 analytically  !
 ! D79   D(22,23,25,34)       -178.3738         calculate D2E/DX2 analytically  !
 ! D80   D(32,23,25,27)        179.9037         calculate D2E/DX2 analytically  !
 ! D81   D(32,23,25,34)          1.0771         calculate D2E/DX2 analytically  !
 ! D82   D(22,24,26,27)          0.9688         calculate D2E/DX2 analytically  !
 ! D83   D(22,24,26,35)        178.3699         calculate D2E/DX2 analytically  !
 ! D84   D(33,24,26,27)       -178.2363         calculate D2E/DX2 analytically  !
 ! D85   D(33,24,26,35)         -0.8352         calculate D2E/DX2 analytically  !
 ! D86   D(23,25,27,26)         -1.0499         calculate D2E/DX2 analytically  !
 ! D87   D(23,25,27,36)       -178.2525         calculate D2E/DX2 analytically  !
 ! D88   D(34,25,27,26)        177.7666         calculate D2E/DX2 analytically  !
 ! D89   D(34,25,27,36)          0.564          calculate D2E/DX2 analytically  !
 ! D90   D(24,26,27,25)          0.3504         calculate D2E/DX2 analytically  !
 ! D91   D(24,26,27,36)        177.5599         calculate D2E/DX2 analytically  !
 ! D92   D(35,26,27,25)       -177.0341         calculate D2E/DX2 analytically  !
 ! D93   D(35,26,27,36)          0.1753         calculate D2E/DX2 analytically  !
 ! D94   D(19,37,38,39)        -99.7459         calculate D2E/DX2 analytically  !
 ! D95   D(19,37,38,41)        136.2356         calculate D2E/DX2 analytically  !
 ! D96   D(19,37,38,46)         18.1678         calculate D2E/DX2 analytically  !
 ! D97   D(45,37,38,39)         90.6197         calculate D2E/DX2 analytically  !
 ! D98   D(45,37,38,41)        -33.3988         calculate D2E/DX2 analytically  !
 ! D99   D(45,37,38,46)       -151.4666         calculate D2E/DX2 analytically  !
 ! D100  D(37,38,39,40)        177.1238         calculate D2E/DX2 analytically  !
 ! D101  D(37,38,39,51)         -1.7435         calculate D2E/DX2 analytically  !
 ! D102  D(41,38,39,40)        -57.4838         calculate D2E/DX2 analytically  !
 ! D103  D(41,38,39,51)        123.6488         calculate D2E/DX2 analytically  !
 ! D104  D(46,38,39,40)         58.827          calculate D2E/DX2 analytically  !
 ! D105  D(46,38,39,51)       -120.0404         calculate D2E/DX2 analytically  !
 ! D106  D(37,38,41,42)         59.4576         calculate D2E/DX2 analytically  !
 ! D107  D(37,38,41,47)        -59.1629         calculate D2E/DX2 analytically  !
 ! D108  D(37,38,41,48)       -176.55           calculate D2E/DX2 analytically  !
 ! D109  D(39,38,41,42)        -66.0567         calculate D2E/DX2 analytically  !
 ! D110  D(39,38,41,47)        175.3229         calculate D2E/DX2 analytically  !
 ! D111  D(39,38,41,48)         57.9357         calculate D2E/DX2 analytically  !
 ! D112  D(46,38,41,42)        177.7757         calculate D2E/DX2 analytically  !
 ! D113  D(46,38,41,47)         59.1552         calculate D2E/DX2 analytically  !
 ! D114  D(46,38,41,48)        -58.232          calculate D2E/DX2 analytically  !
 ! D115  D(38,39,51,52)        166.9303         calculate D2E/DX2 analytically  !
 ! D116  D(38,39,51,63)         11.8826         calculate D2E/DX2 analytically  !
 ! D117  D(40,39,51,52)        -11.8834         calculate D2E/DX2 analytically  !
 ! D118  D(40,39,51,63)       -166.931          calculate D2E/DX2 analytically  !
 ! D119  D(38,41,42,43)        150.6647         calculate D2E/DX2 analytically  !
 ! D120  D(38,41,42,44)        -31.8101         calculate D2E/DX2 analytically  !
 ! D121  D(47,41,42,43)        -90.0287         calculate D2E/DX2 analytically  !
 ! D122  D(47,41,42,44)         87.4965         calculate D2E/DX2 analytically  !
 ! D123  D(48,41,42,43)         26.9845         calculate D2E/DX2 analytically  !
 ! D124  D(48,41,42,44)       -155.4903         calculate D2E/DX2 analytically  !
 ! D125  D(41,42,43,49)        179.7389         calculate D2E/DX2 analytically  !
 ! D126  D(41,42,43,50)         -2.7046         calculate D2E/DX2 analytically  !
 ! D127  D(44,42,43,49)          2.2332         calculate D2E/DX2 analytically  !
 ! D128  D(44,42,43,50)        179.7896         calculate D2E/DX2 analytically  !
 ! D129  D(39,51,52,53)       -125.6583         calculate D2E/DX2 analytically  !
 ! D130  D(39,51,52,55)        105.4827         calculate D2E/DX2 analytically  !
 ! D131  D(39,51,52,64)        -10.5352         calculate D2E/DX2 analytically  !
 ! D132  D(63,51,52,53)         29.681          calculate D2E/DX2 analytically  !
 ! D133  D(63,51,52,55)        -99.178          calculate D2E/DX2 analytically  !
 ! D134  D(63,51,52,64)        144.8041         calculate D2E/DX2 analytically  !
 ! D135  D(51,52,53,54)       -102.6611         calculate D2E/DX2 analytically  !
 ! D136  D(51,52,53,62)         72.0232         calculate D2E/DX2 analytically  !
 ! D137  D(55,52,53,54)         23.2535         calculate D2E/DX2 analytically  !
 ! D138  D(55,52,53,62)       -162.0622         calculate D2E/DX2 analytically  !
 ! D139  D(64,52,53,54)        145.0593         calculate D2E/DX2 analytically  !
 ! D140  D(64,52,53,62)        -40.2564         calculate D2E/DX2 analytically  !
 ! D141  D(51,52,55,56)         65.9642         calculate D2E/DX2 analytically  !
 ! D142  D(51,52,55,65)       -169.3488         calculate D2E/DX2 analytically  !
 ! D143  D(51,52,55,66)        -57.125          calculate D2E/DX2 analytically  !
 ! D144  D(53,52,55,56)        -56.278          calculate D2E/DX2 analytically  !
 ! D145  D(53,52,55,65)         68.4091         calculate D2E/DX2 analytically  !
 ! D146  D(53,52,55,66)       -179.3672         calculate D2E/DX2 analytically  !
 ! D147  D(64,52,55,56)       -179.1813         calculate D2E/DX2 analytically  !
 ! D148  D(64,52,55,65)        -54.4943         calculate D2E/DX2 analytically  !
 ! D149  D(64,52,55,66)         57.7295         calculate D2E/DX2 analytically  !
 ! D150  D(52,55,56,57)        -49.8994         calculate D2E/DX2 analytically  !
 ! D151  D(52,55,56,67)         73.9066         calculate D2E/DX2 analytically  !
 ! D152  D(52,55,56,68)       -171.1036         calculate D2E/DX2 analytically  !
 ! D153  D(65,55,56,57)       -174.2075         calculate D2E/DX2 analytically  !
 ! D154  D(65,55,56,67)        -50.4015         calculate D2E/DX2 analytically  !
 ! D155  D(65,55,56,68)         64.5883         calculate D2E/DX2 analytically  !
 ! D156  D(66,55,56,57)         71.2851         calculate D2E/DX2 analytically  !
 ! D157  D(66,55,56,67)       -164.9089         calculate D2E/DX2 analytically  !
 ! D158  D(66,55,56,68)        -49.9191         calculate D2E/DX2 analytically  !
 ! D159  D(55,56,57,58)         86.8891         calculate D2E/DX2 analytically  !
 ! D160  D(55,56,57,69)       -153.6041         calculate D2E/DX2 analytically  !
 ! D161  D(55,56,57,70)        -34.9389         calculate D2E/DX2 analytically  !
 ! D162  D(67,56,57,58)        -37.8483         calculate D2E/DX2 analytically  !
 ! D163  D(67,56,57,69)         81.6585         calculate D2E/DX2 analytically  !
 ! D164  D(67,56,57,70)       -159.6762         calculate D2E/DX2 analytically  !
 ! D165  D(68,56,57,58)       -153.4746         calculate D2E/DX2 analytically  !
 ! D166  D(68,56,57,69)        -33.9678         calculate D2E/DX2 analytically  !
 ! D167  D(68,56,57,70)         84.6974         calculate D2E/DX2 analytically  !
 ! D168  D(56,57,58,59)       -165.8026         calculate D2E/DX2 analytically  !
 ! D169  D(56,57,58,71)          2.7908         calculate D2E/DX2 analytically  !
 ! D170  D(69,57,58,59)         73.6618         calculate D2E/DX2 analytically  !
 ! D171  D(69,57,58,71)       -117.7448         calculate D2E/DX2 analytically  !
 ! D172  D(70,57,58,59)        -43.9903         calculate D2E/DX2 analytically  !
 ! D173  D(70,57,58,71)        124.6031         calculate D2E/DX2 analytically  !
 ! D174  D(57,58,59,60)         -3.7831         calculate D2E/DX2 analytically  !
 ! D175  D(57,58,59,61)        179.7582         calculate D2E/DX2 analytically  !
 ! D176  D(71,58,59,60)       -172.0089         calculate D2E/DX2 analytically  !
 ! D177  D(71,58,59,61)         11.5324         calculate D2E/DX2 analytically  !
 ! D178  D(58,59,60,72)        169.3819         calculate D2E/DX2 analytically  !
 ! D179  D(58,59,60,73)         22.5766         calculate D2E/DX2 analytically  !
 ! D180  D(61,59,60,72)        -14.1793         calculate D2E/DX2 analytically  !
 ! D181  D(61,59,60,73)       -160.9845         calculate D2E/DX2 analytically  !
 ! D182  D(58,59,61,74)       -151.777          calculate D2E/DX2 analytically  !
 ! D183  D(58,59,61,75)        -11.7738         calculate D2E/DX2 analytically  !
 ! D184  D(60,59,61,74)         31.7102         calculate D2E/DX2 analytically  !
 ! D185  D(60,59,61,75)        171.7134         calculate D2E/DX2 analytically  !
 --------------------------------------------------------------------------------
 Trust Radius=3.00D-01 FncErr=1.00D-07 GrdErr=1.00D-06 EigMax=2.50D+02 EigMin=1.00D-04
 Number of steps in this run=    399 maximum allowed number of steps=    450.
 GradGradGradGradGradGradGradGradGradGradGradGradGradGradGradGradGradGrad

 Symmetry turned off by external request.
 Stoichiometry    C23H36N9O7(1+)
 Framework group  C1[X(C23H36N9O7)]
 Deg. of freedom   219
 Full point group                 C1      NOp   1
                          Input orientation:                          
 ---------------------------------------------------------------------
 Center     Atomic      Atomic             Coordinates (Angstroms)
 Number     Number       Type             X           Y           Z
 ---------------------------------------------------------------------
      1          7           0       -9.337650   -2.402664   -9.500823
      2          6           0       -9.744220   -3.042185   -8.244032
      3          6           0       -9.244910   -2.258118   -7.040356
      4          8           0      -10.040576   -1.785198   -6.237318
      5          6           0       -9.246104   -4.477866   -8.174674
      6          6           0       -9.875364   -5.370575   -9.228999
      7          7           0       -9.926184   -6.683332   -8.899820
      8          8           0      -10.278645   -4.937811  -10.296029
      9          1           0       -9.750146   -2.953872  -10.261802
     10          1           0      -10.833458   -3.028736   -8.160930
     11          1           0       -8.165764   -4.504994   -8.322829
     12          1           0       -9.431216   -4.878987   -7.177839
     13          1           0      -10.301025   -7.330606   -9.571203
     14          1           0       -9.542189   -7.013784   -8.031020
     15          1           0       -9.648334   -1.429457   -9.557405
     16          1           0       -8.315644   -2.441958   -9.581480
     17          7           0       -7.898477   -2.100786   -6.914112
     18          6           0       -7.356283   -1.725431   -5.630083
     19          6           0       -6.490321   -0.454729   -5.637268
     20          8           0       -5.489429   -0.374725   -4.933464
     21          6           0       -6.590556   -2.895284   -4.986112
     22          6           0       -7.320462   -4.208251   -5.053835
     23          6           0       -8.492920   -4.412589   -4.331643
     24          6           0       -6.858900   -5.231521   -5.875421
     25          6           0       -9.184278   -5.619890   -4.411823
     26          6           0       -7.535342   -6.443478   -5.948928
     27          6           0       -8.697390   -6.643064   -5.215216
     28          1           0       -7.298469   -2.525205   -7.605351
     29          1           0       -8.224901   -1.477757   -5.019611
     30          1           0       -5.625793   -3.000367   -5.490838
     31          1           0       -6.377150   -2.617274   -3.954617
     32          1           0       -8.871404   -3.609928   -3.705824
     33          1           0       -5.966940   -5.074328   -6.474740
     34          1           0      -10.107930   -5.745680   -3.861343
     35          1           0       -7.171867   -7.219863   -6.617795
     36          1           0       -9.244943   -7.577302   -5.305732
     37          7           0       -6.844854    0.582860   -6.430722
     38          6           0       -8.052018    0.818065   -7.184346
     39          6           0       -7.889136    0.470337   -8.671109
     40          8           0       -8.849412    0.568449   -9.430853
     41          6           0       -8.547760    2.260125   -7.044379
     42          6           0       -7.551207    3.303696   -7.511905
     43          7           0       -8.080387    4.451021   -7.990615
     44          8           0       -6.343938    3.128871   -7.414532
     45          1           0       -6.221724    1.368535   -6.369853
     46          1           0       -8.828992    0.165116   -6.783558
     47          1           0       -8.734284    2.452461   -5.986621
     48          1           0       -9.491152    2.375652   -7.578285
     49          1           0       -7.454171    5.170021   -8.307039
     50          1           0       -9.071858    4.580382   -8.068181
     51          7           0       -6.665510    0.044189   -9.049108
     52          6           0       -6.431315   -0.576002  -10.332708
     53          6           0       -5.747587   -1.937794  -10.009974
     54          8           0       -4.521611   -2.034003  -10.173554
     55          6           0       -5.717283    0.350862  -11.305007
     56          6           0       -4.278833    0.804515  -11.041497
     57          6           0       -4.004114    1.363073   -9.647594
     58          7           0       -3.672548    0.250300   -8.754761
     59          6           0       -3.628694    0.284476   -7.432346
     60          7           0       -3.826720    1.423981   -6.763270
     61          7           0       -3.307965   -0.839673   -6.756984
     62          8           0       -6.503474   -2.802734   -9.504814
     63          1           0       -6.020767   -0.186791   -8.328874
     64          1           0       -7.425789   -0.763500  -10.742773
     65          1           0       -5.753042   -0.120362  -12.294995
     66          1           0       -6.359419    1.235071  -11.372759
     67          1           0       -3.580467   -0.014812  -11.232186
     68          1           0       -4.061100    1.577677  -11.786488
     69          1           0       -3.164232    2.060286   -9.671903
     70          1           0       -4.871051    1.914556   -9.273906
     71          1           0       -3.638977   -0.658322   -9.210735
     72          1           0       -3.943756    1.355711   -5.764292
     73          1           0       -4.336508    2.170286   -7.212701
     74          1           0       -3.698563   -0.912507   -5.827809
     75          1           0       -3.296689   -1.697705   -7.293897
 ---------------------------------------------------------------------
 Rotational constants (GHZ):           0.1441217           0.0727493           0.0694370
 Standard basis: 6-31G(d) (6D, 7F)
   657 basis functions,  1236 primitive gaussians,   657 cartesian basis functions
   146 alpha electrons      146 beta electrons
       nuclear repulsion energy      5195.2267154431 Hartrees.
 NAtoms=   75 NActive=   75 NUniq=   75 SFac= 1.00D+00 NAtFMM=   60 NAOKFM=T Big=T
 Integral buffers will be    131072 words long.
 Raffenetti 2 integral format.
 Two-electron integral symmetry is turned off.
 Nuclear repulsion after empirical dispersion term =     5195.0993039964 Hartrees.
 One-electron integrals computed using PRISM.
 NBasis=   657 RedAO= T EigKep=  4.41D-04  NBF=   657
 NBsUse=   657 1.00D-06 EigRej= -1.00D+00 NBFU=   657
 ExpMin= 1.61D-01 ExpMax= 5.48D+03 ExpMxC= 8.25D+02 IAcc=3 IRadAn=         5 AccDes= 0.00D+00
 Harris functional with IExCor=  402 and IRadAn=       5 diagonalized for initial guess.
 HarFok:  IExCor=  402 AccDes= 0.00D+00 IRadAn=         5 IDoV= 1 UseB2=F ITyADJ=14
 ICtDFT=  3500011 ScaDFX=  1.000000  1.000000  1.000000  1.000000
 FoFCou: FMM=F IPFlag=           0 FMFlag=      100000 FMFlg1=        2001
         NFxFlg=           0 DoJE=T BraDBF=F KetDBF=T FulRan=T
         wScrn=  0.000000 ICntrl=       500 IOpCl=  0 I1Cent=   200000004 NGrid=           0
         NMat0=    1 NMatS0=      1 NMatT0=    0 NMatD0=    1 NMtDS0=    0 NMtDT0=    0
 Symmetry not used in FoFCou.
 Requested convergence on RMS density matrix=1.00D-08 within 128 cycles.
 Requested convergence on MAX density matrix=1.00D-06.
 Requested convergence on             energy=1.00D-06.
 No special actions if energy rises.
 Integral accuracy reduced to 1.0D-05 until final iterations.
 Initial convergence to 1.0D-05 achieved.  Increase integral accuracy.
 SCF Done:  E(RB3LYP) =  -1917.51512822     A.U. after   15 cycles
            NFock= 15  Conv=0.67D-08     -V/T= 2.0087
 DoSCS=F DFT=T ScalE2(SS,OS)=  1.000000  1.000000
 Range of M.O.s used for correlation:     1   657
 NBasis=   657 NAE=   146 NBE=   146 NFC=     0 NFV=     0
 NROrb=    657 NOA=   146 NOB=   146 NVA=   511 NVB=   511
 Symmetrizing basis deriv contribution to polar:
 IMax=3 JMax=2 DiffMx= 0.00D+00
 G2DrvN: will do    76 centers at a time, making    1 passes.
 Calling FoFCou, ICntrl=  3107 FMM=T I1Cent=   0 AccDes= 0.00D+00.
 End of G2Drv F.D. properties file   721 does not exist.
 End of G2Drv F.D. properties file   722 does not exist.
 End of G2Drv F.D. properties file   788 does not exist.
          IDoAtm=11111111111111111111111111111111111111111111111111
          IDoAtm=1111111111111111111111111
          Differentiating once with respect to nuclear coordinates.
 CalDSu exits because no D1Ps are significant.
          There are   228 degrees of freedom in the 1st order CPHF.  IDoFFX=6 NUNeed=     0.
    222 vectors produced by pass  0 Test12= 7.46D-14 1.00D-09 XBig12= 2.17D-01 1.48D-01.
 AX will form    72 AO Fock derivatives at one time.
    222 vectors produced by pass  1 Test12= 7.46D-14 1.00D-09 XBig12= 3.81D-02 3.14D-02.
    222 vectors produced by pass  2 Test12= 7.46D-14 1.00D-09 XBig12= 1.86D-04 1.45D-03.
    222 vectors produced by pass  3 Test12= 7.46D-14 1.00D-09 XBig12= 5.30D-07 5.49D-05.
    222 vectors produced by pass  4 Test12= 7.46D-14 1.00D-09 XBig12= 9.11D-10 2.31D-06.
    179 vectors produced by pass  5 Test12= 7.46D-14 1.00D-09 XBig12= 9.19D-13 8.60D-08.
      7 vectors produced by pass  6 Test12= 7.46D-14 1.00D-09 XBig12= 8.63D-16 2.29D-09.
      1 vectors produced by pass  7 Test12= 7.46D-14 1.00D-09 XBig12= 8.12D-16 1.33D-09.
 InvSVY:  IOpt=1 It=  1 EMax= 5.55D-16
 Solved reduced A of dimension  1297 with   228 vectors.
 End of Minotr F.D. properties file   721 does not exist.
 End of Minotr F.D. properties file   722 does not exist.
 End of Minotr F.D. properties file   788 does not exist.

 **********************************************************************

            Population analysis using the SCF Density.

 **********************************************************************

 Alpha  occ. eigenvalues --  -19.24416 -19.24369 -19.24218 -19.23512 -19.22916
 Alpha  occ. eigenvalues --  -19.19679 -19.18520 -14.55083 -14.49312 -14.48892
 Alpha  occ. eigenvalues --  -14.48820 -14.48045 -14.48013 -14.47645 -14.47203
 Alpha  occ. eigenvalues --  -14.46128 -10.45416 -10.41695 -10.41560 -10.41340
 Alpha  occ. eigenvalues --  -10.40325 -10.40280 -10.37519 -10.36897 -10.35804
 Alpha  occ. eigenvalues --  -10.35036 -10.33310 -10.31925 -10.31600 -10.31522
 Alpha  occ. eigenvalues --  -10.29680 -10.29373 -10.28605 -10.28542 -10.28487
 Alpha  occ. eigenvalues --  -10.28399 -10.28391 -10.28112 -10.27507  -1.17232
 Alpha  occ. eigenvalues --   -1.16655  -1.16423  -1.15681  -1.15191  -1.14815
 Alpha  occ. eigenvalues --   -1.13055  -1.11708  -1.06450  -1.05028  -1.04374
 Alpha  occ. eigenvalues --   -1.04022  -1.03259  -1.02920  -1.02777  -1.01404
 Alpha  occ. eigenvalues --   -0.95820  -0.92107  -0.90792  -0.89622  -0.89231
 Alpha  occ. eigenvalues --   -0.85071  -0.84742  -0.84200  -0.80822  -0.80708
 Alpha  occ. eigenvalues --   -0.78059  -0.77206  -0.75717  -0.72838  -0.72345
 Alpha  occ. eigenvalues --   -0.71707  -0.71377  -0.71132  -0.70490  -0.70059
 Alpha  occ. eigenvalues --   -0.69992  -0.69115  -0.68561  -0.67855  -0.67116
 Alpha  occ. eigenvalues --   -0.66653  -0.65852  -0.65263  -0.64461  -0.63296
 Alpha  occ. eigenvalues --   -0.62760  -0.62408  -0.61722  -0.60838  -0.60459
 Alpha  occ. eigenvalues --   -0.59555  -0.59071  -0.58829  -0.57927  -0.57532
 Alpha  occ. eigenvalues --   -0.57465  -0.56792  -0.56505  -0.55710  -0.55380
 Alpha  occ. eigenvalues --   -0.55191  -0.54822  -0.54120  -0.54004  -0.53621
 Alpha  occ. eigenvalues --   -0.53425  -0.52656  -0.52501  -0.52272  -0.51850
 Alpha  occ. eigenvalues --   -0.51599  -0.51504  -0.51157  -0.50483  -0.50096
 Alpha  occ. eigenvalues --   -0.49824  -0.49545  -0.49093  -0.48737  -0.48239
 Alpha  occ. eigenvalues --   -0.47855  -0.47449  -0.46916  -0.45339  -0.44766
 Alpha  occ. eigenvalues --   -0.43786  -0.43757  -0.43640  -0.43512  -0.41630
 Alpha  occ. eigenvalues --   -0.40274  -0.39920  -0.39373  -0.38528  -0.38323
 Alpha  occ. eigenvalues --   -0.38239  -0.37794  -0.37663  -0.36950  -0.36746
 Alpha  occ. eigenvalues --   -0.35805  -0.35110  -0.34786  -0.34472  -0.33795
 Alpha  occ. eigenvalues --   -0.32322
 Alpha virt. eigenvalues --   -0.11743  -0.11262  -0.10624  -0.10416  -0.10091
 Alpha virt. eigenvalues --   -0.09888  -0.09315  -0.07704  -0.05526  -0.04669
 Alpha virt. eigenvalues --   -0.03160  -0.03040  -0.01903  -0.01409  -0.00311
 Alpha virt. eigenvalues --    0.00211   0.00811   0.01043   0.01261   0.01621
 Alpha virt. eigenvalues --    0.02001   0.02309   0.02615   0.02871   0.03061
 Alpha virt. eigenvalues --    0.03497   0.03941   0.04231   0.04695   0.04989
 Alpha virt. eigenvalues --    0.05248   0.05623   0.06005   0.06457   0.06530
 Alpha virt. eigenvalues --    0.06816   0.07046   0.07666   0.07735   0.08219
 Alpha virt. eigenvalues --    0.08662   0.08860   0.09111   0.09535   0.09793
 Alpha virt. eigenvalues --    0.10317   0.10913   0.11004   0.11428   0.12234
 Alpha virt. eigenvalues --    0.12419   0.13110   0.13352   0.13716   0.14024
 Alpha virt. eigenvalues --    0.14673   0.15374   0.15847   0.16205   0.16497
 Alpha virt. eigenvalues --    0.16856   0.17468   0.18390   0.19450   0.20604
 Alpha virt. eigenvalues --    0.21423   0.22254   0.22708   0.22901   0.23517
 Alpha virt. eigenvalues --    0.23999   0.24922   0.25188   0.25596   0.26388
 Alpha virt. eigenvalues --    0.26779   0.28010   0.28306   0.29338   0.30186
 Alpha virt. eigenvalues --    0.32128   0.32890   0.34297   0.36212   0.36655
 Alpha virt. eigenvalues --    0.37597   0.38263   0.38844   0.39834   0.40349
 Alpha virt. eigenvalues --    0.40969   0.41472   0.42598   0.42981   0.43508
 Alpha virt. eigenvalues --    0.43685   0.44120   0.44870   0.45226   0.45725
 Alpha virt. eigenvalues --    0.46136   0.46614   0.46810   0.47144   0.47466
 Alpha virt. eigenvalues --    0.47734   0.48112   0.49168   0.49216   0.49909
 Alpha virt. eigenvalues --    0.50450   0.50882   0.50939   0.51844   0.52188
 Alpha virt. eigenvalues --    0.52396   0.52804   0.53057   0.53290   0.53744
 Alpha virt. eigenvalues --    0.53929   0.54254   0.54459   0.54648   0.55435
 Alpha virt. eigenvalues --    0.55606   0.55941   0.56139   0.56378   0.56429
 Alpha virt. eigenvalues --    0.57188   0.57412   0.58028   0.58331   0.59116
 Alpha virt. eigenvalues --    0.59598   0.60425   0.60713   0.61421   0.62434
 Alpha virt. eigenvalues --    0.62929   0.63254   0.63902   0.64272   0.64585
 Alpha virt. eigenvalues --    0.65227   0.66284   0.66938   0.67295   0.68100
 Alpha virt. eigenvalues --    0.68628   0.69700   0.69727   0.70125   0.70887
 Alpha virt. eigenvalues --    0.71750   0.71937   0.72302   0.72344   0.73277
 Alpha virt. eigenvalues --    0.73597   0.73867   0.74161   0.74697   0.75050
 Alpha virt. eigenvalues --    0.75399   0.75468   0.75821   0.76330   0.76760
 Alpha virt. eigenvalues --    0.77023   0.77308   0.77594   0.77798   0.78052
 Alpha virt. eigenvalues --    0.78301   0.79106   0.79133   0.79416   0.79889
 Alpha virt. eigenvalues --    0.81194   0.81446   0.81693   0.81945   0.82249
 Alpha virt. eigenvalues --    0.82478   0.82911   0.83098   0.83545   0.84177
 Alpha virt. eigenvalues --    0.84372   0.85104   0.85510   0.85852   0.86735
 Alpha virt. eigenvalues --    0.86919   0.87522   0.88764   0.88883   0.89572
 Alpha virt. eigenvalues --    0.90067   0.90464   0.91016   0.91565   0.92691
 Alpha virt. eigenvalues --    0.93056   0.93704   0.94690   0.94926   0.95892
 Alpha virt. eigenvalues --    0.96087   0.96519   0.97002   0.97831   0.98606
 Alpha virt. eigenvalues --    0.99667   1.00276   1.00822   1.01746   1.03020
 Alpha virt. eigenvalues --    1.03786   1.04442   1.04946   1.05422   1.05701
 Alpha virt. eigenvalues --    1.06447   1.07507   1.07714   1.08460   1.09700
 Alpha virt. eigenvalues --    1.10017   1.10443   1.11117   1.11747   1.12248
 Alpha virt. eigenvalues --    1.13178   1.13234   1.14126   1.15481   1.16272
 Alpha virt. eigenvalues --    1.16949   1.17897   1.18999   1.19221   1.20251
 Alpha virt. eigenvalues --    1.20893   1.21197   1.23138   1.23273   1.24115
 Alpha virt. eigenvalues --    1.24300   1.24998   1.26459   1.26779   1.27719
 Alpha virt. eigenvalues --    1.28672   1.29235   1.29668   1.30559   1.30750
 Alpha virt. eigenvalues --    1.31834   1.32249   1.33881   1.34387   1.34656
 Alpha virt. eigenvalues --    1.35479   1.35779   1.36753   1.37117   1.37488
 Alpha virt. eigenvalues --    1.38943   1.39215   1.40185   1.40697   1.41765
 Alpha virt. eigenvalues --    1.42092   1.43741   1.44320   1.44780   1.46577
 Alpha virt. eigenvalues --    1.47386   1.48242   1.48961   1.50505   1.52070
 Alpha virt. eigenvalues --    1.52261   1.52901   1.53848   1.54238   1.55044
 Alpha virt. eigenvalues --    1.56367   1.56820   1.58050   1.58761   1.60524
 Alpha virt. eigenvalues --    1.60971   1.61560   1.61864   1.62864   1.63512
 Alpha virt. eigenvalues --    1.63961   1.64685   1.64862   1.65560   1.66804
 Alpha virt. eigenvalues --    1.67914   1.68291   1.68911   1.69080   1.70426
 Alpha virt. eigenvalues --    1.70544   1.71125   1.71782   1.72422   1.72899
 Alpha virt. eigenvalues --    1.73585   1.73641   1.74036   1.74572   1.75024
 Alpha virt. eigenvalues --    1.75904   1.76393   1.77129   1.77645   1.78792
 Alpha virt. eigenvalues --    1.79274   1.79766   1.80072   1.80357   1.80771
 Alpha virt. eigenvalues --    1.81361   1.81878   1.82420   1.82778   1.83505
 Alpha virt. eigenvalues --    1.83823   1.84106   1.85064   1.85565   1.86335
 Alpha virt. eigenvalues --    1.87554   1.88326   1.88644   1.89163   1.89388
 Alpha virt. eigenvalues --    1.89616   1.90825   1.90991   1.91047   1.91784
 Alpha virt. eigenvalues --    1.93277   1.93786   1.94882   1.95271   1.96700
 Alpha virt. eigenvalues --    1.97015   1.97279   1.98110   1.98858   1.99673
 Alpha virt. eigenvalues --    2.00131   2.00598   2.01803   2.02296   2.02779
 Alpha virt. eigenvalues --    2.03262   2.03871   2.04327   2.05333   2.06241
 Alpha virt. eigenvalues --    2.06697   2.07290   2.08176   2.08909   2.09833
 Alpha virt. eigenvalues --    2.10704   2.12643   2.13269   2.14564   2.14769
 Alpha virt. eigenvalues --    2.15647   2.15965   2.16438   2.17855   2.18334
 Alpha virt. eigenvalues --    2.18459   2.18953   2.19995   2.21076   2.22312
 Alpha virt. eigenvalues --    2.22536   2.22896   2.23520   2.24357   2.24774
 Alpha virt. eigenvalues --    2.27163   2.27301   2.27398   2.28697   2.29090
 Alpha virt. eigenvalues --    2.30454   2.30511   2.31671   2.32622   2.33782
 Alpha virt. eigenvalues --    2.34834   2.35323   2.36924   2.37370   2.39278
 Alpha virt. eigenvalues --    2.40739   2.41896   2.42651   2.43699   2.44232
 Alpha virt. eigenvalues --    2.44535   2.45561   2.46753   2.48586   2.48831
 Alpha virt. eigenvalues --    2.49821   2.49995   2.50823   2.50988   2.51324
 Alpha virt. eigenvalues --    2.52252   2.53047   2.53963   2.54505   2.54967
 Alpha virt. eigenvalues --    2.55613   2.56039   2.57064   2.57603   2.59744
 Alpha virt. eigenvalues --    2.60655   2.61752   2.61950   2.63472   2.64210
 Alpha virt. eigenvalues --    2.65627   2.66305   2.66521   2.67134   2.67521
 Alpha virt. eigenvalues --    2.68550   2.70062   2.72149   2.76154   2.77872
 Alpha virt. eigenvalues --    2.81451   2.82055   2.84469   2.85936   2.88256
 Alpha virt. eigenvalues --    2.88992   2.89333   2.90699   2.91799   2.92588
 Alpha virt. eigenvalues --    2.93867   2.96102   2.96250   2.97869   2.98140
 Alpha virt. eigenvalues --    2.99006   3.01761   3.04170   3.05436   3.08462
 Alpha virt. eigenvalues --    3.11526   3.33599   3.69761   3.72054   3.73770
 Alpha virt. eigenvalues --    3.80109   3.81807   3.90898   3.92780   3.95819
 Alpha virt. eigenvalues --    3.97935   3.99896   4.01679   4.05270   4.05955
 Alpha virt. eigenvalues --    4.06426   4.07272   4.10618   4.11733   4.13216
 Alpha virt. eigenvalues --    4.15307   4.18294   4.19140   4.20597   4.23396
 Alpha virt. eigenvalues --    4.26010   4.29323   4.31045   4.33349   4.35694
 Alpha virt. eigenvalues --    4.39410   4.41792   4.42438   4.44526   4.46931
 Alpha virt. eigenvalues --    4.51574   4.56915   4.60912   4.62218   4.64689
 Alpha virt. eigenvalues --    4.70558
          Condensed to atoms (all electrons):
 Mulliken charges:
               1
     1  N   -0.785397
     2  C   -0.132508
     3  C    0.622939
     4  O   -0.508398
     5  C   -0.423950
     6  C    0.634725
     7  N   -0.744381
     8  O   -0.522251
     9  H    0.423776
    10  H    0.226366
    11  H    0.228990
    12  H    0.215160
    13  H    0.366453
    14  H    0.355336
    15  H    0.421410
    16  H    0.426761
    17  N   -0.634367
    18  C   -0.092025
    19  C    0.621393
    20  O   -0.550224
    21  C   -0.359232
    22  C    0.178931
    23  C   -0.178896
    24  C   -0.199741
    25  C   -0.132523
    26  C   -0.146192
    27  C   -0.150523
    28  H    0.373928
    29  H    0.226568
    30  H    0.141860
    31  H    0.196142
    32  H    0.148152
    33  H    0.145696
    34  H    0.159074
    35  H    0.149172
    36  H    0.149054
    37  N   -0.642463
    38  C   -0.066530
    39  C    0.612387
    40  O   -0.562565
    41  C   -0.385836
    42  C    0.623284
    43  N   -0.729579
    44  O   -0.549692
    45  H    0.365174
    46  H    0.215117
    47  H    0.208597
    48  H    0.198305
    49  H    0.365514
    50  H    0.365418
    51  N   -0.601338
    52  C   -0.058886
    53  C    0.559374
    54  O   -0.550227
    55  C   -0.256644
    56  C   -0.312785
    57  C   -0.160256
    58  N   -0.611647
    59  C    0.710216
    60  N   -0.750329
    61  N   -0.747096
    62  O   -0.589327
    63  H    0.357674
    64  H    0.148057
    65  H    0.167362
    66  H    0.148465
    67  H    0.192977
    68  H    0.166395
    69  H    0.188173
    70  H    0.183419
    71  H    0.400425
    72  H    0.374796
    73  H    0.406110
    74  H    0.393345
    75  H    0.373340
 Sum of Mulliken charges =   1.00000
 Mulliken charges with hydrogens summed into heavy atoms:
               1
     1  N    0.486549
     2  C    0.093858
     3  C    0.622939
     4  O   -0.508398
     5  C    0.020200
     6  C    0.634725
     7  N   -0.022592
     8  O   -0.522251
    17  N   -0.260440
    18  C    0.134543
    19  C    0.621393
    20  O   -0.550224
    21  C   -0.021231
    22  C    0.178931
    23  C   -0.030745
    24  C   -0.054045
    25  C    0.026551
    26  C    0.002980
    27  C   -0.001470
    37  N   -0.277289
    38  C    0.148587
    39  C    0.612387
    40  O   -0.562565
    41  C    0.021066
    42  C    0.623284
    43  N    0.001353
    44  O   -0.549692
    51  N   -0.243665
    52  C    0.089171
    53  C    0.559374
    54  O   -0.550227
    55  C    0.059183
    56  C    0.046587
    57  C    0.211336
    58  N   -0.211222
    59  C    0.710216
    60  N    0.030578
    61  N    0.019589
    62  O   -0.589327
 APT charges:
               1
     1  N   -2.142767
     2  C   -1.233107
     3  C    0.512292
     4  O    0.089071
     5  C    0.798365
     6  C   -3.223803
     7  N   -0.941732
     8  O    2.655959
     9  H    2.244439
    10  H    1.621940
    11  H   -0.609194
    12  H   -0.221605
    13  H    3.031521
    14  H   -0.935748
    15  H    0.810735
    16  H   -0.273283
    17  N   -1.531949
    18  C   -0.636669
    19  C    1.760137
    20  O   -2.444340
    21  C    0.632081
    22  C   -1.908205
    23  C   -0.712254
    24  C   -0.556759
    25  C   -0.282282
    26  C   -0.402728
    27  C   -0.346626
    28  H    0.481379
    29  H    0.510057
    30  H   -0.060034
    31  H   -0.527501
    32  H   -0.054223
    33  H   -0.078179
    34  H    1.306389
    35  H    1.194032
    36  H    1.896144
    37  N    0.993908
    38  C   -1.064649
    39  C   -2.162168
    40  O    2.379597
    41  C   -1.650350
    42  C    1.398822
    43  N   -1.397391
    44  O   -2.438636
    45  H   -0.140712
    46  H    0.600891
    47  H   -0.285721
    48  H    1.865609
    49  H    0.627790
    50  H    2.162603
    51  N    1.093956
    52  C   -1.989960
    53  C    1.072488
    54  O   -1.195119
    55  C   -2.620511
    56  C   -1.494864
    57  C   -0.429971
    58  N    0.284930
    59  C   -0.225410
    60  N   -1.128456
    61  N   -1.405037
    62  O   -0.327200
    63  H   -0.991796
    64  H    1.526100
    65  H    1.700609
    66  H    0.881868
    67  H    0.245104
    68  H    1.369753
    69  H    0.160410
    70  H    0.501139
    71  H    0.922502
    72  H   -0.593380
    73  H    1.400258
    74  H   -0.245234
    75  H    1.176673
 Sum of APT charges =   1.00000
 APT charges with hydrogens summed into heavy atoms:
               1
     1  N    0.639123
     2  C    0.388833
     3  C    0.512292
     4  O    0.089071
     5  C   -0.032434
     6  C   -3.223803
     7  N    1.154042
     8  O    2.655959
    17  N   -1.050570
    18  C   -0.126612
    19  C    1.760137
    20  O   -2.444340
    21  C    0.044547
    22  C   -1.908205
    23  C   -0.766477
    24  C   -0.634938
    25  C    1.024107
    26  C    0.791304
    27  C    1.549518
    37  N    0.853196
    38  C   -0.463758
    39  C   -2.162168
    40  O    2.379597
    41  C   -0.070461
    42  C    1.398822
    43  N    1.393002
    44  O   -2.438636
    51  N    0.102160
    52  C   -0.463860
    53  C    1.072488
    54  O   -1.195119
    55  C   -0.038034
    56  C    0.119993
    57  C    0.231577
    58  N    1.207432
    59  C   -0.225410
    60  N   -0.321578
    61  N   -0.473598
    62  O   -0.327200
 Electronic spatial extent (au):  <R**2>=         135510.3300
 Charge=              1.0000 electrons
 Dipole moment (field-independent basis, Debye):
    X=            -36.3787    Y=             -2.9798    Z=            -35.7393  Tot=             51.0841
 Quadrupole moment (field-independent basis, Debye-Ang):
   XX=             75.7368   YY=           -125.9382   ZZ=             46.9461
   XY=             46.3275   XZ=            273.5379   YZ=              8.6085
 Traceless Quadrupole moment (field-independent basis, Debye-Ang):
   XX=             76.8219   YY=           -124.8531   ZZ=             48.0312
   XY=             46.3275   XZ=            273.5379   YZ=              8.6085
 Octapole moment (field-independent basis, Debye-Ang**2):
  XXX=           2238.8472  YYY=            645.1503  ZZZ=           3069.7258  XYY=            675.6304
  XXY=           -195.4935  XXZ=           -551.4283  XZZ=           -493.3304  YZZ=            404.6420
  YYZ=            987.2188  XYZ=           -273.5305
 Hexadecapole moment (field-independent basis, Debye-Ang**3):
 XXXX=         -52279.5452 YYYY=          -9687.8057 ZZZZ=         -68071.8916 XXXY=          -3496.5141
 XXXZ=         -16968.0945 YYYX=          -5153.0374 YYYZ=          -4174.4666 ZZZX=         -20352.5567
 ZZZY=          -8718.2515 XXYY=          -6045.9984 XXZZ=          -8983.7950 YYZZ=         -11069.4085
 XXYZ=           1231.1640 YYXZ=          -5226.3424 ZZXY=          -1540.8934
 N-N= 5.195099303996D+03 E-N=-1.482938614753D+04  KE= 1.900902553511D+03
  Exact polarizability:       0.000       0.000       0.000       0.000       0.000       0.000
 Approx polarizability:     482.133       1.716     464.680     -15.038       3.690     425.932
 Calling FoFJK, ICntrl=    100127 FMM=F ISym2X=0 I1Cent= 0 IOpClX= 0 NMat=1 NMatS=1 NMatT=0.
 -------------------------------------------------------------------
 Center     Atomic                   Forces (Hartrees/Bohr)
 Number     Number              X              Y              Z
 -------------------------------------------------------------------
      1        7          -0.014910045    0.002910161   -0.008381676
      2        6          -0.010207543   -0.009290858    0.019338246
      3        6           0.000297649    0.008358834    0.006346452
      4        8          -0.004360338   -0.001480220    0.000522483
      5        6           0.003121594   -0.004737085   -0.001475753
      6        6           0.004253969   -0.012508111    0.011948084
      7        7           0.000789667    0.009350135    0.000536230
      8        8          -0.006725242    0.013594031   -0.015895055
      9        1          -0.001194980   -0.006912342   -0.006459299
     10        1           0.000335357    0.002541297   -0.004192181
     11        1           0.004151019   -0.000209769   -0.000447643
     12        1          -0.000785787    0.002189776    0.002441896
     13        1          -0.000722422   -0.005155978   -0.003063098
     14        1           0.000081634   -0.003748057    0.003210447
     15        1           0.002360362    0.008148842   -0.001625683
     16        1           0.026685720   -0.001551884   -0.006757977
     17        7          -0.007475357    0.000201179   -0.004230864
     18        6           0.004184991    0.002825609    0.006230543
     19        6          -0.010967048   -0.006124635   -0.005190794
     20        8           0.014719406   -0.000109045    0.007880673
     21        6           0.005335571    0.000559106   -0.000339248
     22        6           0.000183061    0.003298716   -0.000930568
     23        6          -0.005463551    0.001621775    0.004862211
     24        6           0.005862847   -0.000717738   -0.003043846
     25        6          -0.003108726    0.005862972    0.003021662
     26        6           0.003447546   -0.005407454   -0.007264881
     27        6          -0.005172770   -0.006276538   -0.004122064
     28        1           0.010362069   -0.003682224   -0.006876634
     29        1          -0.003245939   -0.000648786    0.003149784
     30        1           0.002153080    0.001123116    0.000281574
     31        1           0.002137622    0.000465346    0.002769249
     32        1          -0.001648427   -0.000132909    0.001178274
     33        1           0.001425779   -0.000644956   -0.000424756
     34        1          -0.001506315   -0.000996758    0.002156180
     35        1           0.001426950   -0.000909549    0.001576521
     36        1           0.000619379   -0.001119558    0.002160309
     37        7           0.001130883   -0.000468920    0.006186894
     38        6          -0.003965918   -0.003113496   -0.004352452
     39        6           0.008418821   -0.003916068    0.007426084
     40        8          -0.011766907   -0.002194410   -0.006079725
     41        6          -0.002256299    0.003346455    0.003917672
     42        6          -0.015657979    0.006307576   -0.002314945
     43        7           0.003812957   -0.010063343    0.002986885
     44        8           0.024561514   -0.003458405   -0.000674037
     45        1           0.002235483    0.008481414   -0.000634152
     46        1          -0.003337004    0.003241674   -0.002887386
     47        1          -0.002518180    0.001158131    0.003937165
     48        1          -0.002128191   -0.003627365   -0.000636123
     49        1           0.002291473    0.006297531   -0.001233457
     50        1          -0.005288391    0.003038990   -0.002437222
     51        7          -0.017178717    0.004370058    0.000511335
     52        6           0.004004511   -0.007954281   -0.008651376
     53        6           0.005354598    0.013420863   -0.006495848
     54        8           0.014558899   -0.000145703    0.003077919
     55        6          -0.003932992    0.002238062   -0.007447930
     56        6           0.000744214   -0.000433000   -0.006160930
     57        6           0.004061409    0.005823487   -0.001108041
     58        7          -0.002349095    0.004747142    0.001257677
     59        6           0.004551369   -0.004458703   -0.006884905
     60        7           0.000290200    0.003731704    0.002752759
     61        7          -0.001020835   -0.000619196   -0.001876778
     62        8          -0.029193533   -0.015777314    0.014373391
     63        1           0.007294826    0.002397069    0.011966842
     64        1           0.000376609   -0.001091575   -0.003911853
     65        1           0.001287353   -0.000249819    0.000310781
     66        1          -0.000151972    0.003415808   -0.001229277
     67        1          -0.000537136    0.000250438   -0.001393966
     68        1           0.001678491    0.001504296    0.002117108
     69        1           0.003584896    0.000869017    0.000254771
     70        1          -0.002296394   -0.000050876    0.001650961
     71        1          -0.002245877   -0.009243075   -0.005026713
     72        1          -0.000491955    0.000147807    0.004905554
     73        1          -0.000866529    0.005778469   -0.001239591
     74        1          -0.001521952   -0.002720885    0.005863583
     75        1           0.002026562   -0.001665995    0.000290529
 -------------------------------------------------------------------
 Cartesian Forces:  Max     0.029193533 RMS     0.006298470
 FormGI is forming the generalized inverse of G from B-inverse, IUseBI=4.

 GradGradGradGradGradGradGradGradGradGradGradGradGradGradGradGradGradGrad
 Berny optimization.
 Internal  Forces:  Max     0.040553403 RMS     0.008315934
 Search for a local minimum.
 Step number   1 out of a maximum of  399
 All quantities printed in internal units (Hartrees-Bohrs-Radians)
 Mixed Optimization -- RFO/linear search
 Second derivative matrix not updated -- analytic derivatives used.
 ITU=  0
     Eigenvalues ---   -0.00052   0.00083   0.00119   0.00196   0.00239
     Eigenvalues ---    0.00297   0.00312   0.00349   0.00364   0.00447
     Eigenvalues ---    0.00492   0.00527   0.00570   0.00714   0.00843
     Eigenvalues ---    0.00859   0.00947   0.01091   0.01241   0.01281
     Eigenvalues ---    0.01425   0.01493   0.01531   0.01729   0.01791
     Eigenvalues ---    0.01832   0.01863   0.01868   0.01880   0.01974
     Eigenvalues ---    0.02099   0.02145   0.02340   0.02408   0.02625
     Eigenvalues ---    0.02814   0.02841   0.02969   0.03086   0.03259
     Eigenvalues ---    0.03348   0.03570   0.03705   0.03746   0.03922
     Eigenvalues ---    0.04020   0.04081   0.04152   0.04164   0.04265
     Eigenvalues ---    0.04350   0.04406   0.04560   0.04581   0.04667
     Eigenvalues ---    0.04760   0.04808   0.04926   0.05075   0.05333
     Eigenvalues ---    0.05362   0.05509   0.05549   0.05801   0.05872
     Eigenvalues ---    0.06149   0.06414   0.06630   0.06735   0.07037
     Eigenvalues ---    0.07169   0.07529   0.08056   0.08151   0.08355
     Eigenvalues ---    0.08575   0.08704   0.08821   0.08977   0.09183
     Eigenvalues ---    0.09783   0.10983   0.11068   0.11290   0.11413
     Eigenvalues ---    0.11564   0.12020   0.12164   0.12401   0.12440
     Eigenvalues ---    0.12482   0.12663   0.12705   0.12876   0.13089
     Eigenvalues ---    0.13224   0.13343   0.13604   0.13829   0.14275
     Eigenvalues ---    0.14332   0.14606   0.15455   0.15859   0.16782
     Eigenvalues ---    0.16964   0.18123   0.18319   0.18991   0.19051
     Eigenvalues ---    0.19459   0.19665   0.19853   0.19915   0.20074
     Eigenvalues ---    0.20409   0.20550   0.20950   0.21185   0.21450
     Eigenvalues ---    0.22294   0.22472   0.22531   0.22685   0.22976
     Eigenvalues ---    0.23485   0.23940   0.24191   0.24750   0.25426
     Eigenvalues ---    0.25955   0.26522   0.27036   0.27497   0.27865
     Eigenvalues ---    0.27924   0.28231   0.28734   0.29564   0.29915
     Eigenvalues ---    0.30994   0.31188   0.31857   0.32079   0.32351
     Eigenvalues ---    0.33074   0.33262   0.33283   0.33590   0.33764
     Eigenvalues ---    0.33848   0.34036   0.34165   0.34234   0.34381
     Eigenvalues ---    0.34577   0.34633   0.34805   0.34876   0.34957
     Eigenvalues ---    0.35225   0.35302   0.35423   0.35638   0.35802
     Eigenvalues ---    0.35899   0.36057   0.36087   0.36320   0.36985
     Eigenvalues ---    0.37009   0.38166   0.38227   0.39704   0.41406
     Eigenvalues ---    0.41744   0.42376   0.42911   0.43184   0.44007
     Eigenvalues ---    0.44266   0.44997   0.45358   0.46476   0.46642
     Eigenvalues ---    0.46988   0.47252   0.47765   0.48005   0.48385
     Eigenvalues ---    0.48793   0.48939   0.49433   0.49505   0.49685
     Eigenvalues ---    0.49843   0.50042   0.50722   0.52038   0.52286
     Eigenvalues ---    0.52579   0.53236   0.54921   0.58784   0.61145
     Eigenvalues ---    0.64580   0.68497   0.76520   0.81517   0.82420
     Eigenvalues ---    0.83436   0.84059   0.85933   0.86966   1.10379
     Eigenvalues ---    1.27501   2.05899   2.74899   5.50114
 RFO step:  Lambda=-3.46052967D-02 EMin=-5.18735506D-04
 Linear search not attempted -- first point.
 Iteration  1 RMS(Cart)=  0.13516304 RMS(Int)=  0.01151621
 Iteration  2 RMS(Cart)=  0.10316276 RMS(Int)=  0.00126470
 Iteration  3 RMS(Cart)=  0.00248146 RMS(Int)=  0.00103028
 Iteration  4 RMS(Cart)=  0.00000286 RMS(Int)=  0.00103028
 Iteration  5 RMS(Cart)=  0.00000001 RMS(Int)=  0.00103028
 Variable       Old X    -DE/DX   Delta X   Delta X   Delta X     New X
                                 (Linear)    (Quad)   (Total)
    R1        2.77334   0.02460   0.00000   0.04829   0.04829   2.82163
    R2        1.93922   0.00898   0.00000   0.01882   0.01882   1.95805
    R3        1.93349   0.00712   0.00000   0.01740   0.01740   1.95089
    R4        1.93874   0.02717   0.00000   0.07643   0.07643   2.01517
    R5        2.87394   0.00896   0.00000   0.02327   0.02327   2.89721
    R6        2.87469   0.00239   0.00000   0.01681   0.01681   2.89150
    R7        2.06450  -0.00062   0.00000  -0.00250  -0.00250   2.06200
    R8        2.31567   0.00260   0.00000   0.00089   0.00089   2.31656
    R9        2.57279  -0.00294   0.00000   0.00628   0.00628   2.57906
   R10        2.86871   0.00233   0.00000   0.01082   0.01082   2.87953
   R11        2.06129   0.00418   0.00000   0.00785   0.00785   2.06914
   R12        2.06045   0.00156   0.00000   0.00568   0.00568   2.06613
   R13        2.55936  -0.00027   0.00000  -0.00871  -0.00871   2.55064
[...]
 00038151,-0.00090549,-0.00003125,-0.00012278,0.00001010,-0.00018472,-0
 .00037560,-0.00081503,0.00093571,0.00044317,0.00023158,-0.00005303,0.0
 0001716,-0.00005620,0.00003457,-0.00001057,-0.00000498,0.00003445,0.00
 006712,-0.00003157,-0.00006395,0.00006481,0.00002408,-0.00003842,0.000
 09686,0.00004368,0.00030345,0.00027152,-0.00034281,0.00000205,-0.00011
 555,0.00015382,0.00023264,-0.00028346,0.00009493,-0.00012924,0.0001823
 2,-0.00028273,-0.00015378,-0.00002410,0.00013732,-0.00079744,0.0004694
 5,-0.00051749,0.00247476,-0.00253483,-0.00024938,0.00033819,0.00009852
 ,-0.00332692,0.00909784,-0.02134095,0.02019637,-0.04230437,0.12708253,
 -0.13153567,-0.00003539,-0.00418803,-0.00418021,0.00000985,0.00018337,
 -0.00012325,-0.00014919,-0.00047696,0.00020881,0.00001217,0.00004824,-
 0.00002291,0.00011381,0.00005448,0.00001833,0.00002371,0.00001359,-0.0
 0004259,0.00006979,0.00015577,0.00042757,0.00002480,-0.00000808,0.0000
 4633,-0.00006306,0.00036808,-0.00024933,-0.00176608,0.00082015,-0.0017
 3615,-0.00052094,0.00004043,0.00010638,-0.01511746,0.02774876,-0.00357
 530,0.04744423,-0.12837883,0.12567229,-0.00009453,0.00013774,0.0001503
 6,0.00004152,0.00000026,-0.00013332,-0.00088523,-0.00014764,-0.0000951
 1,0.00047992,0.00007927,0.00005270,0.00009069,-0.00000513,0.00012298,-
 0.00009669,-0.00018430,-0.00015585,0.00002407,0.00015242,0.00005748,0.
 00004556,0.00011125,0.00011320,-0.00004263,-0.00007479,-0.00004362,0.0
 0000442,0.00001021,0.00004167,0.00000680,-0.00000156,-0.00003748,-0.00
 002247,-0.00001354,-0.00000281,0.00000534,-0.00001758,-0.00001980,-0.0
 0001065,-0.00003535,-0.00003112,-0.00005368,-0.00012605,-0.00008202,0.
 00029804,-0.00004710,-0.00006581,0.00062846,0.00054684,0.00043830,-0.0
 0013940,-0.00055234,-0.00087197,-0.01108523,0.00247478,-0.00561807,0.0
 0610397,-0.00067070,0.00182196,-0.00026216,0.00021330,0.00060091,-0.00
 005162,-0.00036584,-0.00023843,0.00008292,0.00025518,0.00002998,0.0002
 0074,0.00014924,-0.00011044,-0.00001244,-0.00002471,-0.00001197,-0.000
 02665,0.00000676,0.00002025,0.00003771,0.00005860,0.00002620,0.0001248
 7,-0.00017636,-0.00041679,0.00000129,0.00025076,0.00020159,-0.00007764
 ,-0.00093601,-0.00012913,0.00010803,-0.00013985,0.00004389,-0.00004677
 ,-0.00002474,0.00006171,0.00001841,-0.00004847,0.00002307,0.00002720,0
 .00002467,0.00000166,0.00001792,0.00004943,0.00002106,0.00000691,0.000
 02213,0.00000759,0.00219521,-0.00349395,0.00284061,-0.00142504,0.00024
 249,-0.00047282,0.00053781,-0.00040095,-0.00073772,0.00015171,0.000298
 57,0.00067096,0.00011660,0.00011642,0.00020680,0.00008698,0.00048107,-
 0.00043525,-0.00004055,-0.00026508,0.00025290,-0.00032648,-0.00048168,
 0.00038323,0.00046735,0.00074262,-0.00023523,0.00015908,-0.00004607,0.
 00013681,-0.00007901,0.00007011,-0.00001198,0.00001145,-0.00016073,0.0
 0006507,0.00004293,0.00002558,-0.00001147,-0.00001559,0.00004387,-0.00
 003748,-0.00044819,0.00009648,0.00072626,0.00009022,-0.00007593,-0.000
 34886,0.00215949,0.00027880,-0.00035691,-0.00186071,-0.00007859,-0.000
 74174,0.00005979,0.00006031,0.00003182,0.00012529,-0.00004706,0.000007
 17,0.00282604,-0.00002115,-0.00055253,0.00150728,0.00309142,-0.0010752
 9,-0.00204879,0.00229184,-0.01122393,-0.00297073,-0.00009632,-0.000572
 15,-0.05260856,-0.02778044,0.14783692,-0.00101906,-0.00043603,0.000684
 19,0.00038856,0.00019199,-0.00050646,0.00000287,0.00001612,0.00002071,
 -0.00005687,-0.00002669,0.00003970,-0.00003107,0.00001899,-0.00002718,
 -0.00004054,0.00002047,0.00000040,-0.00007610,-0.00002577,-0.00003674,
 -0.00014576,0.00044086,-0.00033673,0.00006205,-0.00019550,0.00028742,-
 0.00072593,0.00050447,0.00089095,0.00277868,0.00012162,0.00021676,-0.0
 0039847,-0.00009968,0.00003114,0.05572244,-0.00009514,-0.00010759,0.00
 000045,-0.00000127,0.00008709,-0.00006512,0.00003213,0.00001111,-0.000
 03041,-0.00000325,-0.00009279,0.00002543,0.00000162,0.00001447,0.00000
 744,-0.00002369,0.00009889,-0.00009150,0.00001048,-0.00007163,0.000022
 69,0.00002096,-0.00008375,0.00008549,0.00002568,0.00006232,0.00001392,
 -0.00000183,-0.00000946,0.00000580,-0.00000384,0.00001967,-0.00003963,
 -0.00002558,0.00000418,-0.00002168,-0.00000450,-0.00000349,0.00000125,
 -0.00002577,-0.00000192,-0.00003563,0.00003080,0.00010025,0.00002806,0
 .00013996,0.00002627,0.00000465,-0.00008387,-0.00047331,0.00015257,0.0
 0000852,0.00040036,-0.00056233,0.00361454,-0.00030568,0.00243406,-0.00
 371724,-0.00167001,-0.00070616,-0.00108681,0.00023525,0.00078217,0.000
 36572,-0.00034838,-0.00022890,0.00001629,0.00020874,0.00010636,-0.0000
 6265,0.00001856,0.00010398,0.00008070,-0.00001091,-0.00003584,0.000025
 86,-0.00002755,-0.00001516,0.00003741,0.00002178,0.00001875,-0.0000685
 2,0.00011410,-0.00019964,0.00011970,-0.00015984,0.00002520,-0.00014759
 ,-0.00062942,-0.00060670,-0.00003225,0.00005318,0.00000002,0.00000107,
 -0.00001130,-0.00002655,0.00000394,-0.00004400,-0.00007440,0.00001759,
 0.00002808,-0.00000727,-0.00000695,0.00001550,-0.00000260,0.00000905,0
 .00001522,-0.00000937,-0.00094938,0.00119508,-0.00080482,0.00049580,-0
 .00008314,0.00029702,0.00002520,0.00023105,0.00023331,-0.00017859,-0.0
 0019291,-0.00025254,-0.00008710,-0.00003577,-0.00007219,0.00020303,-0.
 00020459,0.00022762,-0.00006517,0.00013379,-0.00016127,-0.00019042,0.0
 0018138,-0.00021431,0.00003170,-0.00030185,0.00006680,-0.00008591,0.00
 005809,-0.00007218,0.00003241,-0.00003102,0.00000039,-0.00001089,0.000
 05448,-0.00002520,-0.00001174,-0.00000904,0.00002390,0.00001388,-0.000
 00544,0.00001273,0.00007161,-0.00001792,-0.00019579,-0.00007672,-0.000
 03332,0.00018047,0.00097407,0.00031283,-0.00030948,-0.00096676,0.00008
 613,-0.00074006,-0.00008337,-0.00002044,0.00002223,0.00001094,-0.00050
 951,0.00011101,0.00041785,0.00121251,0.00056961,0.00107514,-0.00640977
 ,0.00119252,-0.01258356,0.00083384,0.03686977,-0.00050090,0.00031591,-
 0.00084084,-0.01893317,-0.08284805,0.04083274,-0.00042326,-0.00039196,
 0.00027207,-0.00009467,-0.00003712,0.00026237,-0.00001225,0.00001800,-
 0.00003083,0.00003798,0.00001756,-0.00000773,0.00001526,0.00000516,0.0
 0000188,-0.00000815,0.00001189,-0.00001850,0.00006016,0.00009194,0.000
 14801,-0.00003666,-0.00000513,0.00001016,0.00004842,-0.00008948,0.0000
 7977,-0.00024801,-0.00076608,-0.00000555,0.00037872,-0.00330923,-0.000
 43893,0.00053281,0.00015621,-0.00024232,0.02088816,0.08136211,0.000257
 05,0.00003463,-0.00008610,-0.00005995,-0.00006314,0.00015212,0.0001312
 0,0.00000070,0.00002150,-0.00006042,-0.00005130,-0.00014969,-0.0000423
 9,0.00001158,-0.00006216,0.00003560,-0.00006973,0.00012318,0.00000401,
 0.00003454,-0.00004468,-0.00000791,0.00005578,-0.00010675,-0.00002235,
 -0.00004572,-0.00000912,0.00000062,0.00000027,-0.00003580,-0.00000909,
 -0.00002781,0.00004823,0.00002576,0.00000914,0.00001350,-0.00000855,0.
 00000037,0.00000665,0.00000941,0.00000616,0.00003562,-0.00002733,-0.00
 001604,0.00001338,-0.00049207,-0.00002226,0.00002753,-0.00019385,-0.00
 007812,-0.00038840,-0.00035596,0.00012761,0.00065335,0.00533716,-0.000
 63434,0.00449356,-0.00459708,-0.00074319,-0.00496454,-0.00031166,0.000
 15528,0.00003711,0.00009276,0.00014224,-0.00008954,-0.00004020,-0.0000
 5204,-0.00001038,-0.00014488,-0.00005682,0.00002318,0.00001222,0.00001
 192,-0.00000914,0.00002008,-0.00000503,-0.00003021,-0.00002594,-0.0000
 2737,-0.00002527,-0.00037609,-0.00007023,0.00030321,0.00004125,-0.0001
 1645,-0.00008030,0.00028851,0.00004383,0.00027523,0.00030634,0.0001240
 9,-0.00032828,0.00002917,0.00000283,-0.00001041,0.00002855,-0.00001266
 ,0.00003093,-0.00000529,-0.00000775,0.00000501,-0.00000081,-0.00002373
 ,0.00000258,0.00000267,-0.00001156,0.00000311,-0.00190454,0.00260119,-
 0.00260893,0.00088374,-0.00008200,0.00011979,-0.00116177,0.00037976,0.
 00072167,0.00036735,-0.00012616,-0.00035593,-0.00005729,-0.00005066,-0
 .00014730,-0.00049430,-0.00010158,0.00012228,0.00015325,-0.00002944,-0
 .00005346,0.00068488,0.00007670,-0.00027101,-0.00058867,-0.00032661,0.
 00045878,-0.00007317,0.00002432,-0.00006895,0.00005564,-0.00005700,0.0
 0000854,-0.00000062,0.00011935,-0.00003327,-0.00003515,0.00004460,0.00
 001559,-0.00001811,-0.00000144,0.00003745,0.00072070,-0.00023109,-0.00
 062198,-0.00003393,-0.00000185,0.00012470,-0.00169175,-0.00024994,-0.0
 0009030,0.00128715,0.00044831,0.00055527,-0.00014667,-0.00003833,-0.00
 003011,-0.00005028,-0.00025763,-0.00017591,0.00045267,0.00058316,-0.00
 031845,0.00141126,0.00006552,0.00554025,0.00056319,0.01312903,-0.01284
 234,-0.00079393,-0.00510649,-0.00141914,0.12320429,0.04074881,-0.38369
 255,0.00102204,0.00049065,-0.00033147,-0.00058893,0.00015278,0.0002126
 9,0.00001784,0.00000247,0.00000926,0.00007389,0.00005247,-0.00000109,0
 .00003400,-0.00002225,0.00001450,0.00002929,0.00001660,-0.00005458,0.0
 0004835,-0.00000410,0.00012696,0.00002687,-0.00017096,0.00015394,0.000
 07811,-0.00023841,0.00021244,-0.00040143,-0.00110277,-0.00045175,0.000
 36742,-0.00108296,0.00214785,-0.00063342,0.00013703,-0.00047098,-0.126
 74920,-0.05400547,0.40304693,0.00045930,0.00010481,0.00000312,-0.00004
 886,-0.00006914,0.00010299,-0.00061669,-0.00008360,-0.00003214,0.00034
 132,-0.00006169,-0.00018202,0.00001590,0.00002824,0.00001958,-0.000056
 62,-0.00026327,-0.00002467,0.00002721,0.00017733,0.00000655,0.00004946
 ,0.00016742,0.00000272,-0.00006547,-0.00012802,-0.00006826,0.00000870,
 0.00001171,-0.00002266,-0.00001256,-0.00005331,0.00003506,0.00001218,0
 .00000574,0.00000758,-0.00000579,-0.00001925,-0.00001340,-0.00000458,-
 0.00002705,0.00000241,-0.00006063,-0.00002199,-0.00004396,-0.00080879,
 -0.00002746,-0.00002790,0.00041368,0.00016762,-0.00010650,-0.00003384,
 0.00001776,0.00015060,0.00037525,0.00026609,0.00101650,-0.00148551,-0.
 00021012,-0.00001418,-0.00050707,0.00008292,0.00016122,0.00004782,-0.0
 0016113,-0.00012162,0.00000835,0.00011594,0.00002225,-0.00001731,0.000
 07766,-0.00004264,-0.00000201,-0.00000099,-0.00001002,0.00000282,-0.00
 002821,-0.00003456,0.00001489,0.00001955,-0.00000300,-0.00054725,-0.00
 012764,0.00024318,0.00002628,-0.00003294,-0.00001375,0.00030432,-0.000
 23174,0.00017337,0.00017800,0.00001984,-0.00013918,-0.00000769,-0.0000
 1212,0.00002459,0.00007149,-0.00007322,0.00002669,0.00001401,0.0000108
 0,0.00000319,0.00001385,0.00001907,0.00001709,0.00001163,0.00000847,0.
 00000600,-0.00011280,0.00013048,-0.00047671,0.00005716,0.00007054,0.00
 009125,-0.00083338,0.00011890,0.00019464,0.00043417,-0.00002717,0.0000
 5621,-0.00003137,0.00002340,-0.00003511,-0.00000432,0.00015276,-0.0000
 6533,0.00000819,-0.00012177,0.00004130,0.00006248,-0.00015921,0.000019
 17,0.00003555,0.00004570,0.00004820,-0.00001014,0.00000101,-0.00002756
 ,-0.00000195,-0.00002864,-0.00000519,-0.00000793,0.00001037,0.00001439
 ,0.00001314,0.00003415,0.00000865,-0.00001316,0.00003261,0.00000579,0.
 00050645,-0.00059137,-0.00002095,-0.00000812,0.00021318,-0.00058086,-0
 .00440288,0.00020612,-0.00100205,0.00065312,-0.00067198,0.00239789,0.0
 0012644,0.00007347,-0.00014256,0.00008473,0.00007917,0.00001043,-0.001
 47596,-0.00022451,0.00008959,-0.00235633,-0.00062385,0.00121162,-0.005
 06285,0.00960905,0.00175920,0.00323559,-0.00023733,-0.00074866,-0.0113
 3444,-0.04391772,-0.01746224,0.00142766,0.00068653,0.00023212,-0.00005
 748,0.00053689,0.00005618,0.00001972,-0.00006365,0.00005261,-0.0000256
 0,-0.00000145,0.00000488,-0.00005675,-0.00008207,0.00004831,0.00005405
 ,0.00004870,-0.00000184,-0.00002975,-0.00005577,-0.00002771,0.00006140
 ,-0.00035427,0.00027747,-0.00001053,0.00022860,-0.00006770,0.00327050,
 0.00053620,-0.00011280,-0.00087191,-0.00029498,-0.00066637,0.00267590,
 0.00091479,-0.00010733,-0.00062141,0.01106232,0.00410066,0.01648702,0.
 00006340,-0.00011505,-0.00001978,0.00000781,0.00005214,-0.00001773,0.0
 0006827,0.00006834,0.00002427,-0.00002437,-0.00008055,-0.00001747,-0.0
 0002796,0.00001745,-0.00000815,-0.00003491,0.00006813,-0.00006548,0.00
 003715,-0.00006009,0.00000223,0.00003273,-0.00006634,0.00005845,0.0000
 1313,0.00005404,0.00000582,0.00000208,-0.00000882,-0.00000117,-0.00001
 858,0.00000948,-0.00000541,-0.00000560,0.00000296,-0.00001217,-0.00001
 906,-0.00000300,0.00000428,-0.00003069,0.00000033,-0.00000863,0.000037
 10,0.00013814,0.00002732,-0.00015537,0.00005303,0.00000977,-0.00009646
 ,-0.00029125,0.00002777,0.00006084,0.00020363,-0.00008263,0.00132853,0
 .00005507,0.00050677,-0.00180210,-0.00006495,0.00024379,-0.00034476,-0
 .00002663,0.00013047,0.00014518,0.00004921,-0.00003071,-0.00001565,-0.
 00001466,0.00001640,-0.00026136,-0.00002664,0.00015531,0.00004270,0.00
 000608,-0.00000829,0.00007209,-0.00003113,-0.00005363,0.00001331,0.000
 00230,0.00000445,-0.00008945,0.00020213,0.00003054,0.00002719,-0.00008
 093,-0.00000857,0.00005782,0.00018381,-0.00002754,0.00008659,0.0000176
 1,-0.00007198,0.00002236,-0.00000416,-0.00002710,0.00001396,-0.0000426
 8,-0.00001519,0.00000723,0.00000365,-0.00000668,-0.00001751,-0.0000188
 5,0.00000067,0.00001521,0.00000814,-0.00000924,-0.00042273,0.00030575,
 -0.00017836,0.00020902,-0.00001437,0.00004165,0.00030760,0.00005345,-0
 .00002630,-0.00029390,-0.00017366,-0.00015637,-0.00004752,-0.00002030,
 -0.00001893,0.00027648,-0.00011927,0.00011867,-0.00007350,0.00010525,-
 0.00007980,-0.00025571,0.00012257,0.00000568,0.00005647,-0.00011239,-0
 .00001728,-0.00002949,0.00002774,-0.00002179,0.00001112,-0.00001149,0.
 00000037,-0.00000849,0.00001492,-0.00001087,0.00001131,-0.00002982,0.0
 0000074,0.00001839,-0.00000912,0.00000332,-0.00009119,-0.00015298,0.00
 007330,0.00023782,0.00004948,0.00001389,-0.00031238,0.00041727,-0.0003
 3266,0.00003897,-0.00197993,0.00012756,0.00013520,-0.00001051,-0.00006
 747,0.00005131,0.00024374,0.00012463,0.00059655,-0.00067793,0.00072648
 ,-0.00028399,0.00199817,-0.00387674,-0.00248099,-0.02892075,-0.0215905
 6,0.00086140,-0.00127178,0.00481685,-0.02386394,-0.28682721,-0.1743233
 8,0.00033078,-0.00037579,0.00057410,0.00033914,-0.00018187,-0.00000619
 ,-0.00000141,-0.00006875,0.00000091,-0.00005847,-0.00001659,-0.0000378
 2,-0.00003163,-0.00003200,0.00002814,-0.00000272,-0.00001850,0.0000518
 5,-0.00007229,-0.00003681,-0.00011884,-0.00003337,0.00034118,-0.000269
 82,-0.00005969,0.00022976,-0.00017141,0.00047094,0.00091727,0.00335614
 ,0.00000410,-0.00004135,0.00006087,-0.00045529,-0.00052845,-0.00093848
 ,0.00273857,0.01153981,0.00558869,0.02297273,0.30500535,0.00067477,0.0
 0005557,-0.00009929,-0.00007006,-0.00012445,0.00023664,-0.00000319,0.0
 0005381,0.00012732,0.00002289,-0.00005483,-0.00017958,-0.00004330,0.00
 002353,-0.00006457,0.00000394,-0.00021324,0.00013889,0.00002329,0.0001
 2731,-0.00005102,0.00002289,0.00015115,-0.00012839,-0.00006306,-0.0001
 2183,-0.00004988,0.00000881,0.00001575,-0.00005592,-0.00000879,-0.0000
 6197,0.00009642,0.00004320,0.00001181,0.00002210,-0.00001661,-0.000007
 65,0.00000086,0.00001010,-0.00000421,0.00004724,-0.00003871,0.00004833
 ,-0.00000015,-0.00128180,0.00002859,0.00000573,-0.00000785,0.00000560,
 -0.00052217,0.00020601,-0.00004797,0.00038257,0.00041222,-0.00024959,-
 0.00005359,0.00037278,-0.00006924,-0.00020569,0.00048266,-0.00011712,-
 0.00034203,-0.00011780,0.00018600,0.00013834,-0.00002940,-0.00010586,-
 0.00005237,0.00002091,-0.00002530,-0.00009350,-0.00004777,0.00001263,0
 .00001007,-0.00002772,0.00001410,-0.00001019,-0.00003484,-0.00003390,-
 0.00002902,-0.00025088,0.00004220,0.00083867,-0.00002189,0.00003619,-0
 .00007651,-0.00018153,0.00008201,0.00014725,-0.00009705,-0.00000616,0.
 00003362,0.00001230,0.00000475,0.00001116,0.00002388,0.00002916,0.0000
 7998,-0.00000773,-0.00001702,0.00000767,0.00000635,-0.00002312,0.00000
 836,-0.00000309,-0.00001301,0.00001155,-0.00008782,0.00009177,-0.00009
 947,0.00018685,0.00003062,0.00017584,-0.00069125,0.00001658,0.00025648
 ,0.00027698,-0.00009692,-0.00012969,-0.00006548,0.00002303,-0.00005893
 ,0.00039557,-0.00003215,0.00016972,-0.00012880,0.00005662,-0.00016359,
 -0.00050543,0.00005672,-0.00014913,0.00018650,-0.00000455,-0.00005814,
 -0.00002201,-0.00001825,-0.00005304,0.00000406,-0.00004180,-0.00000662
 ,-0.00002486,0.00002007,0.00000969,0.00000816,0.00000816,0.00003794,0.
 00000545,0.00003215,0.00001457,0.00070423,-0.00062672,-0.00018692,0.00
 032124,0.00031865,-0.00026748,-0.00845975,-0.00106775,0.00115909,0.005
 94544,-0.00127567,0.00135658,0.00019767,-0.00000538,-0.00021722,-0.000
 01394,0.00022598,0.00019707,0.00048668,-0.00051221,0.00014137,0.000014
 91,0.00077349,-0.00398977,0.00098142,0.01043705,0.02135866,-0.00092211
 ,0.00567591,-0.00190768,-0.00560993,-0.18298366,-0.22577188,0.00364268
 ,0.00191648,-0.00117780,0.00025902,0.00017449,0.00014183,0.00006157,-0
 .00017640,0.00004720,-0.00005785,0.00000835,-0.00005895,-0.00004012,-0
 .00012828,0.00007246,0.00007665,0.00004345,-0.00010755,-0.00004221,-0.
 00007857,-0.00006587,-0.00009133,0.00012131,-0.00012819,-0.00000583,-0
 .00006467,-0.00000041,-0.00008457,0.00491843,-0.00120145,0.00002515,0.
 00027764,-0.00051872,0.00000589,0.00051140,0.00096312,-0.00663293,-0.0
 2403580,-0.00942763,0.00970616,0.18577845,0.21931393\\0.00000279,-0.00
 000072,0.00000054,0.00000241,0.00000215,-0.00000368,-0.00000228,-0.000
 00126,0.00000183,0.00000126,0.00000082,0.00000081,-0.00000071,-0.00000
 012,0.00000044,0.00000116,0.00000026,-0.00000123,-0.00000012,-0.000000
 17,-0.00000045,-0.00000010,-0.00000146,0.00000095,0.00000068,0.0000000
 6,-0.00000024,0.00000007,-0.00000005,0.00000056,0.00000060,0.00000019,
 0.00000033,-0.00000050,-0.00000038,-0.00000082,-0.00000006,0.00000044,
 0.00000011,0.00000032,0.00000032,0.00000035,-0.00000048,-0.00000127,0.
 00000003,0.00000127,-0.00000120,0.00000114,-0.00000002,0.00000790,0.00
 000004,0.00000053,-0.00000371,0.00000017,-0.00000575,0.00000066,0.0000
 0255,-0.00000045,-0.00000223,0.00000275,0.00000037,0.00000085,-0.00000
 164,-0.00000094,0.00000063,0.00000126,-0.00000008,-0.00000017,-0.00000
 097,-0.00000245,0.00000077,-0.00000048,0.00000003,-0.00000028,0.000000
 64,-0.00000042,0.00000006,-0.00000046,0.00000074,0.00000061,0.00000035
 ,0.00000117,-0.00000141,-0.00000220,-0.00000113,0.00000021,-0.00000131
 ,0.00000059,-0.00000042,0.00000048,-0.00000016,-0.00000008,-0.00000023
 ,-0.00000029,0.00000015,0.00000014,0.00000024,-0.00000074,0.00000134,-
 0.00000019,0.00000019,-0.00000037,-0.00000052,0.00000036,-0.00000002,-
 0.00000041,0.00000004,0.00000003,0.00000390,0.00000312,0.00000831,-0.0
 0000412,-0.00000860,-0.00000007,0.00000773,0.00000210,0.00000051,-0.00
 000240,0.00000310,0.00000015,0.00000016,-0.00000183,-0.00000136,-0.000
 00269,0.00000464,-0.00000308,0.00000137,-0.00000134,0.00000323,0.00000
 047,0.00000262,-0.00000144,-0.00000272,0.00000016,-0.00000272,-0.00000
 077,-0.00000355,0.00000038,0.00000048,0.00000065,0.00000014,0.00000042
 ,-0.00000057,-0.00000015,0.00000008,-0.00000026,0.00000006,0.00000065,
 -0.00000047,-0.00000032,-0.00000789,0.00001032,-0.00000883,0.00000237,
 -0.00000860,0.00000421,0.00000251,-0.00000258,-0.00000181,-0.00000078,
 0.00000406,0.00000164,0.00000159,0.00000268,0.00000251,-0.00000144,-0.
 00000191,0.00000097,0.00000425,0.00000249,-0.00000101,-0.00000431,-0.0
 0000285,0.00000177,0.00000069,0.00000313,0.00000210,0.00000292,-0.0000
 0242,-0.00000078,0.00000316,-0.00000510,-0.00000513,-0.00000638,-0.000
 00065,0.00000018,0.00000014,-0.00000068,-0.00000106,0.00000088,-0.0000
 0079,-0.00000005,0.00000048,0.00000008,0.,-0.00000030,-0.00000089,-0.0
 0000057,-0.00000010,-0.00000053,0.00000062,0.00000088,-0.00000059,-0.0
 0000042,0.00000014,-0.00000010,-0.00000007,0.00000109,-0.00000132,0.00
 000008,0.00000125,0.00000178,-0.00000009,0.00000049,0.00000093,-0.0000
 0237,-0.00000015,-0.00000042,0.00000091,-0.00000094,0.00000092,-0.0000
 0053,-0.00000025,0.00000224,0.00000134\\\@
 The archive entry for this job was punched.


 Make no judgements where you have no compassion.
                               -- Anne McCaffrey
 Job cpu time:       0 days  8 hours 42 minutes 10.8 seconds.
 Elapsed time:       0 days  1 hours  5 minutes 21.1 seconds.
 File lengths (MBytes):  RWF=   3960 Int=      0 D2E=      0 Chk=     48 Scr=     16
 Normal termination of Gaussian 16 at Tue May 31 21:37:56 2022.
