 Entering Gaussian System, Link 0=/opt/software/Gaussian/g16-AVX2-C.01/g16/g16
 Input=opt_freq-conf-255.com
 Output=opt_freq-conf-255.log
 Initial command:
 /opt/software/Gaussian/g16-AVX2-C.01/g16/l1.exe "/mnt/gs18/scratch/users/kengmith/Gau-77917.inp" -scrdir="/mnt/gs18/scratch/users/kengmith/"
 Entering Link 1 = /opt/software/Gaussian/g16-AVX2-C.01/g16/l1.exe PID=     77927.
  
 Copyright (c) 1988-2019, Gaussian, Inc.  All Rights Reserved.
  
 This is part of the Gaussian(R) 16 program.  It is based on
 the Gaussian(R) 09 system (copyright 2009, Gaussian, Inc.),
 the Gaussian(R) 03 system (copyright 2003, Gaussian, Inc.),
 the Gaussian(R) 98 system (copyright 1998, Gaussian, Inc.),
 the Gaussian(R) 94 system (copyright 1995, Gaussian, Inc.),
 the Gaussian 92(TM) system (copyright 1992, Gaussian, Inc.),
 the Gaussian 90(TM) system (copyright 1990, Gaussian, Inc.),
 the Gaussian 88(TM) system (copyright 1988, Gaussian, Inc.),
 the Gaussian 86(TM) system (copyright 1986, Carnegie Mellon
 University), and the Gaussian 82(TM) system (copyright 1983,
 Carnegie Mellon University). Gaussian is a federally registered
 trademark of Gaussian, Inc.
  
 This software contains proprietary and confidential information,
 including trade secrets, belonging to Gaussian, Inc.
  
 This software is provided under written license and may be
 used, copied, transmitted, or stored only in accord with that
 written license.
  
 The following legend is applicable only to US Government
 contracts under FAR:
  
                    RESTRICTED RIGHTS LEGEND
  
 Use, reproduction and disclosure by the US Government is
 subject to restrictions as set forth in subparagraphs (a)
 and (c) of the Commercial Computer Software - Restricted
 Rights clause in FAR 52.227-19.
  
 Gaussian, Inc.
 340 Quinnipiac St., Bldg. 40, Wallingford CT 06492
  
  
 ---------------------------------------------------------------
 Warning -- This program may not be used in any manner that
 competes with the business of Gaussian, Inc. or will provide
 assistance to any competitor of Gaussian, Inc.  The licensee
 of this program is prohibited from giving any competitor of
 Gaussian, Inc. access to this program.  By using this program,
 the user acknowledges that Gaussian, Inc. is engaged in the
 business of creating and licensing software in the field of
 computational chemistry and represents and warrants to the
 licensee that it is not a competitor of Gaussian, Inc. and that
 it will not use this program in any manner prohibited above.
 ---------------------------------------------------------------
  

 Cite this work as:
 Gaussian 16, Revision C.01,
 M. J. Frisch, G. W. Trucks, H. B. Schlegel, G. E. Scuseria, 
 M. A. Robb, J. R. Cheeseman, G. Scalmani, V. Barone, 
 G. A. Petersson, H. Nakatsuji, X. Li, M. Caricato, A. V. Marenich, 
 J. Bloino, B. G. Janesko, R. Gomperts, B. Mennucci, H. P. Hratchian, 
 J. V. Ortiz, A. F. Izmaylov, J. L. Sonnenberg, D. Williams-Young, 
 F. Ding, F. Lipparini, F. Egidi, J. Goings, B. Peng, A. Petrone, 
 T. Henderson, D. Ranasinghe, V. G. Zakrzewski, J. Gao, N. Rega, 
 G. Zheng, W. Liang, M. Hada, M. Ehara, K. Toyota, R. Fukuda, 
 J. Hasegawa, M. Ishida, T. Nakajima, Y. Honda, O. Kitao, H. Nakai, 
 T. Vreven, K. Throssell, J. A. Montgomery, Jr., J. E. Peralta, 
 F. Ogliaro, M. J. Bearpark, J. J. Heyd, E. N. Brothers, K. N. Kudin, 
 V. N. Staroverov, T. A. Keith, R. Kobayashi, J. Normand, 
 K. Raghavachari, A. P. Rendell, J. C. Burant, S. S. Iyengar, 
 J. Tomasi, M. Cossi, J. M. Millam, M. Klene, C. Adamo, R. Cammi, 
 J. W. Ochterski, R. L. Martin, K. Morokuma, O. Farkas, 
 J. B. Foresman, and D. J. Fox, Gaussian, Inc., Wallingford CT, 2019.
 
 ******************************************
 Gaussian 16:  ES64L-G16RevC.01  3-Jul-2019
                31-May-2022 
 ******************************************
 %mem=12gb
 %nproc=8
 Will use up to    8 processors via shared memory.
 %chk=conf-255.chk
 ----------------------------------------------------------------------
 # B3LYP/6-31G* empiricaldispersion=gd3 opt=calcfc freq=noraman nosymm 
 integral(ultrafinegrid)
 ----------------------------------------------------------------------
 1/10=4,18=20,19=15,26=4,38=1/1,3;
 2/9=110,12=2,15=1,17=6,18=5,40=1/2;
 3/5=1,6=6,7=1,11=2,25=1,30=1,71=2,74=-5,75=-5,124=31,140=1/1,2,3;
 4//1;
 5/5=2,38=5/2;
 8/6=4,10=90,11=11/1;
 11/6=1,8=1,9=11,15=111,16=1,31=1/1,2,10;
 10/6=1,13=1,31=1/2;
 6/7=2,8=2,9=2,10=2,28=1/1;
 7/10=1,25=1,30=1/1,2,3,16;
 1/10=4,18=20,19=15,26=4/3(2);
 2/9=110,15=1/2;
 99//99;
 2/9=110,15=1/2;
 3/5=1,6=6,7=1,11=2,25=1,30=1,71=1,74=-5,75=-5,124=31/1,2,3;
 4/5=5,16=3,69=1/1;
 5/5=2,38=5/2;
 7/30=1/1,2,3,16;
 1/18=20,19=15,26=4/3(-5);
 2/9=110,15=1/2;
 6/7=2,8=2,9=2,10=2,19=2,28=1/1;
 99/9=1/99;
 ------------------------------------------------------------
 Candidate Structure: Conf:255 OPT and FREQ calc in gas phase
 ------------------------------------------------------------
 Symbolic Z-matrix:
 Charge =  1 Multiplicity = 1
 N                    -4.48108  -1.49839  -6.99052 
 C                    -4.35037  -1.82894  -8.41224 
 C                    -5.57043  -1.37861  -9.21423 
 O                    -5.42776  -0.63563  -10.18036 
 C                    -4.10448  -3.31456  -8.64404 
 C                    -2.82001  -3.81877  -8.01114 
 N                    -2.33387  -4.9595   -8.56095 
 O                    -2.27652  -3.25265  -7.07706 
 H                    -5.32257  -1.96076  -6.57056 
 H                    -3.50892  -1.26992  -8.83251 
 H                    -4.93817  -3.90094  -8.25099 
 H                    -4.08267  -3.49521  -9.72133 
 H                    -1.51481  -5.37316  -8.15075 
 H                    -2.85402  -5.46175  -9.25832 
 H                    -3.63067  -1.82214  -6.51708 
 H                    -4.58188  -0.48762  -6.89103 
 N                    -6.77824  -1.8991   -8.8527 
 C                    -7.85956  -1.86414  -9.80932 
 C                    -9.17333  -1.38933  -9.17548 
 O                    -10.11905  -2.1597   -8.99091 
 C                    -8.05025  -3.23195  -10.48666 
 C                    -6.78874  -3.83568  -11.04597 
 C                    -6.05479  -3.18957  -12.03665 
 C                    -6.3166   -5.04809  -10.55002 
 C                    -4.87023  -3.74033  -12.52015 
 C                    -5.14863  -5.61123  -11.04426 
 C                    -4.41609  -4.95874  -12.0294 
 H                    -6.8869   -2.35751  -7.95479 
 H                    -7.56984  -1.12817  -10.55526 
 H                    -8.47757  -3.92685  -9.76295 
 H                    -8.79801  -3.10095  -11.27178 
 H                    -6.40525  -2.23271  -12.41319 
 H                    -6.8647   -5.54213  -9.75356 
 H                    -4.29778  -3.20297  -13.26584 
 H                    -4.78431  -6.54373  -10.62179 
 H                    -3.47596  -5.37469  -12.37788 
 N                    -9.28296  -0.07835  -8.83716 
 C                    -8.22596   0.85884  -8.53368 
 C                    -7.371     0.48789  -7.30904 
 O                    -6.18758   0.80381  -7.24584 
 C                    -8.82281   2.25203  -8.30357 
 C                    -9.57679   2.37173  -6.95287 
 N                    -9.01876   3.29811  -6.10989 
 O                    -10.56644   1.65909  -6.69794 
 H                    -10.21669   0.14521  -8.53263 
 H                    -7.53882   0.89447  -9.3732 
 H                    -9.56319   2.45446  -9.07146 
 H                    -8.04077   3.00369  -8.35055 
 H                    -9.55648   3.56738  -5.30537 
 H                    -8.29494   3.89694  -6.4525 
 N                    -8.03605  -0.12895  -6.30793 
 C                    -7.38899  -0.57252  -5.10525 
 C                    -7.2722   -2.10718  -5.09979 
 O                    -7.50982  -2.75404  -4.08091 
 C                    -7.96049   0.06801  -3.83291 
 C                    -9.46131   0.35634  -3.78023 
 C                    -10.38389  -0.80289  -3.42828 
 N                    -10.15105  -2.02993  -4.1852 
 C                    -10.43608  -2.21627  -5.47539 
 N                    -11.28713  -1.40516  -6.12032 
 N                    -9.92104  -3.28668  -6.09273 
 O                    -6.87085  -2.60943  -6.19989 
 H                    -9.00705  -0.33325  -6.44113 
 H                    -6.35189  -0.23582  -5.20985 
 H                    -7.65191  -0.53179  -2.97558 
 H                    -7.44338   1.03163  -3.73769 
 H                    -9.62946   1.13346  -3.02305 
 H                    -9.78911   0.77169  -4.72063 
 H                    -10.24238  -1.08115  -2.38148 
 H                    -11.43133  -0.4967   -3.53522 
 H                    -9.33119  -2.55306  -3.8627 
 H                    -11.39179  -1.51013  -7.11769 
 H                    -11.55692  -0.51881  -5.72708 
 H                    -10.00023  -3.3218   -7.09812 
 H                    -9.08332  -3.70802  -5.70619 
 

 GradGradGradGradGradGradGradGradGradGradGradGradGradGradGradGradGradGrad
 Berny optimization.
 Initialization pass.
                           ----------------------------
                           !    Initial Parameters    !
                           ! (Angstroms and Degrees)  !
 --------------------------                            --------------------------
 ! Name  Definition              Value          Derivative Info.                !
 --------------------------------------------------------------------------------
 ! R1    R(1,2)                  1.4655         calculate D2E/DX2 analytically  !
 ! R2    R(1,9)                  1.048          calculate D2E/DX2 analytically  !
 ! R3    R(1,15)                 1.0257         calculate D2E/DX2 analytically  !
 ! R4    R(1,16)                 1.0206         calculate D2E/DX2 analytically  !
 ! R5    R(2,3)                  1.5279         calculate D2E/DX2 analytically  !
 ! R6    R(2,5)                  1.5236         calculate D2E/DX2 analytically  !
 ! R7    R(2,10)                 1.0942         calculate D2E/DX2 analytically  !
 ! R8    R(3,4)                  1.2271         calculate D2E/DX2 analytically  !
 ! R9    R(3,17)                 1.364          calculate D2E/DX2 analytically  !
 ! R10   R(5,6)                  1.5181         calculate D2E/DX2 analytically  !
 ! R11   R(5,11)                 1.0924         calculate D2E/DX2 analytically  !
 ! R12   R(5,12)                 1.0926         calculate D2E/DX2 analytically  !
 ! R13   R(6,7)                  1.3564         calculate D2E/DX2 analytically  !
 ! R14   R(6,8)                  1.22           calculate D2E/DX2 analytically  !
 ! R15   R(7,13)                 1.0051         calculate D2E/DX2 analytically  !
 ! R16   R(7,14)                 1.0046         calculate D2E/DX2 analytically  !
 ! R17   R(17,18)                1.4442         calculate D2E/DX2 analytically  !
 ! R18   R(17,28)                1.014          calculate D2E/DX2 analytically  !
 ! R19   R(18,19)                1.534          calculate D2E/DX2 analytically  !
 ! R20   R(18,21)                1.5382         calculate D2E/DX2 analytically  !
 ! R21   R(18,29)                1.0872         calculate D2E/DX2 analytically  !
 ! R22   R(19,20)                1.2337         calculate D2E/DX2 analytically  !
 ! R23   R(19,37)                1.3584         calculate D2E/DX2 analytically  !
 ! R24   R(21,22)                1.5062         calculate D2E/DX2 analytically  !
 ! R25   R(21,30)                1.0905         calculate D2E/DX2 analytically  !
 ! R26   R(21,31)                1.0921         calculate D2E/DX2 analytically  !
 ! R27   R(22,23)                1.392          calculate D2E/DX2 analytically  !
 ! R28   R(22,24)                1.3924         calculate D2E/DX2 analytically  !
 ! R29   R(23,25)                1.3929         calculate D2E/DX2 analytically  !
 ! R30   R(23,32)                1.0864         calculate D2E/DX2 analytically  !
 ! R31   R(24,26)                1.3876         calculate D2E/DX2 analytically  !
 ! R32   R(24,33)                1.0858         calculate D2E/DX2 analytically  !
 ! R33   R(25,27)                1.3898         calculate D2E/DX2 analytically  !
 ! R34   R(25,34)                1.0828         calculate D2E/DX2 analytically  !
 ! R35   R(26,27)                1.3903         calculate D2E/DX2 analytically  !
 ! R36   R(26,35)                1.0866         calculate D2E/DX2 analytically  !
 ! R37   R(27,36)                1.0855         calculate D2E/DX2 analytically  !
 ! R38   R(37,38)                1.4449         calculate D2E/DX2 analytically  !
 ! R39   R(37,45)                1.0073         calculate D2E/DX2 analytically  !
 ! R40   R(38,39)                1.5389         calculate D2E/DX2 analytically  !
 ! R41   R(38,41)                1.533          calculate D2E/DX2 analytically  !
 ! R42   R(38,46)                1.0855         calculate D2E/DX2 analytically  !
 ! R43   R(39,40)                1.2265         calculate D2E/DX2 analytically  !
 ! R44   R(39,51)                1.3509         calculate D2E/DX2 analytically  !
 ! R45   R(41,42)                1.5515         calculate D2E/DX2 analytically  !
 ! R46   R(41,47)                1.0857         calculate D2E/DX2 analytically  !
 ! R47   R(41,48)                1.0857         calculate D2E/DX2 analytically  !
 ! R48   R(42,43)                1.3712         calculate D2E/DX2 analytically  !
 ! R49   R(42,44)                1.2459         calculate D2E/DX2 analytically  !
 ! R50   R(43,49)                1.0044         calculate D2E/DX2 analytically  !
 ! R51   R(43,50)                1.0            calculate D2E/DX2 analytically  !
 ! R52   R(51,52)                1.4359         calculate D2E/DX2 analytically  !
 ! R53   R(51,63)                1.0012         calculate D2E/DX2 analytically  !
 ! R54   R(52,53)                1.5391         calculate D2E/DX2 analytically  !
 ! R55   R(52,55)                1.5348         calculate D2E/DX2 analytically  !
 ! R56   R(52,64)                1.0954         calculate D2E/DX2 analytically  !
 ! R57   R(53,54)                1.23           calculate D2E/DX2 analytically  !
 ! R58   R(53,62)                1.2742         calculate D2E/DX2 analytically  !
 ! R59   R(55,56)                1.5292         calculate D2E/DX2 analytically  !
 ! R60   R(55,65)                1.0909         calculate D2E/DX2 analytically  !
 ! R61   R(55,66)                1.0977         calculate D2E/DX2 analytically  !
 ! R62   R(56,57)                1.5228         calculate D2E/DX2 analytically  !
 ! R63   R(56,67)                1.098          calculate D2E/DX2 analytically  !
 ! R64   R(56,68)                1.079          calculate D2E/DX2 analytically  !
 ! R65   R(57,58)                1.4604         calculate D2E/DX2 analytically  !
 ! R66   R(57,69)                1.0924         calculate D2E/DX2 analytically  !
 ! R67   R(57,70)                1.0965         calculate D2E/DX2 analytically  !
 ! R68   R(58,59)                1.3344         calculate D2E/DX2 analytically  !
 ! R69   R(58,71)                1.0246         calculate D2E/DX2 analytically  !
 ! R70   R(59,60)                1.3409         calculate D2E/DX2 analytically  !
 ! R71   R(59,61)                1.3387         calculate D2E/DX2 analytically  !
 ! R72   R(60,72)                1.0083         calculate D2E/DX2 analytically  !
 ! R73   R(60,73)                1.0065         calculate D2E/DX2 analytically  !
 ! R74   R(61,74)                1.0091         calculate D2E/DX2 analytically  !
 ! R75   R(61,75)                1.0143         calculate D2E/DX2 analytically  !
 ! A1    A(2,1,9)              111.1533         calculate D2E/DX2 analytically  !
 ! A2    A(2,1,15)             107.616          calculate D2E/DX2 analytically  !
 ! A3    A(2,1,16)             109.0715         calculate D2E/DX2 analytically  !
 ! A4    A(9,1,15)             109.9685         calculate D2E/DX2 analytically  !
 ! A5    A(9,1,16)             108.5761         calculate D2E/DX2 analytically  !
 ! A6    A(15,1,16)            110.4545         calculate D2E/DX2 analytically  !
 ! A7    A(1,2,3)              111.8092         calculate D2E/DX2 analytically  !
 ! A8    A(1,2,5)              112.4536         calculate D2E/DX2 analytically  !
 ! A9    A(1,2,10)             109.0251         calculate D2E/DX2 analytically  !
 ! A10   A(3,2,5)              109.6584         calculate D2E/DX2 analytically  !
 ! A11   A(3,2,10)             105.182          calculate D2E/DX2 analytically  !
 ! A12   A(5,2,10)             108.3995         calculate D2E/DX2 analytically  !
 ! A13   A(2,3,4)              119.9259         calculate D2E/DX2 analytically  !
 ! A14   A(2,3,17)             117.0963         calculate D2E/DX2 analytically  !
 ! A15   A(4,3,17)             122.8669         calculate D2E/DX2 analytically  !
 ! A16   A(2,5,6)              113.3893         calculate D2E/DX2 analytically  !
 ! A17   A(2,5,11)             110.212          calculate D2E/DX2 analytically  !
 ! A18   A(2,5,12)             108.3286         calculate D2E/DX2 analytically  !
 ! A19   A(6,5,11)             108.5077         calculate D2E/DX2 analytically  !
 ! A20   A(6,5,12)             109.8328         calculate D2E/DX2 analytically  !
 ! A21   A(11,5,12)            106.3354         calculate D2E/DX2 analytically  !
 ! A22   A(5,6,7)              114.4289         calculate D2E/DX2 analytically  !
 ! A23   A(5,6,8)              122.8208         calculate D2E/DX2 analytically  !
 ! A24   A(7,6,8)              122.7467         calculate D2E/DX2 analytically  !
 ! A25   A(6,7,13)             118.2126         calculate D2E/DX2 analytically  !
 ! A26   A(6,7,14)             121.0827         calculate D2E/DX2 analytically  !
 ! A27   A(13,7,14)            119.967          calculate D2E/DX2 analytically  !
 ! A28   A(3,17,18)            118.5684         calculate D2E/DX2 analytically  !
 ! A29   A(3,17,28)            120.1405         calculate D2E/DX2 analytically  !
 ! A30   A(18,17,28)           121.1501         calculate D2E/DX2 analytically  !
 ! A31   A(17,18,19)           112.027          calculate D2E/DX2 analytically  !
 ! A32   A(17,18,21)           111.2835         calculate D2E/DX2 analytically  !
 ! A33   A(17,18,29)           105.7446         calculate D2E/DX2 analytically  !
 ! A34   A(19,18,21)           110.5488         calculate D2E/DX2 analytically  !
 ! A35   A(19,18,29)           107.5888         calculate D2E/DX2 analytically  !
 ! A36   A(21,18,29)           109.4432         calculate D2E/DX2 analytically  !
 ! A37   A(18,19,20)           121.6732         calculate D2E/DX2 analytically  !
 ! A38   A(18,19,37)           118.0835         calculate D2E/DX2 analytically  !
 ! A39   A(20,19,37)           120.2343         calculate D2E/DX2 analytically  !
 ! A40   A(18,21,22)           114.5889         calculate D2E/DX2 analytically  !
 ! A41   A(18,21,30)           108.8436         calculate D2E/DX2 analytically  !
 ! A42   A(18,21,31)           107.1443         calculate D2E/DX2 analytically  !
 ! A43   A(22,21,30)           108.6145         calculate D2E/DX2 analytically  !
 ! A44   A(22,21,31)           110.7675         calculate D2E/DX2 analytically  !
 ! A45   A(30,21,31)           106.5724         calculate D2E/DX2 analytically  !
 ! A46   A(21,22,23)           121.321          calculate D2E/DX2 analytically  !
 ! A47   A(21,22,24)           120.049          calculate D2E/DX2 analytically  !
 ! A48   A(23,22,24)           118.6117         calculate D2E/DX2 analytically  !
 ! A49   A(22,23,25)           120.7906         calculate D2E/DX2 analytically  !
 ! A50   A(22,23,32)           119.0404         calculate D2E/DX2 analytically  !
 ! A51   A(25,23,32)           120.1512         calculate D2E/DX2 analytically  !
 ! A52   A(22,24,26)           120.7909         calculate D2E/DX2 analytically  !
 ! A53   A(22,24,33)           119.098          calculate D2E/DX2 analytically  !
 ! A54   A(26,24,33)           120.1001         calculate D2E/DX2 analytically  !
 ! A55   A(23,25,27)           120.1282         calculate D2E/DX2 analytically  !
 ! A56   A(23,25,34)           119.4983         calculate D2E/DX2 analytically  !
 ! A57   A(27,25,34)           120.3628         calculate D2E/DX2 analytically  !
 ! A58   A(24,26,27)           120.3582         calculate D2E/DX2 analytically  !
 ! A59   A(24,26,35)           119.4712         calculate D2E/DX2 analytically  !
 ! A60   A(27,26,35)           120.1055         calculate D2E/DX2 analytically  !
 ! A61   A(25,27,26)           119.3066         calculate D2E/DX2 analytically  !
 ! A62   A(25,27,36)           120.3696         calculate D2E/DX2 analytically  !
 ! A63   A(26,27,36)           120.2635         calculate D2E/DX2 analytically  !
 ! A64   A(19,37,38)           128.263          calculate D2E/DX2 analytically  !
 ! A65   A(19,37,45)           111.366          calculate D2E/DX2 analytically  !
 ! A66   A(38,37,45)           118.0787         calculate D2E/DX2 analytically  !
 ! A67   A(37,38,39)           114.6588         calculate D2E/DX2 analytically  !
 ! A68   A(37,38,41)           109.6445         calculate D2E/DX2 analytically  !
 ! A69   A(37,38,46)           108.7802         calculate D2E/DX2 analytically  !
 ! A70   A(39,38,41)           108.4154         calculate D2E/DX2 analytically  !
 ! A71   A(39,38,46)           105.7649         calculate D2E/DX2 analytically  !
 ! A72   A(41,38,46)           109.4341         calculate D2E/DX2 analytically  !
 ! A73   A(38,39,40)           120.9952         calculate D2E/DX2 analytically  !
 ! A74   A(38,39,51)           115.2318         calculate D2E/DX2 analytically  !
 ! A75   A(40,39,51)           123.671          calculate D2E/DX2 analytically  !
 ! A76   A(38,41,42)           112.9534         calculate D2E/DX2 analytically  !
 ! A77   A(38,41,47)           109.1938         calculate D2E/DX2 analytically  !
 ! A78   A(38,41,48)           110.0135         calculate D2E/DX2 analytically  !
 ! A79   A(42,41,47)           105.661          calculate D2E/DX2 analytically  !
 ! A80   A(42,41,48)           109.5299         calculate D2E/DX2 analytically  !
 ! A81   A(47,41,48)           109.3605         calculate D2E/DX2 analytically  !
 ! A82   A(41,42,43)           112.9271         calculate D2E/DX2 analytically  !
 ! A83   A(41,42,44)           121.3332         calculate D2E/DX2 analytically  !
 ! A84   A(43,42,44)           125.7258         calculate D2E/DX2 analytically  !
 ! A85   A(42,43,49)           117.1079         calculate D2E/DX2 analytically  !
 ! A86   A(42,43,50)           119.2443         calculate D2E/DX2 analytically  !
 ! A87   A(49,43,50)           120.0923         calculate D2E/DX2 analytically  !
 ! A88   A(39,51,52)           122.6767         calculate D2E/DX2 analytically  !
 ! A89   A(39,51,63)           118.1665         calculate D2E/DX2 analytically  !
 ! A90   A(52,51,63)           119.0418         calculate D2E/DX2 analytically  !
 ! A91   A(51,52,53)           110.1933         calculate D2E/DX2 analytically  !
 ! A92   A(51,52,55)           113.429          calculate D2E/DX2 analytically  !
 ! A93   A(51,52,64)           104.5788         calculate D2E/DX2 analytically  !
 ! A94   A(53,52,55)           116.1949         calculate D2E/DX2 analytically  !
 ! A95   A(53,52,64)           103.5912         calculate D2E/DX2 analytically  !
 ! A96   A(55,52,64)           107.6627         calculate D2E/DX2 analytically  !
 ! A97   A(52,53,54)           120.8405         calculate D2E/DX2 analytically  !
 ! A98   A(52,53,62)           114.4478         calculate D2E/DX2 analytically  !
 ! A99   A(54,53,62)           124.6609         calculate D2E/DX2 analytically  !
 ! A100  A(52,55,56)           118.2094         calculate D2E/DX2 analytically  !
 ! A101  A(52,55,65)           108.4645         calculate D2E/DX2 analytically  !
 ! A102  A(52,55,66)           105.2386         calculate D2E/DX2 analytically  !
 ! A103  A(56,55,65)           110.7461         calculate D2E/DX2 analytically  !
 ! A104  A(56,55,66)           107.0873         calculate D2E/DX2 analytically  !
 ! A105  A(65,55,66)           106.3337         calculate D2E/DX2 analytically  !
 ! A106  A(55,56,57)           117.3254         calculate D2E/DX2 analytically  !
 ! A107  A(55,56,67)           107.9106         calculate D2E/DX2 analytically  !
 ! A108  A(55,56,68)           109.9201         calculate D2E/DX2 analytically  !
 ! A109  A(57,56,67)           106.6564         calculate D2E/DX2 analytically  !
 ! A110  A(57,56,68)           108.0836         calculate D2E/DX2 analytically  !
 ! A111  A(67,56,68)           106.3827         calculate D2E/DX2 analytically  !
 ! A112  A(56,57,58)           115.0391         calculate D2E/DX2 analytically  !
 ! A113  A(56,57,69)           109.6893         calculate D2E/DX2 analytically  !
 ! A114  A(56,57,70)           110.0982         calculate D2E/DX2 analytically  !
 ! A115  A(58,57,69)           105.1883         calculate D2E/DX2 analytically  !
 ! A116  A(58,57,70)           109.656          calculate D2E/DX2 analytically  !
 ! A117  A(69,57,70)           106.7589         calculate D2E/DX2 analytically  !
 ! A118  A(57,58,59)           125.7612         calculate D2E/DX2 analytically  !
 ! A119  A(57,58,71)           113.1677         calculate D2E/DX2 analytically  !
 ! A120  A(59,58,71)           113.8249         calculate D2E/DX2 analytically  !
 ! A121  A(58,59,60)           121.0726         calculate D2E/DX2 analytically  !
 ! A122  A(58,59,61)           118.3824         calculate D2E/DX2 analytically  !
 ! A123  A(60,59,61)           120.4004         calculate D2E/DX2 analytically  !
 ! A124  A(59,60,72)           118.5963         calculate D2E/DX2 analytically  !
 ! A125  A(59,60,73)           120.9902         calculate D2E/DX2 analytically  !
 ! A126  A(72,60,73)           116.763          calculate D2E/DX2 analytically  !
 ! A127  A(59,61,74)           117.1985         calculate D2E/DX2 analytically  !
 ! A128  A(59,61,75)           118.3057         calculate D2E/DX2 analytically  !
 ! A129  A(74,61,75)           115.4718         calculate D2E/DX2 analytically  !
 ! D1    D(9,1,2,3)             59.8521         calculate D2E/DX2 analytically  !
 ! D2    D(9,1,2,5)            -64.0268         calculate D2E/DX2 analytically  !
 ! D3    D(9,1,2,10)           175.7236         calculate D2E/DX2 analytically  !
 ! D4    D(15,1,2,3)          -179.68           calculate D2E/DX2 analytically  !
 ! D5    D(15,1,2,5)            56.4411         calculate D2E/DX2 analytically  !
 ! D6    D(15,1,2,10)          -63.8085         calculate D2E/DX2 analytically  !
 ! D7    D(16,1,2,3)           -59.8302         calculate D2E/DX2 analytically  !
 ! D8    D(16,1,2,5)           176.2909         calculate D2E/DX2 analytically  !
 ! D9    D(16,1,2,10)           56.0413         calculate D2E/DX2 analytically  !
 ! D10   D(1,2,3,4)            124.2001         calculate D2E/DX2 analytically  !
 ! D11   D(1,2,3,17)           -59.518          calculate D2E/DX2 analytically  !
 ! D12   D(5,2,3,4)           -110.3642         calculate D2E/DX2 analytically  !
 ! D13   D(5,2,3,17)            65.9178         calculate D2E/DX2 analytically  !
 ! D14   D(10,2,3,4)             6.0102         calculate D2E/DX2 analytically  !
 ! D15   D(10,2,3,17)         -177.7078         calculate D2E/DX2 analytically  !
 ! D16   D(1,2,5,6)            -61.4271         calculate D2E/DX2 analytically  !
 ! D17   D(1,2,5,11)            60.4288         calculate D2E/DX2 analytically  !
 ! D18   D(1,2,5,12)           176.3857         calculate D2E/DX2 analytically  !
 ! D19   D(3,2,5,6)            173.508          calculate D2E/DX2 analytically  !
 ! D20   D(3,2,5,11)           -64.6361         calculate D2E/DX2 analytically  !
 ! D21   D(3,2,5,12)            51.3208         calculate D2E/DX2 analytically  !
 ! D22   D(10,2,5,6)            59.1832         calculate D2E/DX2 analytically  !
 ! D23   D(10,2,5,11)         -178.9609         calculate D2E/DX2 analytically  !
 ! D24   D(10,2,5,12)          -63.004          calculate D2E/DX2 analytically  !
 ! D25   D(2,3,17,18)         -160.0419         calculate D2E/DX2 analytically  !
 ! D26   D(2,3,17,28)           15.692          calculate D2E/DX2 analytically  !
 ! D27   D(4,3,17,18)           16.1215         calculate D2E/DX2 analytically  !
 ! D28   D(4,3,17,28)         -168.1445         calculate D2E/DX2 analytically  !
 ! D29   D(2,5,6,7)           -158.1028         calculate D2E/DX2 analytically  !
 ! D30   D(2,5,6,8)             22.572          calculate D2E/DX2 analytically  !
 ! D31   D(11,5,6,7)            79.0951         calculate D2E/DX2 analytically  !
 ! D32   D(11,5,6,8)          -100.2301         calculate D2E/DX2 analytically  !
 ! D33   D(12,5,6,7)           -36.7559         calculate D2E/DX2 analytically  !
 ! D34   D(12,5,6,8)           143.9189         calculate D2E/DX2 analytically  !
 ! D35   D(5,6,7,13)          -176.4948         calculate D2E/DX2 analytically  !
 ! D36   D(5,6,7,14)            -6.3394         calculate D2E/DX2 analytically  !
 ! D37   D(8,6,7,13)             2.8309         calculate D2E/DX2 analytically  !
 ! D38   D(8,6,7,14)           172.9864         calculate D2E/DX2 analytically  !
 ! D39   D(3,17,18,19)        -134.4796         calculate D2E/DX2 analytically  !
 ! D40   D(3,17,18,21)         101.1903         calculate D2E/DX2 analytically  !
 ! D41   D(3,17,18,29)         -17.5597         calculate D2E/DX2 analytically  !
 ! D42   D(28,17,18,19)         49.8313         calculate D2E/DX2 analytically  !
 ! D43   D(28,17,18,21)        -74.4988         calculate D2E/DX2 analytically  !
 ! D44   D(28,17,18,29)        166.7512         calculate D2E/DX2 analytically  !
 ! D45   D(17,18,19,20)       -109.4605         calculate D2E/DX2 analytically  !
 ! D46   D(17,18,19,37)         71.631          calculate D2E/DX2 analytically  !
 ! D47   D(21,18,19,20)         15.2777         calculate D2E/DX2 analytically  !
 ! D48   D(21,18,19,37)       -163.6309         calculate D2E/DX2 analytically  !
 ! D49   D(29,18,19,20)        134.7337         calculate D2E/DX2 analytically  !
 ! D50   D(29,18,19,37)        -44.1748         calculate D2E/DX2 analytically  !
 ! D51   D(17,18,21,22)        -50.2433         calculate D2E/DX2 analytically  !
 ! D52   D(17,18,21,30)         71.5651         calculate D2E/DX2 analytically  !
 ! D53   D(17,18,21,31)       -173.5578         calculate D2E/DX2 analytically  !
 ! D54   D(19,18,21,22)       -175.4038         calculate D2E/DX2 analytically  !
 ! D55   D(19,18,21,30)        -53.5955         calculate D2E/DX2 analytically  !
 ! D56   D(19,18,21,31)         61.2817         calculate D2E/DX2 analytically  !
 ! D57   D(29,18,21,22)         66.2655         calculate D2E/DX2 analytically  !
 ! D58   D(29,18,21,30)       -171.9261         calculate D2E/DX2 analytically  !
 ! D59   D(29,18,21,31)        -57.049          calculate D2E/DX2 analytically  !
 ! D60   D(18,19,37,38)        -24.4724         calculate D2E/DX2 analytically  !
 ! D61   D(18,19,37,45)        173.3041         calculate D2E/DX2 analytically  !
 ! D62   D(20,19,37,38)        156.6027         calculate D2E/DX2 analytically  !
 ! D63   D(20,19,37,45)         -5.6208         calculate D2E/DX2 analytically  !
 ! D64   D(18,21,22,23)        -60.6256         calculate D2E/DX2 analytically  !
 ! D65   D(18,21,22,24)        117.7952         calculate D2E/DX2 analytically  !
 ! D66   D(30,21,22,23)        177.4411         calculate D2E/DX2 analytically  !
 ! D67   D(30,21,22,24)         -4.1381         calculate D2E/DX2 analytically  !
 ! D68   D(31,21,22,23)         60.7223         calculate D2E/DX2 analytically  !
 ! D69   D(31,21,22,24)       -120.8569         calculate D2E/DX2 analytically  !
 ! D70   D(21,22,23,25)        178.2353         calculate D2E/DX2 analytically  !
 ! D71   D(21,22,23,32)         -0.2347         calculate D2E/DX2 analytically  !
 ! D72   D(24,22,23,25)         -0.2077         calculate D2E/DX2 analytically  !
 ! D73   D(24,22,23,32)       -178.6777         calculate D2E/DX2 analytically  !
 ! D74   D(21,22,24,26)       -179.321          calculate D2E/DX2 analytically  !
 ! D75   D(21,22,24,33)         -0.5252         calculate D2E/DX2 analytically  !
 ! D76   D(23,22,24,26)         -0.8577         calculate D2E/DX2 analytically  !
 ! D77   D(23,22,24,33)        177.9381         calculate D2E/DX2 analytically  !
 ! D78   D(22,23,25,27)          0.968          calculate D2E/DX2 analytically  !
 ! D79   D(22,23,25,34)       -177.8484         calculate D2E/DX2 analytically  !
 ! D80   D(32,23,25,27)        179.421          calculate D2E/DX2 analytically  !
 ! D81   D(32,23,25,34)          0.6046         calculate D2E/DX2 analytically  !
 ! D82   D(22,24,26,27)          1.1705         calculate D2E/DX2 analytically  !
 ! D83   D(22,24,26,35)        178.2403         calculate D2E/DX2 analytically  !
 ! D84   D(33,24,26,27)       -177.6133         calculate D2E/DX2 analytically  !
 ! D85   D(33,24,26,35)         -0.5436         calculate D2E/DX2 analytically  !
 ! D86   D(23,25,27,26)         -0.6582         calculate D2E/DX2 analytically  !
 ! D87   D(23,25,27,36)       -177.8433         calculate D2E/DX2 analytically  !
 ! D88   D(34,25,27,26)        178.1478         calculate D2E/DX2 analytically  !
 ! D89   D(34,25,27,36)          0.9627         calculate D2E/DX2 analytically  !
 ! D90   D(24,26,27,25)         -0.3987         calculate D2E/DX2 analytically  !
 ! D91   D(24,26,27,36)        176.7894         calculate D2E/DX2 analytically  !
 ! D92   D(35,26,27,25)       -177.4498         calculate D2E/DX2 analytically  !
 ! D93   D(35,26,27,36)         -0.2617         calculate D2E/DX2 analytically  !
 ! D94   D(19,37,38,39)        -61.7595         calculate D2E/DX2 analytically  !
 ! D95   D(19,37,38,41)        176.0351         calculate D2E/DX2 analytically  !
 ! D96   D(19,37,38,46)         56.3962         calculate D2E/DX2 analytically  !
 ! D97   D(45,37,38,39)         99.4415         calculate D2E/DX2 analytically  !
 ! D98   D(45,37,38,41)        -22.7639         calculate D2E/DX2 analytically  !
 ! D99   D(45,37,38,46)       -142.4028         calculate D2E/DX2 analytically  !
 ! D100  D(37,38,39,40)        149.1626         calculate D2E/DX2 analytically  !
 ! D101  D(37,38,39,51)        -34.3789         calculate D2E/DX2 analytically  !
 ! D102  D(41,38,39,40)        -87.9675         calculate D2E/DX2 analytically  !
 ! D103  D(41,38,39,51)         88.491          calculate D2E/DX2 analytically  !
 ! D104  D(46,38,39,40)         29.3153         calculate D2E/DX2 analytically  !
 ! D105  D(46,38,39,51)       -154.2261         calculate D2E/DX2 analytically  !
 ! D106  D(37,38,41,42)         72.9888         calculate D2E/DX2 analytically  !
 ! D107  D(37,38,41,47)        -44.2592         calculate D2E/DX2 analytically  !
 ! D108  D(37,38,41,48)       -164.2843         calculate D2E/DX2 analytically  !
 ! D109  D(39,38,41,42)        -52.8678         calculate D2E/DX2 analytically  !
 ! D110  D(39,38,41,47)       -170.1158         calculate D2E/DX2 analytically  !
 ! D111  D(39,38,41,48)         69.8591         calculate D2E/DX2 analytically  !
 ! D112  D(46,38,41,42)       -167.7737         calculate D2E/DX2 analytically  !
 ! D113  D(46,38,41,47)         74.9783         calculate D2E/DX2 analytically  !
 ! D114  D(46,38,41,48)        -45.0468         calculate D2E/DX2 analytically  !
 ! D115  D(38,39,51,52)        178.5262         calculate D2E/DX2 analytically  !
 ! D116  D(38,39,51,63)          2.4673         calculate D2E/DX2 analytically  !
 ! D117  D(40,39,51,52)         -5.1217         calculate D2E/DX2 analytically  !
 ! D118  D(40,39,51,63)        178.8194         calculate D2E/DX2 analytically  !
 ! D119  D(38,41,42,43)        117.8275         calculate D2E/DX2 analytically  !
 ! D120  D(38,41,42,44)        -60.8889         calculate D2E/DX2 analytically  !
 ! D121  D(47,41,42,43)       -122.8627         calculate D2E/DX2 analytically  !
 ! D122  D(47,41,42,44)         58.421          calculate D2E/DX2 analytically  !
 ! D123  D(48,41,42,43)         -5.1685         calculate D2E/DX2 analytically  !
 ! D124  D(48,41,42,44)        176.1151         calculate D2E/DX2 analytically  !
 ! D125  D(41,42,43,49)        167.5727         calculate D2E/DX2 analytically  !
 ! D126  D(41,42,43,50)          8.7986         calculate D2E/DX2 analytically  !
 ! D127  D(44,42,43,49)        -13.7779         calculate D2E/DX2 analytically  !
 ! D128  D(44,42,43,50)       -172.552          calculate D2E/DX2 analytically  !
 ! D129  D(39,51,52,53)       -107.2448         calculate D2E/DX2 analytically  !
 ! D130  D(39,51,52,55)        120.5353         calculate D2E/DX2 analytically  !
 ! D131  D(39,51,52,64)          3.5101         calculate D2E/DX2 analytically  !
 ! D132  D(63,51,52,53)         68.7811         calculate D2E/DX2 analytically  !
 ! D133  D(63,51,52,55)        -63.4388         calculate D2E/DX2 analytically  !
 ! D134  D(63,51,52,64)        179.536          calculate D2E/DX2 analytically  !
 ! D135  D(51,52,53,54)       -137.3007         calculate D2E/DX2 analytically  !
 ! D136  D(51,52,53,62)         45.1753         calculate D2E/DX2 analytically  !
 ! D137  D(55,52,53,54)         -6.5264         calculate D2E/DX2 analytically  !
 ! D138  D(55,52,53,62)        175.9496         calculate D2E/DX2 analytically  !
 ! D139  D(64,52,53,54)        111.3014         calculate D2E/DX2 analytically  !
 ! D140  D(64,52,53,62)        -66.2226         calculate D2E/DX2 analytically  !
 ! D141  D(51,52,55,56)         35.3366         calculate D2E/DX2 analytically  !
 ! D142  D(51,52,55,65)        162.4142         calculate D2E/DX2 analytically  !
 ! D143  D(51,52,55,66)        -84.1163         calculate D2E/DX2 analytically  !
 ! D144  D(53,52,55,56)        -93.8942         calculate D2E/DX2 analytically  !
 ! D145  D(53,52,55,65)         33.1834         calculate D2E/DX2 analytically  !
 ! D146  D(53,52,55,66)        146.6529         calculate D2E/DX2 analytically  !
 ! D147  D(64,52,55,56)        150.5434         calculate D2E/DX2 analytically  !
 ! D148  D(64,52,55,65)        -82.379          calculate D2E/DX2 analytically  !
 ! D149  D(64,52,55,66)         31.0905         calculate D2E/DX2 analytically  !
 ! D150  D(52,55,56,57)         81.3685         calculate D2E/DX2 analytically  !
 ! D151  D(52,55,56,67)       -158.2297         calculate D2E/DX2 analytically  !
 ! D152  D(52,55,56,68)        -42.6095         calculate D2E/DX2 analytically  !
 ! D153  D(65,55,56,57)        -44.6119         calculate D2E/DX2 analytically  !
 ! D154  D(65,55,56,67)         75.7899         calculate D2E/DX2 analytically  !
 ! D155  D(65,55,56,68)       -168.5899         calculate D2E/DX2 analytically  !
 ! D156  D(66,55,56,57)       -160.1465         calculate D2E/DX2 analytically  !
 ! D157  D(66,55,56,67)        -39.7447         calculate D2E/DX2 analytically  !
 ! D158  D(66,55,56,68)         75.8755         calculate D2E/DX2 analytically  !
 ! D159  D(55,56,57,58)        -49.097          calculate D2E/DX2 analytically  !
 ! D160  D(55,56,57,69)         69.2158         calculate D2E/DX2 analytically  !
 ! D161  D(55,56,57,70)       -173.5874         calculate D2E/DX2 analytically  !
 ! D162  D(67,56,57,58)       -170.1553         calculate D2E/DX2 analytically  !
 ! D163  D(67,56,57,69)        -51.8424         calculate D2E/DX2 analytically  !
 ! D164  D(67,56,57,70)         65.3543         calculate D2E/DX2 analytically  !
 ! D165  D(68,56,57,58)         75.8033         calculate D2E/DX2 analytically  !
 ! D166  D(68,56,57,69)       -165.8839         calculate D2E/DX2 analytically  !
 ! D167  D(68,56,57,70)        -48.6871         calculate D2E/DX2 analytically  !
 ! D168  D(56,57,58,59)        -71.3512         calculate D2E/DX2 analytically  !
 ! D169  D(56,57,58,71)         76.8235         calculate D2E/DX2 analytically  !
 ! D170  D(69,57,58,59)        167.8422         calculate D2E/DX2 analytically  !
 ! D171  D(69,57,58,71)        -43.9831         calculate D2E/DX2 analytically  !
 ! D172  D(70,57,58,59)         53.3709         calculate D2E/DX2 analytically  !
 ! D173  D(70,57,58,71)       -158.4544         calculate D2E/DX2 analytically  !
 ! D174  D(57,58,59,60)        -17.7964         calculate D2E/DX2 analytically  !
 ! D175  D(57,58,59,61)        166.5585         calculate D2E/DX2 analytically  !
 ! D176  D(71,58,59,60)       -165.7932         calculate D2E/DX2 analytically  !
 ! D177  D(71,58,59,61)         18.5618         calculate D2E/DX2 analytically  !
 ! D178  D(58,59,60,72)        172.7733         calculate D2E/DX2 analytically  !
 ! D179  D(58,59,60,73)         15.0015         calculate D2E/DX2 analytically  !
 ! D180  D(61,59,60,72)        -11.6691         calculate D2E/DX2 analytically  !
 ! D181  D(61,59,60,73)       -169.4409         calculate D2E/DX2 analytically  !
 ! D182  D(58,59,61,74)       -168.8215         calculate D2E/DX2 analytically  !
 ! D183  D(58,59,61,75)        -23.1347         calculate D2E/DX2 analytically  !
 ! D184  D(60,59,61,74)         15.5031         calculate D2E/DX2 analytically  !
 ! D185  D(60,59,61,75)        161.1899         calculate D2E/DX2 analytically  !
 --------------------------------------------------------------------------------
 Trust Radius=3.00D-01 FncErr=1.00D-07 GrdErr=1.00D-06 EigMax=2.50D+02 EigMin=1.00D-04
 Number of steps in this run=    399 maximum allowed number of steps=    450.
 GradGradGradGradGradGradGradGradGradGradGradGradGradGradGradGradGradGrad

 Symmetry turned off by external request.
 Stoichiometry    C23H36N9O7(1+)
 Framework group  C1[X(C23H36N9O7)]
 Deg. of freedom   219
 Full point group                 C1      NOp   1
                          Input orientation:                          
 ---------------------------------------------------------------------
 Center     Atomic      Atomic             Coordinates (Angstroms)
 Number     Number       Type             X           Y           Z
 ---------------------------------------------------------------------
      1          7           0       -4.481076   -1.498392   -6.990517
      2          6           0       -4.350369   -1.828943   -8.412238
      3          6           0       -5.570426   -1.378606   -9.214228
      4          8           0       -5.427758   -0.635629  -10.180360
      5          6           0       -4.104478   -3.314564   -8.644040
      6          6           0       -2.820012   -3.818767   -8.011135
      7          7           0       -2.333867   -4.959499   -8.560954
      8          8           0       -2.276519   -3.252654   -7.077062
      9          1           0       -5.322567   -1.960758   -6.570563
     10          1           0       -3.508921   -1.269916   -8.832506
     11          1           0       -4.938169   -3.900943   -8.250989
     12          1           0       -4.082668   -3.495210   -9.721335
     13          1           0       -1.514815   -5.373164   -8.150747
     14          1           0       -2.854025   -5.461746   -9.258320
     15          1           0       -3.630670   -1.822138   -6.517083
     16          1           0       -4.581883   -0.487622   -6.891030
     17          7           0       -6.778239   -1.899103   -8.852695
     18          6           0       -7.859556   -1.864137   -9.809324
     19          6           0       -9.173326   -1.389331   -9.175485
     20          8           0      -10.119055   -2.159705   -8.990911
     21          6           0       -8.050252   -3.231951  -10.486659
     22          6           0       -6.788738   -3.835685  -11.045966
     23          6           0       -6.054789   -3.189569  -12.036648
     24          6           0       -6.316596   -5.048087  -10.550021
     25          6           0       -4.870227   -3.740327  -12.520151
     26          6           0       -5.148629   -5.611229  -11.044260
     27          6           0       -4.416093   -4.958736  -12.029401
     28          1           0       -6.886902   -2.357508   -7.954793
     29          1           0       -7.569844   -1.128165  -10.555256
     30          1           0       -8.477572   -3.926850   -9.762954
     31          1           0       -8.798009   -3.100950  -11.271780
     32          1           0       -6.405246   -2.232709  -12.413189
     33          1           0       -6.864703   -5.542133   -9.753557
     34          1           0       -4.297778   -3.202969  -13.265840
     35          1           0       -4.784310   -6.543726  -10.621792
     36          1           0       -3.475956   -5.374693  -12.377879
     37          7           0       -9.282961   -0.078347   -8.837162
     38          6           0       -8.225963    0.858840   -8.533679
     39          6           0       -7.371002    0.487890   -7.309042
     40          8           0       -6.187578    0.803806   -7.245840
     41          6           0       -8.822807    2.252035   -8.303570
     42          6           0       -9.576786    2.371732   -6.952868
     43          7           0       -9.018764    3.298107   -6.109889
     44          8           0      -10.566445    1.659087   -6.697943
     45          1           0      -10.216690    0.145209   -8.532632
     46          1           0       -7.538818    0.894466   -9.373204
     47          1           0       -9.563190    2.454456   -9.071459
     48          1           0       -8.040771    3.003688   -8.350552
     49          1           0       -9.556479    3.567380   -5.305375
     50          1           0       -8.294938    3.896943   -6.452497
     51          7           0       -8.036046   -0.128949   -6.307928
     52          6           0       -7.388990   -0.572521   -5.105254
     53          6           0       -7.272204   -2.107182   -5.099785
     54          8           0       -7.509824   -2.754042   -4.080907
     55          6           0       -7.960489    0.068005   -3.832910
     56          6           0       -9.461306    0.356340   -3.780226
     57          6           0      -10.383887   -0.802891   -3.428279
     58          7           0      -10.151048   -2.029932   -4.185196
     59          6           0      -10.436078   -2.216274   -5.475393
     60          7           0      -11.287132   -1.405164   -6.120319
     61          7           0       -9.921038   -3.286681   -6.092732
     62          8           0       -6.870852   -2.609430   -6.199889
     63          1           0       -9.007049   -0.333246   -6.441133
     64          1           0       -6.351887   -0.235816   -5.209849
     65          1           0       -7.651913   -0.531788   -2.975582
     66          1           0       -7.443376    1.031626   -3.737689
     67          1           0       -9.629464    1.133457   -3.023047
     68          1           0       -9.789105    0.771688   -4.720630
     69          1           0      -10.242376   -1.081154   -2.381482
     70          1           0      -11.431329   -0.496702   -3.535223
     71          1           0       -9.331194   -2.553064   -3.862702
     72          1           0      -11.391795   -1.510132   -7.117692
     73          1           0      -11.556920   -0.518808   -5.727084
     74          1           0      -10.000228   -3.321796   -7.098119
     75          1           0       -9.083318   -3.708021   -5.706185
 ---------------------------------------------------------------------
 Rotational constants (GHZ):           0.1564877           0.0710567           0.0663317
 Standard basis: 6-31G(d) (6D, 7F)
   657 basis functions,  1236 primitive gaussians,   657 cartesian basis functions
   146 alpha electrons      146 beta electrons
       nuclear repulsion energy      5210.4546260609 Hartrees.
 NAtoms=   75 NActive=   75 NUniq=   75 SFac= 1.00D+00 NAtFMM=   60 NAOKFM=T Big=T
 Integral buffers will be    131072 words long.
 Raffenetti 2 integral format.
 Two-electron integral symmetry is turned off.
 Nuclear repulsion after empirical dispersion term =     5210.3236578328 Hartrees.
 One-electron integrals computed using PRISM.
 NBasis=   657 RedAO= T EigKep=  4.42D-04  NBF=   657
 NBsUse=   657 1.00D-06 EigRej= -1.00D+00 NBFU=   657
 ExpMin= 1.61D-01 ExpMax= 5.48D+03 ExpMxC= 8.25D+02 IAcc=3 IRadAn=         5 AccDes= 0.00D+00
 Harris functional with IExCor=  402 and IRadAn=       5 diagonalized for initial guess.
 HarFok:  IExCor=  402 AccDes= 0.00D+00 IRadAn=         5 IDoV= 1 UseB2=F ITyADJ=14
 ICtDFT=  3500011 ScaDFX=  1.000000  1.000000  1.000000  1.000000
 FoFCou: FMM=F IPFlag=           0 FMFlag=      100000 FMFlg1=        2001
         NFxFlg=           0 DoJE=T BraDBF=F KetDBF=T FulRan=T
         wScrn=  0.000000 ICntrl=       500 IOpCl=  0 I1Cent=   200000004 NGrid=           0
         NMat0=    1 NMatS0=      1 NMatT0=    0 NMatD0=    1 NMtDS0=    0 NMtDT0=    0
 Symmetry not used in FoFCou.
 Requested convergence on RMS density matrix=1.00D-08 within 128 cycles.
 Requested convergence on MAX density matrix=1.00D-06.
 Requested convergence on             energy=1.00D-06.
 No special actions if energy rises.
 Integral accuracy reduced to 1.0D-05 until final iterations.
 Initial convergence to 1.0D-05 achieved.  Increase integral accuracy.
 SCF Done:  E(RB3LYP) =  -1917.51729666     A.U. after   15 cycles
            NFock= 15  Conv=0.57D-08     -V/T= 2.0089
 DoSCS=F DFT=T ScalE2(SS,OS)=  1.000000  1.000000
 Range of M.O.s used for correlation:     1   657
 NBasis=   657 NAE=   146 NBE=   146 NFC=     0 NFV=     0
 NROrb=    657 NOA=   146 NOB=   146 NVA=   511 NVB=   511
 Symmetrizing basis deriv contribution to polar:
 IMax=3 JMax=2 DiffMx= 0.00D+00
 G2DrvN: will do    76 centers at a time, making    1 passes.
 Calling FoFCou, ICntrl=  3107 FMM=T I1Cent=   0 AccDes= 0.00D+00.
 End of G2Drv F.D. properties file   721 does not exist.
 End of G2Drv F.D. properties file   722 does not exist.
 End of G2Drv F.D. properties file   788 does not exist.
          IDoAtm=11111111111111111111111111111111111111111111111111
          IDoAtm=1111111111111111111111111
          Differentiating once with respect to nuclear coordinates.
 CalDSu exits because no D1Ps are significant.
          There are   228 degrees of freedom in the 1st order CPHF.  IDoFFX=6 NUNeed=     0.
    222 vectors produced by pass  0 Test12= 7.46D-14 1.00D-09 XBig12= 2.15D-01 1.43D-01.
 AX will form    72 AO Fock derivatives at one time.
    222 vectors produced by pass  1 Test12= 7.46D-14 1.00D-09 XBig12= 2.14D-02 1.54D-02.
    222 vectors produced by pass  2 Test12= 7.46D-14 1.00D-09 XBig12= 1.11D-04 1.43D-03.
    222 vectors produced by pass  3 Test12= 7.46D-14 1.00D-09 XBig12= 3.67D-07 5.43D-05.
    222 vectors produced by pass  4 Test12= 7.46D-14 1.00D-09 XBig12= 5.51D-10 1.92D-06.
    172 vectors produced by pass  5 Test12= 7.46D-14 1.00D-09 XBig12= 5.33D-13 7.43D-08.
     10 vectors produced by pass  6 Test12= 7.46D-14 1.00D-09 XBig12= 4.93D-16 2.39D-09.
 InvSVY:  IOpt=1 It=  1 EMax= 6.66D-16
 Solved reduced A of dimension  1292 with   228 vectors.
 End of Minotr F.D. properties file   721 does not exist.
 End of Minotr F.D. properties file   722 does not exist.
 End of Minotr F.D. properties file   788 does not exist.

 **********************************************************************

            Population analysis using the SCF Density.

 **********************************************************************

 Alpha  occ. eigenvalues --  -19.24921 -19.24608 -19.23721 -19.22687 -19.22418
 Alpha  occ. eigenvalues --  -19.20674 -19.20272 -14.54169 -14.49824 -14.48539
 Alpha  occ. eigenvalues --  -14.48500 -14.48422 -14.48174 -14.47636 -14.45980
 Alpha  occ. eigenvalues --  -14.45772 -10.45522 -10.42435 -10.41313 -10.40655
 Alpha  occ. eigenvalues --  -10.40005 -10.39852 -10.38214 -10.36533 -10.36024
 Alpha  occ. eigenvalues --  -10.33919 -10.33876 -10.32859 -10.32459 -10.31113
 Alpha  occ. eigenvalues --  -10.29109 -10.28655 -10.28421 -10.28344 -10.27855
 Alpha  occ. eigenvalues --  -10.27708 -10.27639 -10.27552 -10.27437  -1.16696
 Alpha  occ. eigenvalues --   -1.15959  -1.15354  -1.15066  -1.15047  -1.14521
 Alpha  occ. eigenvalues --   -1.14195  -1.10669  -1.06210  -1.05533  -1.04157
 Alpha  occ. eigenvalues --   -1.03672  -1.03381  -1.03099  -1.02735  -1.01067
 Alpha  occ. eigenvalues --   -0.94898  -0.91434  -0.90887  -0.90046  -0.88239
 Alpha  occ. eigenvalues --   -0.85710  -0.83831  -0.83384  -0.80705  -0.79809
 Alpha  occ. eigenvalues --   -0.78919  -0.76502  -0.75981  -0.73053  -0.71847
 Alpha  occ. eigenvalues --   -0.71332  -0.70747  -0.70475  -0.70421  -0.70128
 Alpha  occ. eigenvalues --   -0.69419  -0.69046  -0.67764  -0.67326  -0.66886
 Alpha  occ. eigenvalues --   -0.66658  -0.65984  -0.64656  -0.64057  -0.63217
 Alpha  occ. eigenvalues --   -0.62679  -0.62166  -0.61816  -0.60505  -0.59650
 Alpha  occ. eigenvalues --   -0.59320  -0.59170  -0.59028  -0.58387  -0.57615
 Alpha  occ. eigenvalues --   -0.57035  -0.56654  -0.56223  -0.55546  -0.55197
 Alpha  occ. eigenvalues --   -0.55153  -0.54506  -0.54018  -0.53914  -0.53494
 Alpha  occ. eigenvalues --   -0.53104  -0.52876  -0.52381  -0.51905  -0.51710
 Alpha  occ. eigenvalues --   -0.51452  -0.50999  -0.50736  -0.50461  -0.50242
 Alpha  occ. eigenvalues --   -0.49795  -0.49271  -0.48890  -0.48518  -0.48056
 Alpha  occ. eigenvalues --   -0.47765  -0.46895  -0.46255  -0.45861  -0.44805
 Alpha  occ. eigenvalues --   -0.44714  -0.44467  -0.42878  -0.42572  -0.41309
 Alpha  occ. eigenvalues --   -0.40132  -0.39953  -0.39269  -0.38544  -0.38270
 Alpha  occ. eigenvalues --   -0.38130  -0.37492  -0.37093  -0.36704  -0.36257
 Alpha  occ. eigenvalues --   -0.36081  -0.35698  -0.34754  -0.33912  -0.33596
 Alpha  occ. eigenvalues --   -0.33439
 Alpha virt. eigenvalues --   -0.11942  -0.11260  -0.10840  -0.10334  -0.09412
 Alpha virt. eigenvalues --   -0.09161  -0.08680  -0.07294  -0.06963  -0.04976
 Alpha virt. eigenvalues --   -0.03717  -0.02789  -0.01972  -0.01356  -0.01130
 Alpha virt. eigenvalues --   -0.00354   0.00361   0.01009   0.01465   0.01757
 Alpha virt. eigenvalues --    0.02144   0.02358   0.02847   0.03368   0.03694
 Alpha virt. eigenvalues --    0.03851   0.04109   0.04620   0.04873   0.05554
 Alpha virt. eigenvalues --    0.05836   0.05919   0.06394   0.06568   0.06932
 Alpha virt. eigenvalues --    0.07065   0.07764   0.08016   0.08318   0.08525
 Alpha virt. eigenvalues --    0.08929   0.09208   0.09690   0.09904   0.10355
 Alpha virt. eigenvalues --    0.10440   0.10599   0.11255   0.11613   0.12146
 Alpha virt. eigenvalues --    0.12457   0.12944   0.13418   0.13958   0.14449
 Alpha virt. eigenvalues --    0.14803   0.14888   0.15868   0.16415   0.16551
 Alpha virt. eigenvalues --    0.17058   0.17314   0.18180   0.18836   0.20281
 Alpha virt. eigenvalues --    0.21874   0.22119   0.22514   0.23262   0.23592
 Alpha virt. eigenvalues --    0.24335   0.24438   0.25269   0.26301   0.27004
 Alpha virt. eigenvalues --    0.27280   0.28460   0.29407   0.30154   0.30657
 Alpha virt. eigenvalues --    0.31439   0.32538   0.33902   0.36321   0.36793
 Alpha virt. eigenvalues --    0.37594   0.38390   0.38614   0.39117   0.39746
 Alpha virt. eigenvalues --    0.40283   0.41659   0.41788   0.42586   0.43436
 Alpha virt. eigenvalues --    0.43835   0.44235   0.44826   0.45111   0.46002
 Alpha virt. eigenvalues --    0.46194   0.46691   0.46966   0.47732   0.48085
 Alpha virt. eigenvalues --    0.48363   0.48550   0.48863   0.49164   0.50084
 Alpha virt. eigenvalues --    0.50597   0.50940   0.51213   0.51818   0.52009
 Alpha virt. eigenvalues --    0.52433   0.52723   0.52944   0.53339   0.53636
 Alpha virt. eigenvalues --    0.53767   0.54109   0.54334   0.54686   0.55201
 Alpha virt. eigenvalues --    0.55511   0.55848   0.56014   0.56553   0.57078
 Alpha virt. eigenvalues --    0.57392   0.57797   0.58275   0.58654   0.58856
 Alpha virt. eigenvalues --    0.60130   0.60308   0.60827   0.61643   0.62016
 Alpha virt. eigenvalues --    0.62432   0.62905   0.63324   0.64459   0.64669
 Alpha virt. eigenvalues --    0.65515   0.66507   0.66928   0.67654   0.68161
 Alpha virt. eigenvalues --    0.68518   0.69080   0.69911   0.70134   0.71151
 Alpha virt. eigenvalues --    0.71278   0.72006   0.72304   0.72529   0.73074
 Alpha virt. eigenvalues --    0.73466   0.73855   0.74317   0.74728   0.74929
 Alpha virt. eigenvalues --    0.75181   0.75776   0.75934   0.76433   0.76608
 Alpha virt. eigenvalues --    0.77011   0.77256   0.77517   0.78007   0.78353
 Alpha virt. eigenvalues --    0.78659   0.79056   0.79662   0.79746   0.80208
 Alpha virt. eigenvalues --    0.80570   0.81471   0.81666   0.82246   0.82517
 Alpha virt. eigenvalues --    0.83200   0.83471   0.83742   0.84186   0.84855
 Alpha virt. eigenvalues --    0.85268   0.85736   0.85997   0.86394   0.87056
 Alpha virt. eigenvalues --    0.87564   0.87982   0.88754   0.89318   0.89616
 Alpha virt. eigenvalues --    0.90417   0.90804   0.91878   0.92439   0.93374
 Alpha virt. eigenvalues --    0.93494   0.94166   0.94641   0.95302   0.96122
 Alpha virt. eigenvalues --    0.96881   0.97106   0.97508   0.98150   0.98570
 Alpha virt. eigenvalues --    0.99362   0.99783   1.00967   1.01608   1.02924
 Alpha virt. eigenvalues --    1.04528   1.05064   1.05289   1.06566   1.07044
 Alpha virt. eigenvalues --    1.07263   1.08215   1.09107   1.09297   1.09967
 Alpha virt. eigenvalues --    1.10177   1.11037   1.11928   1.12677   1.13139
 Alpha virt. eigenvalues --    1.13666   1.14360   1.14835   1.15508   1.16638
 Alpha virt. eigenvalues --    1.17139   1.18115   1.18572   1.18868   1.19868
 Alpha virt. eigenvalues --    1.20136   1.20741   1.21915   1.23375   1.24107
 Alpha virt. eigenvalues --    1.24363   1.25960   1.26307   1.27478   1.27604
 Alpha virt. eigenvalues --    1.28218   1.29548   1.30453   1.31132   1.31785
 Alpha virt. eigenvalues --    1.32206   1.33109   1.34324   1.35518   1.36178
 Alpha virt. eigenvalues --    1.36181   1.37101   1.37332   1.38152   1.38808
 Alpha virt. eigenvalues --    1.39460   1.40212   1.40647   1.41013   1.42086
 Alpha virt. eigenvalues --    1.42585   1.42642   1.43448   1.44248   1.45780
 Alpha virt. eigenvalues --    1.47840   1.48252   1.48884   1.50243   1.51790
 Alpha virt. eigenvalues --    1.52548   1.53691   1.54807   1.55257   1.56009
 Alpha virt. eigenvalues --    1.56541   1.57081   1.58352   1.59117   1.59312
 Alpha virt. eigenvalues --    1.59994   1.60133   1.62442   1.63429   1.63612
 Alpha virt. eigenvalues --    1.64635   1.65255   1.65747   1.65931   1.66806
 Alpha virt. eigenvalues --    1.68042   1.68683   1.69115   1.69291   1.70197
 Alpha virt. eigenvalues --    1.70930   1.71482   1.72074   1.72501   1.72819
 Alpha virt. eigenvalues --    1.73517   1.74390   1.74724   1.74978   1.75562
 Alpha virt. eigenvalues --    1.76635   1.76963   1.77212   1.77589   1.78143
 Alpha virt. eigenvalues --    1.78513   1.79162   1.79576   1.80640   1.81186
 Alpha virt. eigenvalues --    1.81343   1.82173   1.82451   1.82742   1.84146
 Alpha virt. eigenvalues --    1.84295   1.84479   1.84930   1.86054   1.86440
 Alpha virt. eigenvalues --    1.86915   1.87442   1.88162   1.88287   1.89040
 Alpha virt. eigenvalues --    1.89857   1.90486   1.90734   1.91594   1.92505
 Alpha virt. eigenvalues --    1.92920   1.93930   1.94926   1.95680   1.96960
 Alpha virt. eigenvalues --    1.97320   1.97855   1.98605   1.98855   1.99308
 Alpha virt. eigenvalues --    2.00117   2.01157   2.01273   2.02359   2.02863
 Alpha virt. eigenvalues --    2.03491   2.04332   2.04828   2.05702   2.07445
 Alpha virt. eigenvalues --    2.07694   2.08186   2.08374   2.08814   2.10080
 Alpha virt. eigenvalues --    2.11192   2.12204   2.12288   2.13823   2.14887
 Alpha virt. eigenvalues --    2.15479   2.15581   2.16729   2.18338   2.18734
 Alpha virt. eigenvalues --    2.19002   2.19663   2.21440   2.21834   2.22033
 Alpha virt. eigenvalues --    2.22211   2.22471   2.23499   2.25483   2.26710
 Alpha virt. eigenvalues --    2.27420   2.28324   2.28688   2.28994   2.29770
 Alpha virt. eigenvalues --    2.30258   2.31723   2.32875   2.33916   2.34704
 Alpha virt. eigenvalues --    2.34971   2.35963   2.36684   2.36926   2.38578
 Alpha virt. eigenvalues --    2.39451   2.40694   2.41009   2.41415   2.42739
 Alpha virt. eigenvalues --    2.44743   2.46001   2.47257   2.47768   2.48861
 Alpha virt. eigenvalues --    2.49938   2.50557   2.50806   2.51408   2.52215
 Alpha virt. eigenvalues --    2.52501   2.53547   2.53917   2.54856   2.55702
 Alpha virt. eigenvalues --    2.56220   2.56944   2.58028   2.58211   2.59568
 Alpha virt. eigenvalues --    2.59802   2.60529   2.62333   2.62953   2.63168
 Alpha virt. eigenvalues --    2.64506   2.65886   2.66848   2.67398   2.67742
 Alpha virt. eigenvalues --    2.68747   2.70184   2.72526   2.75910   2.76690
 Alpha virt. eigenvalues --    2.80029   2.82329   2.86064   2.86356   2.87324
 Alpha virt. eigenvalues --    2.89181   2.90039   2.90713   2.91349   2.92339
 Alpha virt. eigenvalues --    2.92711   2.93640   2.95552   2.96953   2.98249
 Alpha virt. eigenvalues --    2.98867   2.99424   3.03679   3.05936   3.08024
 Alpha virt. eigenvalues --    3.08241   3.34361   3.67868   3.73821   3.75472
 Alpha virt. eigenvalues --    3.79881   3.82665   3.87338   3.90032   3.95793
 Alpha virt. eigenvalues --    3.96674   3.98150   3.99391   4.03779   4.06335
 Alpha virt. eigenvalues --    4.07386   4.09101   4.10451   4.13165   4.14256
 Alpha virt. eigenvalues --    4.15470   4.19492   4.21562   4.22784   4.26023
 Alpha virt. eigenvalues --    4.29007   4.29916   4.33596   4.35911   4.36221
 Alpha virt. eigenvalues --    4.38065   4.41663   4.43004   4.47068   4.49842
 Alpha virt. eigenvalues --    4.52513   4.57867   4.60377   4.63652   4.64253
 Alpha virt. eigenvalues --    4.70370
          Condensed to atoms (all electrons):
 Mulliken charges:
               1
     1  N   -0.784959
     2  C   -0.127456
     3  C    0.640472
     4  O   -0.515534
     5  C   -0.413048
     6  C    0.627281
     7  N   -0.742779
     8  O   -0.521497
     9  H    0.430892
    10  H    0.223143
    11  H    0.206479
    12  H    0.225266
    13  H    0.364497
    14  H    0.354997
    15  H    0.417599
    16  H    0.425704
    17  N   -0.652325
    18  C   -0.063539
    19  C    0.606680
    20  O   -0.539217
    21  C   -0.350820
    22  C    0.173356
    23  C   -0.166443
    24  C   -0.194831
    25  C   -0.135775
    26  C   -0.155846
    27  C   -0.139834
    28  H    0.391365
    29  H    0.209712
    30  H    0.157732
    31  H    0.179700
    32  H    0.148962
    33  H    0.134453
    34  H    0.156127
    35  H    0.138231
    36  H    0.149022
    37  N   -0.617467
    38  C   -0.048339
    39  C    0.628417
    40  O   -0.571594
    41  C   -0.385368
    42  C    0.594763
    43  N   -0.715916
    44  O   -0.545814
    45  H    0.348553
    46  H    0.219458
    47  H    0.211929
    48  H    0.185563
    49  H    0.363303
    50  H    0.368097
    51  N   -0.586744
    52  C   -0.078859
    53  C    0.593951
    54  O   -0.551361
    55  C   -0.275201
    56  C   -0.314666
    57  C   -0.185032
    58  N   -0.569576
    59  C    0.717956
    60  N   -0.764468
    61  N   -0.750576
    62  O   -0.634178
    63  H    0.355095
    64  H    0.167343
    65  H    0.180853
    66  H    0.152835
    67  H    0.164836
    68  H    0.166882
    69  H    0.195815
    70  H    0.174668
    71  H    0.397526
    72  H    0.381518
    73  H    0.392862
    74  H    0.386407
    75  H    0.388759
 Sum of Mulliken charges =   1.00000
 Mulliken charges with hydrogens summed into heavy atoms:
               1
     1  N    0.489236
     2  C    0.095686
     3  C    0.640472
     4  O   -0.515534
     5  C    0.018697
     6  C    0.627281
     7  N   -0.023285
     8  O   -0.521497
    17  N   -0.260959
    18  C    0.146173
    19  C    0.606680
    20  O   -0.539217
    21  C   -0.013387
    22  C    0.173356
    23  C   -0.017481
    24  C   -0.060378
    25  C    0.020353
    26  C   -0.017616
    27  C    0.009188
    37  N   -0.268915
    38  C    0.171120
    39  C    0.628417
    40  O   -0.571594
    41  C    0.012124
    42  C    0.594763
    43  N    0.015483
    44  O   -0.545814
    51  N   -0.231649
    52  C    0.088484
    53  C    0.593951
    54  O   -0.551361
    55  C    0.058486
    56  C    0.017052
    57  C    0.185452
    58  N   -0.172050
    59  C    0.717956
    60  N    0.009913
    61  N    0.024591
    62  O   -0.634178
 APT charges:
               1
     1  N    0.495093
     2  C   -0.741150
     3  C   -1.688218
     4  O    1.192583
     5  C   -2.285398
     6  C    2.130031
     7  N   -1.167195
     8  O   -2.851587
     9  H    0.560306
    10  H    0.363748
    11  H    0.609675
    12  H    1.533505
    13  H   -0.102968
    14  H    2.021417
    15  H   -0.479727
    16  H    0.216365
    17  N    0.954659
    18  C   -0.862996
    19  C   -0.973224
    20  O    1.366192
    21  C   -2.444562
    22  C   -0.130764
    23  C   -0.236511
    24  C   -0.711607
    25  C   -0.429321
    26  C   -0.365233
    27  C   -0.235503
    28  H   -0.362660
    29  H    0.944117
    30  H    0.137692
    31  H    2.023567
    32  H    0.837037
    33  H   -0.012419
    34  H    0.947872
    35  H    0.121406
    36  H    0.602492
    37  N   -1.706355
    38  C   -0.193420
    39  C    2.376308
    40  O   -2.314917
    41  C   -1.751839
    42  C   -0.546861
    43  N   -1.396009
    44  O    1.180275
    45  H    1.504395
    46  H    0.603522
    47  H    2.085614
    48  H   -0.244511
    49  H    0.725342
    50  H    0.047732
    51  N   -2.115553
    52  C    0.693917
    53  C   -0.061431
    54  O   -0.811419
    55  C    0.730649
    56  C   -1.185966
    57  C   -1.536946
    58  N   -0.257436
    59  C    0.384734
    60  N   -0.678122
    61  N   -0.406786
    62  O    0.001748
    63  H    1.570092
    64  H   -0.560267
    65  H   -0.364105
    66  H   -0.204136
    67  H    0.169427
    68  H    0.887008
    69  H   -0.282648
    70  H    1.629379
    71  H   -0.695460
    72  H    1.696037
    73  H    0.495481
    74  H    1.507584
    75  H   -0.951774
 Sum of APT charges =   1.00000
 APT charges with hydrogens summed into heavy atoms:
               1
     1  N    0.792037
     2  C   -0.377402
     3  C   -1.688218
     4  O    1.192583
     5  C   -0.142218
     6  C    2.130031
     7  N    0.751255
     8  O   -2.851587
    17  N    0.591999
    18  C    0.081121
    19  C   -0.973224
    20  O    1.366192
    21  C   -0.283304
    22  C   -0.130764
    23  C    0.600526
    24  C   -0.724026
    25  C    0.518551
    26  C   -0.243827
    27  C    0.366990
    37  N   -0.201960
    38  C    0.410103
    39  C    2.376308
    40  O   -2.314917
    41  C    0.089264
    42  C   -0.546861
    43  N   -0.622935
    44  O    1.180275
    51  N   -0.545461
    52  C    0.133650
    53  C   -0.061431
    54  O   -0.811419
    55  C    0.162408
    56  C   -0.129531
    57  C   -0.190214
    58  N   -0.952895
    59  C    0.384734
    60  N    1.513397
    61  N    0.149023
    62  O    0.001748
 Electronic spatial extent (au):  <R**2>=         137239.6038
 Charge=              1.0000 electrons
 Dipole moment (field-independent basis, Debye):
    X=            -36.4195    Y=             -3.4201    Z=            -34.8055  Tot=             50.4926
 Quadrupole moment (field-independent basis, Debye-Ang):
   XX=             96.1988   YY=           -164.5853   ZZ=             53.1392
   XY=            -10.3561   XZ=            236.8693   YZ=             51.9206
 Traceless Quadrupole moment (field-independent basis, Debye-Ang):
   XX=            101.2812   YY=           -159.5029   ZZ=             58.2216
   XY=            -10.3561   XZ=            236.8693   YZ=             51.9206
 Octapole moment (field-independent basis, Debye-Ang**2):
  XXX=           1878.2319  YYY=            942.7469  ZZZ=           2840.4595  XYY=           1347.9914
  XXY=            545.2745  XXZ=           -207.2348  XZZ=            -96.0242  YZZ=           -215.6004
  YYZ=           1211.1462  XYZ=            -24.0544
 Hexadecapole moment (field-independent basis, Debye-Ang**3):
 XXXX=         -49980.2609 YYYY=          -8360.6904 ZZZZ=         -67514.3649 XXXY=          -7756.3643
 XXXZ=         -18661.6868 YYYX=          -6234.0065 YYYZ=          -8360.9516 ZZZX=         -22443.9915
 ZZZY=          -4126.8230 XXYY=         -12991.4674 XXZZ=         -14671.0272 YYZZ=         -11945.1919
 XXYZ=          -4292.6294 YYXZ=          -9826.8143 ZZXY=          -1340.4394
 N-N= 5.210323657833D+03 E-N=-1.486010569792D+04  KE= 1.900660453482D+03
  Exact polarizability:       0.000       0.000       0.000       0.000       0.000       0.000
 Approx polarizability:     465.941      -0.190     460.196     -39.560     -16.739     452.825
 Calling FoFJK, ICntrl=    100127 FMM=F ISym2X=0 I1Cent= 0 IOpClX= 0 NMat=1 NMatS=1 NMatT=0.
 -------------------------------------------------------------------
 Center     Atomic                   Forces (Hartrees/Bohr)
 Number     Number              X              Y              Z
 -------------------------------------------------------------------
      1        7           0.007728540    0.002878524    0.011073840
      2        6           0.004926254   -0.001807523   -0.023987763
      3        6          -0.007630093    0.009461460   -0.008407365
      4        8           0.004028818   -0.003589074    0.001257502
      5        6          -0.002325652   -0.003223197    0.000799100
      6        6          -0.002586350   -0.013493596   -0.012270279
      7        7          -0.004073481    0.008176467    0.002782336
      8        8           0.005402945    0.014444914    0.015314876
      9        1          -0.007692563   -0.002456516    0.003507332
     10        1          -0.001100433    0.002081710    0.004729645
     11        1          -0.002457605   -0.001489393    0.000863328
     12        1          -0.001496797    0.001418080   -0.000608273
     13        1           0.003962873   -0.004012792    0.002055716
     14        1          -0.000480421   -0.003004956   -0.005087779
     15        1           0.006482709   -0.005525937    0.002452288
     16        1          -0.006716142    0.006830532    0.003096550
     17        7           0.009921395    0.006155875   -0.005137438
     18        6          -0.005522989   -0.003735941   -0.002163218
     19        6           0.007680515   -0.004868429    0.001869193
     20        8          -0.006520213   -0.001742114    0.003894287
     21        6          -0.004593665   -0.002190172    0.000443837
     22        6          -0.002638309    0.003112490    0.002878123
     23        6           0.001022856    0.004503962   -0.004405767
     24        6          -0.004233210   -0.002005324    0.003914649
     25        6          -0.000700698    0.005953307   -0.002525786
     26        6           0.005093178   -0.006854279    0.004624608
     27        6           0.006428800   -0.001443552    0.000815541
     28        1          -0.004504649   -0.004750569    0.006827844
     29        1           0.001000785    0.002773917   -0.003039109
     30        1          -0.003377127   -0.000150312    0.001809779
     31        1          -0.002779885   -0.001246386   -0.002335796
     32        1           0.001673726    0.000176713   -0.001142627
     33        1          -0.000711680   -0.002010924    0.000204143
     34        1           0.000978323    0.000435462   -0.002394647
     35        1          -0.000894591   -0.002457657   -0.001436166
     36        1          -0.000327775   -0.001116759   -0.002033225
     37        7          -0.006785842   -0.005825501    0.001168846
     38        6           0.005875692    0.002143866   -0.001966081
     39        6          -0.009911120   -0.005510101    0.004164468
     40        8           0.011927652    0.003675614   -0.002158822
     41        6          -0.009451643    0.002199345    0.013722611
     42        6           0.002582520   -0.001041461   -0.006230616
     43        7          -0.021284059   -0.023716674   -0.010360707
     44        8           0.017050275    0.012157633   -0.000671910
     45        1          -0.004450170    0.006700224    0.007439833
     46        1           0.005531850    0.002245586   -0.003476737
     47        1          -0.001579047    0.002816635   -0.007139649
     48        1           0.004598872    0.000942911   -0.004042210
     49        1          -0.000099934    0.003881803    0.007909908
     50        1           0.005402925    0.007619886    0.001235153
     51        7           0.006511221    0.006314217   -0.009112965
     52        6           0.004423897   -0.002494219    0.009570518
     53        6           0.008807153    0.000420014   -0.006565409
     54        8          -0.010022511   -0.009171868    0.016326999
     55        6           0.006724843    0.008239344    0.003362163
     56        6           0.000604427    0.001981234    0.002978531
     57        6          -0.004461718   -0.002624154    0.007462288
     58        7           0.002697892    0.000413720   -0.000551272
     59        6          -0.003168041   -0.001032394    0.012795490
     60        7           0.001468383   -0.000081116   -0.003460803
     61        7           0.000606839   -0.001476993   -0.006311716
     62        8           0.008948538   -0.006290516   -0.010779380
     63        1          -0.007171677   -0.001262813   -0.002410794
     64        1          -0.000863844    0.002089397    0.002633401
     65        1           0.000966360   -0.002630652    0.001081229
     66        1          -0.002734923    0.000384328    0.001534641
     67        1          -0.001333215   -0.000492719   -0.000879481
     68        1          -0.001800364    0.007770313   -0.007149827
     69        1          -0.001552679   -0.001109799    0.000829844
     70        1          -0.000291759   -0.001331914    0.001159557
     71        1           0.001057018   -0.000263770    0.001135297
     72        1          -0.000752288   -0.001815659   -0.006860698
     73        1          -0.001227948    0.003238886    0.000525763
     74        1          -0.000045561   -0.000899431   -0.006829611
     75        1           0.000234597   -0.001391215    0.001682872
 -------------------------------------------------------------------
 Cartesian Forces:  Max     0.023987763 RMS     0.005890004
 FormGI is forming the generalized inverse of G from B-inverse, IUseBI=4.

 GradGradGradGradGradGradGradGradGradGradGradGradGradGradGradGradGradGrad
 Berny optimization.
 Internal  Forces:  Max     0.028165431 RMS     0.005892490
 Search for a local minimum.
 Step number   1 out of a maximum of  399
 All quantities printed in internal units (Hartrees-Bohrs-Radians)
 Mixed Optimization -- RFO/linear search
 Second derivative matrix not updated -- analytic derivatives used.
 ITU=  0
     Eigenvalues ---    0.00064   0.00203   0.00249   0.00273   0.00328
     Eigenvalues ---    0.00369   0.00409   0.00441   0.00483   0.00496
     Eigenvalues ---    0.00577   0.00642   0.00717   0.00760   0.00794
     Eigenvalues ---    0.00881   0.00893   0.01068   0.01171   0.01286
     Eigenvalues ---    0.01449   0.01474   0.01530   0.01720   0.01735
     Eigenvalues ---    0.01779   0.01827   0.01858   0.01927   0.01949
     Eigenvalues ---    0.02209   0.02330   0.02411   0.02420   0.02624
     Eigenvalues ---    0.02739   0.02813   0.02940   0.03092   0.03287
     Eigenvalues ---    0.03458   0.03503   0.03653   0.03821   0.03858
     Eigenvalues ---    0.04112   0.04146   0.04181   0.04290   0.04450
     Eigenvalues ---    0.04470   0.04525   0.04598   0.04645   0.04734
     Eigenvalues ---    0.04861   0.04995   0.05120   0.05147   0.05179
     Eigenvalues ---    0.05449   0.05554   0.05559   0.05670   0.05866
     Eigenvalues ---    0.06302   0.06427   0.06449   0.06913   0.07015
     Eigenvalues ---    0.07445   0.07855   0.08086   0.08311   0.08398
     Eigenvalues ---    0.08513   0.08842   0.08856   0.09164   0.09594
     Eigenvalues ---    0.09906   0.11109   0.11381   0.11385   0.11490
     Eigenvalues ---    0.11778   0.11991   0.12251   0.12353   0.12398
     Eigenvalues ---    0.12519   0.12591   0.12677   0.12926   0.13219
     Eigenvalues ---    0.13265   0.13373   0.13435   0.13474   0.13872
     Eigenvalues ---    0.14196   0.14493   0.14950   0.16267   0.16753
     Eigenvalues ---    0.17090   0.17731   0.18203   0.18859   0.19143
     Eigenvalues ---    0.19468   0.19606   0.19733   0.19892   0.19978
     Eigenvalues ---    0.20212   0.21049   0.21233   0.21565   0.21806
     Eigenvalues ---    0.21955   0.22339   0.22523   0.22742   0.23047
     Eigenvalues ---    0.23510   0.23947   0.24097   0.24696   0.25008
     Eigenvalues ---    0.25580   0.25745   0.26691   0.27188   0.27503
     Eigenvalues ---    0.28137   0.28618   0.28734   0.29371   0.30060
     Eigenvalues ---    0.30384   0.31000   0.31091   0.31726   0.32220
     Eigenvalues ---    0.32554   0.32959   0.33289   0.33456   0.33550
     Eigenvalues ---    0.33800   0.34148   0.34363   0.34483   0.34530
     Eigenvalues ---    0.34632   0.34886   0.35112   0.35229   0.35339
     Eigenvalues ---    0.35603   0.35842   0.35886   0.36009   0.36040
     Eigenvalues ---    0.36127   0.36250   0.36357   0.36431   0.36931
     Eigenvalues ---    0.37246   0.37279   0.38730   0.39554   0.40516
     Eigenvalues ---    0.40980   0.42028   0.42995   0.43051   0.43506
     Eigenvalues ---    0.43756   0.44025   0.44171   0.44319   0.44710
     Eigenvalues ---    0.45962   0.46344   0.47513   0.47843   0.48368
     Eigenvalues ---    0.48664   0.48835   0.48970   0.49216   0.49431
     Eigenvalues ---    0.49561   0.49612   0.50071   0.50468   0.50964
     Eigenvalues ---    0.51200   0.53192   0.54123   0.55055   0.58579
     Eigenvalues ---    0.64773   0.69387   0.72463   0.80525   0.82000
     Eigenvalues ---    0.82451   0.83496   0.86874   1.03130   1.15731
     Eigenvalues ---    1.32791   2.30630   2.50204   4.36025
 RFO step:  Lambda=-3.67292219D-02 EMin= 6.35465225D-04
 Linear search not attempted -- first point.
 Iteration  1 RMS(Cart)=  0.18062882 RMS(Int)=  0.00358426
 Iteration  2 RMS(Cart)=  0.01360405 RMS(Int)=  0.00014557
 Iteration  3 RMS(Cart)=  0.00006442 RMS(Int)=  0.00014398
 Iteration  4 RMS(Cart)=  0.00000002 RMS(Int)=  0.00014398
 Variable       Old X    -DE/DX   Delta X   Delta X   Delta X     New X
                                 (Linear)    (Quad)   (Total)
    R1        2.76936   0.01994   0.00000   0.05070   0.05070   2.82006
    R2        1.98038   0.00867   0.00000   0.02609   0.02609   2.00647
    R3        1.93837   0.00825   0.00000   0.02030   0.02030   1.95867
    R4        1.92874   0.00773   0.00000   0.01717   0.01717   1.94591
    R5        2.88734   0.00190   0.00000   0.01060   0.01060   2.89795
    R6        2.87913  -0.00009   0.00000   0.01148   0.01148   2.89061
    R7        2.06765  -0.00160   0.00000  -0.00532  -0.00532   2.06233
    R8        2.31889  -0.00269   0.00000  -0.00444  -0.00444   2.31445
    R9        2.57754  -0.00037   0.00000   0.00164   0.00164   2.57918
   R10        2.86880   0.00235   0.00000   0.01163   0.01163   2.88043
   R11        2.06436   0.00299   0.00000   0.00686   0.00686   2.07122
   R12        2.06463   0.00033   0.00000   0.00273   0.00273   2.06735
   R13        2.56328  -0.00109   0.00000  -0.01199  -0.01199   2.55130
   R14        2.30544   0.02084   0.00000   0.02666   0.02666   2.33210
   R15        1.89937   0.00572   0.00000   0.01143   0.01143   1.91080
[...]
 .00003937,-0.00004203,0.00003088,0.00000741,-0.00003910,-0.00001726,0.
 00003420,-0.00005271,-0.00003174,0.00017794,0.00005912,-0.00008015,-0.
 00006550,0.00006646,0.00007895,-0.00035280,-0.00002045,-0.00002812,0.0
 0041356,0.00004777,0.00021385,-0.00002406,-0.00009457,-0.00013845,-0.0
 0024133,0.00006058,0.00022784,0.00018757,-0.00006951,-0.00062344,-0.00
 033098,-0.00299837,0.00180252,0.00019870,-0.00011760,0.00111470,-0.003
 95064,0.00563355,0.01593301,0.01580130,-0.00898498,-0.13626526,-0.1263
 0985,-0.00358296,0.00252666,-0.00173636,0.00001219,-0.00010224,-0.0001
 3252,0.00041222,-0.00005132,0.00030453,-0.00000766,-0.00002233,-0.0000
 7958,0.00005391,0.00001176,-0.00000807,0.00017579,-0.00005061,-0.00002
 476,0.00001039,-0.00009966,0.00005198,-0.00046638,-0.00025127,0.000099
 56,0.00100488,-0.00047547,0.00014067,0.00114834,-0.00025476,-0.0029535
 1,-0.00021566,-0.00039879,0.00020072,0.00374117,-0.03172946,-0.0021826
 6,0.00416992,0.14940027,0.12300067,0.00007560,-0.00001950,0.00003240,-
 0.00001832,-0.00002165,-0.00004418,-0.00054143,-0.00023012,0.00017695,
 0.00020259,0.00020688,-0.00018211,0.00005984,0.00001196,0.00003419,-0.
 00014692,0.00005587,-0.00004393,0.00007416,-0.00005657,0.00000074,0.00
 009158,-0.00002490,0.00003904,-0.00003880,0.00001862,-0.00001789,0.000
 00892,0.00000110,0.00001020,-0.00001846,0.00000395,-0.00001559,-0.0000
 1460,-0.00000535,0.00000040,-0.00001358,0.00000899,-0.00000509,-0.0000
 3202,0.00000955,-0.00000814,-0.00005220,0.00001994,-0.00000858,-0.0000
 5097,0.00000297,-0.00001449,0.00033775,0.00013267,0.00004413,-0.000474
 40,-0.00018404,-0.00019773,-0.00074279,-0.00276465,0.00131942,-0.00268
 176,0.00100097,-0.00062489,-0.00024238,-0.00083465,0.00096872,-0.00016
 866,0.00034812,-0.00029846,0.00017453,-0.00017309,-0.00000638,0.000037
 69,-0.00006748,-0.00001924,0.00001214,0.00003360,-0.00003500,-0.000008
 63,0.00002130,-0.00001510,0.00004765,-0.00001139,-0.00000848,-0.000422
 58,-0.00008147,-0.00012838,0.00010417,0.00003809,0.00003324,-0.0004165
 8,0.00102968,0.00026104,0.00013532,0.00015300,-0.00032802,-0.00001189,
 0.00000863,0.00002741,-0.00000790,0.00008648,-0.00000132,0.00002994,-0
 .00000853,-0.00001528,0.00002598,-0.00001930,0.00000385,0.00001787,-0.
 00000755,-0.00000720,-0.00029683,0.00005487,0.00008207,-0.00011163,-0.
 00014859,-0.00001039,-0.00015414,-0.00025271,0.00015703,0.00020120,0.0
 0010750,0.00001097,0.00000503,-0.00003457,0.00000795,0.00005122,-0.000
 10639,-0.00008228,-0.00004519,0.00007289,0.00004074,-0.00012819,0.0000
 8194,0.00006797,0.00017166,-0.00008289,0.00003019,0.00002260,-0.000008
 97,-0.00000149,-0.00000804,0.00000351,-0.00000002,-0.00000329,0.000010
 34,0.00001389,0.00002716,-0.00001679,0.00000789,0.00000766,-0.00002451
 ,0.00000061,0.00001551,0.00024766,0.00009033,-0.00003512,0.00004733,-0
 .00010094,0.00100018,0.00047537,-0.00174989,-0.00166687,-0.00109667,-0
 .00007935,-0.00007159,0.00000203,-0.00001632,-0.00032752,0.00044762,0.
 00071787,0.00277049,0.00098432,-0.00134554,0.00105179,0.00330217,0.002
 31412,0.00078244,-0.00899210,0.00995295,-0.00352705,-0.00017161,0.0002
 8653,-0.03557803,0.03813046,-0.02327470,-0.00020891,0.00015258,0.00108
 414,0.00006865,-0.00037561,-0.00021441,0.00000757,-0.00001086,0.000009
 32,-0.00001036,-0.00000646,0.00001725,0.00001133,0.00000057,-0.0000001
 1,0.00019303,0.00022479,-0.00000695,0.00001513,-0.00000461,-0.00000084
 ,0.00004155,-0.00023338,-0.00012868,-0.00002260,-0.00010103,-0.0001159
 3,-0.00058885,-0.00035540,0.00075647,0.00088517,0.00312659,0.00027050,
 -0.00047449,-0.00029309,-0.00015425,0.03829246,0.00017011,-0.00012758,
 0.00001194,-0.00003136,0.00008359,0.00000999,-0.00045905,-0.00020872,0
 .00021683,0.00026226,0.00003978,-0.00015503,0.00005360,0.00004344,0.00
 003411,-0.00011835,0.00015397,0.00005661,0.00008301,-0.00012945,-0.000
 02198,0.00006695,-0.00012290,-0.00005109,-0.00004579,0.00004536,-0.000
 02449,0.00001732,-0.00000977,0.00000916,0.00000394,0.00002354,0.000017
 05,0.00001261,0.00001560,0.00001477,-0.00000261,0.00000913,-0.00001299
 ,0.00001299,0.00002607,0.00001038,-0.00010889,0.00006147,0.00000301,-0
 .00017218,0.00011457,-0.00000793,0.00067219,-0.00036255,-0.00028559,-0
 .00039864,0.00056647,0.00022022,-0.00801321,-0.00734053,0.00048396,0.0
 0519184,0.00278168,-0.00238388,0.00042358,0.00059467,-0.00072438,-0.00
 015943,-0.00029998,0.00020492,-0.00004444,0.00006454,-0.00006949,0.000
 09984,0.00004839,-0.00023149,-0.00005274,-0.00004469,0.00005690,-0.000
 00434,-0.00004851,0.00003652,-0.00000993,-0.00001580,0.00000048,-0.000
 09284,0.00025233,-0.00004051,0.00009933,-0.00030426,0.00001298,0.00035
 696,0.00001938,0.00030421,-0.00000814,0.00007760,0.00005844,0.00000535
 ,-0.00000959,0.00006401,0.00004692,-0.00001628,0.00005949,-0.00000544,
 0.00001010,0.00001125,0.00002382,-0.00000102,0.00000217,-0.00000010,-0
 .00000047,0.00001477,0.00087516,0.00377157,0.00105123,-0.00098138,-0.0
 0090680,0.00016790,-0.00033397,0.00036930,-0.00042523,0.00071183,-0.00
 007498,0.00033248,0.00020989,-0.00002193,0.00007363,-0.00005153,-0.000
 52504,-0.00037819,-0.00000257,0.00029246,0.00026485,-0.00004348,0.0004
 2225,0.00041241,0.00045837,-0.00049101,-0.00034569,0.00012387,0.000142
 44,0.00006321,-0.00002960,-0.00008288,0.00001089,-0.00002654,0.0001179
 0,0.00006388,0.00002611,-0.00000530,-0.00004110,-0.00001309,-0.0000400
 4,-0.00002176,0.00006201,0.00001152,0.00053321,-0.00005152,0.00007278,
 -0.00045183,0.00013916,0.00035123,-0.00018752,-0.00004767,0.00000820,0
 .00039437,0.00003545,-0.00009420,0.00000838,0.00006103,0.00020013,0.00
 002840,0.00062094,0.00190342,-0.00122608,0.00340015,-0.00521035,-0.002
 26331,-0.00830910,0.00407588,-0.03533655,-0.00102542,-0.00054035,0.001
 01581,0.03644762,-0.05000087,0.02047886,0.00005781,-0.00021189,0.00021
 425,-0.00004500,-0.00029907,-0.00066720,0.00002877,0.00000698,0.000040
 16,0.00001146,-0.00000688,0.00005584,-0.00004721,0.00001237,0.00001249
 ,-0.00004942,-0.00001139,0.00003210,-0.00003260,-0.00004823,0.00000805
 ,0.00007138,-0.00055423,-0.00038764,0.00005544,-0.00009679,-0.00004988
 ,0.00055441,-0.00099420,0.00042073,0.00285846,-0.00166874,-0.00073036,
 -0.00060373,-0.00021158,0.00043596,-0.02782209,0.05221482,0.00019150,0
 .00018154,-0.00029363,-0.00000028,0.00004960,0.00027313,0.00049800,0.0
 0024998,-0.00017279,-0.00035182,-0.00010970,-0.00003231,-0.00011856,-0
 .00006588,-0.00008147,0.00016275,0.00007002,0.00017492,-0.00005120,0.0
 0000725,-0.00006631,-0.00009454,-0.00005199,-0.00016379,-0.00052572,-0
 .00037262,0.00035610,-0.00002843,-0.00000284,-0.00005478,0.00000915,0.
 00002616,0.00008296,0.00005041,0.00001131,-0.00000051,0.00000325,-0.00
 001281,0.00001759,0.00005312,-0.00000684,0.00004210,-0.00001927,0.0000
 1862,0.00001608,0.00002573,-0.00002254,0.00004069,-0.00069723,-0.00009
 846,-0.00033570,0.00062482,-0.00040304,0.00128147,0.00940451,0.0082425
 2,0.00066768,-0.00694676,-0.00488385,-0.00061227,-0.00014891,0.0002355
 7,-0.00066995,0.00028779,-0.00035885,0.00008094,-0.00022180,0.00016646
 ,0.00003496,-0.00020341,-0.00001086,0.00014715,0.00000921,-0.00003210,
 0.00000784,-0.00000374,0.00001105,-0.00004179,-0.00008972,0.00002189,-
 0.00000490,-0.00006344,-0.00021084,0.00078788,-0.00020741,0.00015815,-
 0.00010927,0.00091687,-0.00055880,0.00002262,0.00002249,-0.00004871,-0
 .00026220,0.00003360,0.00001021,-0.00005521,0.00004801,-0.00001118,0.0
 0002408,-0.00003111,0.00001140,0.00002153,-0.00003517,0.00004022,0.000
 00769,-0.00001551,0.00002067,0.00000930,-0.00174364,-0.00547638,-0.002
 28122,0.00115663,0.00102721,-0.00043960,-0.00045818,-0.00127358,0.0015
 3186,-0.00011071,0.00037313,-0.00069985,-0.00023472,0.00002973,-0.0001
 6485,-0.00036766,0.00005077,0.00053242,0.00008771,-0.00002546,-0.00023
 987,0.00047108,0.00009324,-0.00079028,-0.00059701,0.00022834,0.0009069
 0,-0.00012875,-0.00008749,-0.00006439,0.00003258,0.00012082,-0.0000089
 8,0.00005936,-0.00016761,-0.00007397,-0.00000758,-0.00005268,0.0000411
 2,0.00000836,0.00001377,0.00005733,0.00015091,0.00077285,-0.00118894,0
 .00007967,-0.00009070,0.00032046,-0.00223339,-0.00133366,0.00156897,0.
 00238296,0.00117946,-0.00031794,-0.00010281,0.00011700,-0.00005413,-0.
 00027804,-0.00005130,0.00019058,0.00006206,-0.00051105,-0.00027487,0.0
 0126731,-0.00003040,0.00499240,0.00355717,-0.00815722,-0.01696111,-0.0
 0285909,0.00463956,-0.00063028,-0.03537374,0.00687546,-0.43429656,0.00
 127886,0.00019286,-0.00155750,-0.00025181,-0.00049760,0.00058025,0.000
 00594,0.00001915,-0.00000051,-0.00003107,-0.00003113,-0.00011452,0.000
 08457,0.00002352,-0.00000916,0.00013072,0.00015607,0.00004942,0.000023
 37,0.00002716,-0.00000252,-0.00000185,0.00019175,0.00018869,0.00001464
 ,0.00010431,0.00005072,-0.00090330,0.00078321,-0.00035730,-0.00022459,
 0.00005806,0.00283935,-0.00035003,-0.00039206,-0.00023547,0.03201397,-
 0.00057458,0.44721345,0.00066130,0.00042134,-0.00045616,-0.00000781,0.
 00007180,0.00027933,-0.00022687,-0.00020610,0.00022489,-0.00001561,0.0
 0021494,-0.00031633,-0.00002555,-0.00006450,-0.00003091,-0.00017448,0.
 00023818,0.00013278,0.00012356,-0.00013181,-0.00008894,0.00012424,-0.0
 0013424,-0.00012544,-0.00123747,-0.00088870,0.00067138,-0.00000995,-0.
 00000962,-0.00006546,-0.00001584,0.00005651,0.00010919,0.00004348,0.00
 000832,-0.00000324,-0.00003398,0.00000350,0.00000869,-0.00000652,0.000
 01383,0.00003840,-0.00017908,0.00007924,-0.00001254,0.00001208,-0.0001
 1750,-0.00001461,-0.00006671,0.00016421,-0.00049179,0.00033182,-0.0000
 2051,0.00022139,0.00176392,0.00114815,0.00023582,-0.00169546,-0.001266
 78,0.00133605,-0.00018110,-0.00008686,0.00003275,0.00004600,-0.0000176
 9,-0.00002611,-0.00002431,-0.00001270,-0.00000046,-0.00009354,-0.00008
 922,0.00003002,-0.00000582,-0.00001762,-0.00000149,-0.00002727,0.00003
 060,-0.00005433,-0.00002209,0.00000419,-0.00001356,-0.00012183,-0.0004
 0170,0.00108023,-0.00004337,0.00004962,-0.00006037,0.00019540,0.000065
 31,0.00008530,0.00002561,0.00002566,-0.00013993,0.00001293,0.00001463,
 0.00000495,0.00006273,0.00008570,0.00003690,0.00000623,0.00000679,0.00
 000175,0.00000518,0.00001486,0.00001701,0.00001365,0.00000728,0.000001
 75,-0.00037953,-0.00077409,-0.00037020,0.00038497,0.00016526,0.0000124
 6,-0.00050041,-0.00061316,0.00064660,0.00009276,0.00033860,-0.00023618
 ,-0.00009540,-0.00007145,-0.00003714,0.00029745,0.00015396,-0.00007399
 ,-0.00011128,-0.00006129,-0.00003037,-0.00029010,-0.00015838,0.0000471
 7,0.00005754,0.00012290,-0.00003093,-0.00005874,-0.00003184,-0.0000469
 7,-0.00002352,0.00005575,0.,0.00000504,-0.00004633,0.00001036,0.000030
 93,0.00000214,0.00001229,0.00002620,-0.00002543,0.00000530,0.00008788,
 0.00119527,-0.00035895,-0.00001856,-0.00013593,-0.00061365,-0.00720121
 ,-0.00589941,0.00336839,0.00303990,0.00499387,0.00138451,0.00018692,0.
 00006660,-0.00016581,0.00038552,-0.00019931,-0.00027786,-0.00083660,0.
 00033196,0.00092470,-0.00181167,-0.00205940,-0.00268098,-0.00782525,0.
 00355439,0.00113722,0.00378622,-0.00050851,0.00025363,-0.21812443,0.19
 087873,-0.11651628,0.00344419,0.00093397,-0.00208617,0.00047520,-0.000
 11569,-0.00001418,-0.00006159,0.00014280,0.00005464,0.00000658,-0.0001
 1065,-0.00020148,-0.00012330,0.00011603,0.00008610,-0.00024105,-0.0001
 2479,0.00002301,-0.00005204,-0.00001572,-0.00001103,0.00002085,-0.0000
 1248,-0.00006387,-0.00008726,0.00000789,0.00000037,0.00416011,-0.00049
 993,-0.00030907,-0.00081857,-0.00023658,-0.00050585,0.00161170,0.00058
 390,-0.00070291,0.00230599,-0.00516855,0.00090289,0.21904109,0.0003201
 9,0.00002086,-0.00016060,-0.00003579,0.00007309,0.00014066,-0.00034936
 ,-0.00012424,0.00015968,0.00012012,0.00007869,-0.00019419,0.00002713,0
 .00001334,-0.00000668,-0.00008913,0.00020742,0.00010165,0.00006950,-0.
 00015583,-0.00002730,0.00005938,-0.00015348,-0.00009356,-0.00044174,-0
 .00022614,0.00021929,0.00000257,-0.00001408,-0.00002512,-0.00000182,0.
 00004765,0.00003553,0.00002113,0.00000563,0.00000858,0.00000093,0.0000
 1511,-0.00001480,0.00001728,0.00002883,0.00000236,-0.00013652,0.000088
 03,0.00000156,-0.00013529,0.00006480,0.00001080,0.00032012,-0.00011413
 ,-0.00033689,0.00002051,0.00015174,0.00020942,-0.00043521,-0.00043991,
 0.00039696,0.00033171,0.00040211,-0.00059224,0.00003516,0.00002850,-0.
 00007271,-0.00014031,0.00002009,0.00005283,0.00003191,-0.00004097,-0.0
 0002297,0.00012378,0.00005872,-0.00022457,-0.00003110,-0.00002151,0.00
 002008,-0.00002756,-0.00003571,0.00004008,-0.00000565,-0.00000906,-0.0
 0000710,-0.00024118,0.00002399,0.00043834,0.00000647,-0.00004474,-0.00
 001672,0.00000647,0.00019294,0.00010037,0.00000453,-0.00000210,-0.0000
 1293,0.00000023,-0.00000790,0.00004166,0.00001867,0.00001556,0.0000090
 4,0.00000394,0.00000008,0.00000761,0.00003305,-0.00000899,-0.00000733,
 -0.00000152,-0.00000014,0.00001335,0.00003865,0.00023724,-0.00016160,-
 0.00000751,-0.00007662,0.00008856,-0.00052308,-0.00046466,0.00050726,0
 .00050552,0.00019446,-0.00012280,0.00001515,-0.00002113,-0.00002703,-0
 .00010658,-0.00027340,-0.00003864,-0.00000606,0.00016787,0.00005899,0.
 00006524,0.00028145,-0.00008476,0.00005518,-0.00008939,0.00002250,-0.0
 0000771,0.00002350,-0.00000735,-0.00001458,0.00000841,0.00000177,0.000
 00769,-0.00000055,0.00001474,0.00002636,-0.00003669,0.00000237,0.00000
 043,-0.00003491,0.00000971,0.00009431,0.00042221,-0.00024347,-0.000128
 36,-0.00039900,-0.00012090,-0.00272175,-0.00161523,0.00104576,0.001991
 59,-0.00052237,0.00066440,-0.00003176,0.00002347,-0.00008105,-0.000075
 66,-0.00007081,0.00003258,-0.00060901,-0.00113573,-0.00011179,-0.00096
 771,0.00061493,0.00389219,0.02020457,-0.02350454,0.01127821,0.00023583
 ,-0.00027437,-0.00441873,0.17182972,-0.16461030,0.07709952,0.00082739,
 -0.00034318,-0.00097738,0.00018953,-0.00045681,0.00008020,0.00001539,0
 .00002841,0.00000115,-0.00002908,-0.00003459,-0.00005548,0.00002088,0.
 00004417,0.00001927,0.00002828,0.00006857,0.00003958,0.00003094,-0.000
 00456,-0.00001798,-0.00003423,0.00031442,0.00027345,-0.00009264,0.0002
 6484,0.00015014,0.00005877,0.00094966,-0.00268115,-0.00070391,-0.00026
 610,-0.00013789,0.00236611,0.00044300,-0.00013709,-0.00601632,0.002133
 93,-0.00059525,-0.18603419,0.18787616,0.00032826,0.00021811,-0.0002768
 0,-0.00000535,0.00007401,0.00020426,0.00020654,0.00003776,0.00003344,-
 0.00010180,-0.00002791,-0.00005124,-0.00004771,-0.00002803,-0.00004238
 ,0.00002090,0.00012846,0.00014746,0.00002024,-0.00006288,-0.00005826,-
 0.00000460,-0.00009155,-0.00013525,-0.00065337,-0.00052771,0.00038458,
 -0.00000842,-0.00001270,-0.00004520,0.00001643,0.00004127,0.00007259,0
 .00003756,0.00001127,0.00000256,-0.00000564,-0.00000351,0.00000722,0.0
 0003069,0.00000717,0.00002849,-0.00008451,0.00004702,0.00000946,0.0000
 0765,-0.00003918,0.00000796,-0.00026367,-0.00007616,-0.00038292,0.0001
 7333,0.00019520,0.00013449,-0.00060583,0.00000242,-0.00039348,0.000666
 93,0.00090773,-0.00098784,0.00024482,0.00034871,-0.00042578,0.00004196
 ,-0.00017709,0.00012124,-0.00007598,0.00006114,-0.00001372,0.00002534,
 0.00009294,-0.00013352,-0.00002725,-0.00002997,0.00002415,-0.00000891,
 -0.00005240,0.00003114,-0.00005386,0.00000674,-0.00000032,0.00033599,0
 .00003836,0.00065144,-0.00001751,-0.00005752,-0.00004395,-0.00014011,-
 0.00016637,0.00008730,-0.00007624,-0.00007391,0.00013905,0.00001101,-0
 .00000285,0.00000659,0.00003958,-0.00006236,0.00003524,-0.00001200,0.0
 0000701,0.00001388,-0.00000250,0.00001806,0.00000261,-0.00001049,0.000
 00632,0.00001677,0.00009747,0.00016487,0.00009812,0.00010678,0.0000195
 5,0.00006294,-0.00024757,-0.00012922,0.00022775,0.00003949,0.00010725,
 -0.00011414,-0.00003241,-0.00004277,-0.00001305,0.00026643,0.00022445,
 -0.00001727,-0.00009562,-0.00013466,-0.00007008,-0.00032684,-0.0003135
 6,0.00010172,0.00008369,0.00005135,-0.00013082,-0.00003080,0.00001267,
 -0.00002223,-0.00001537,0.00001965,0.00000101,-0.00000693,-0.00001365,
 0.00001336,0.00001309,0.00000882,0.00002242,0.00001710,-0.00000918,-0.
 00000061,0.00009737,0.00054693,-0.00028096,0.00018035,-0.00000371,-0.0
 0026268,-0.00523765,-0.00291766,0.00594920,0.00446562,0.00435495,-0.00
 239328,0.00012259,-0.00001606,-0.00005219,0.00025166,0.00001445,-0.000
 00310,-0.00034620,0.00051578,-0.00012487,0.00009540,0.00071266,-0.0037
 0727,0.01700033,-0.00810223,0.02000431,0.00067764,-0.00595746,-0.00281
 350,-0.11316789,0.08128694,-0.14000726,0.00251815,-0.00007105,-0.00362
 353,0.00020976,0.00014195,-0.00000829,-0.00002686,0.00011605,0.0000249
 7,-0.00001202,-0.00007761,-0.00014766,-0.00006762,0.00006278,0.0000355
 0,-0.00008805,-0.00005187,-0.00001814,-0.00001681,0.00001660,-0.000007
 98,0.00006399,-0.00015835,-0.00013036,-0.00005102,0.00011628,0.0000700
 9,0.00089741,-0.00405144,-0.00207305,0.00034238,-0.00012178,-0.0005949
 7,-0.00001886,-0.00068572,0.00112619,-0.02157693,0.01906255,-0.0014399
 5,0.11381728,-0.08545615,0.13114840\\-0.00000228,0.00000042,0.00000081
 ,-0.00000027,-0.00000011,0.00000051,0.00000166,0.00000073,-0.00000132,
 -0.00000041,-0.00000048,-0.00000007,-0.00000023,-0.00000020,-0.0000004
 2,0.00000001,0.00000032,-0.00000041,0.00000009,-0.00000008,-0.00000038
 ,0.00000128,-0.00000100,-0.00000103,0.00000113,0.00000002,-0.00000102,
 -0.00000027,0.00000011,-0.00000044,0.00000006,0.00000012,-0.00000020,-
 0.00000003,0.00000006,-0.00000038,-0.00000014,0.00000022,-0.00000048,-
 0.00000022,0.00000034,-0.00000037,-0.00000023,-0.00000035,0.00000009,-
 0.00000014,0.00000007,-0.00000039,-0.00000112,0.00000135,0.00000234,-0
 .00000269,-0.00000419,-0.00000134,-0.00000019,0.00000121,0.00000079,0.
 00000055,0.00000067,-0.00000087,-0.00000024,0.00000028,0.00000014,-0.0
 0000007,-0.00000035,0.00000052,0.00000027,0.00000001,0.00000014,-0.000
 00003,-0.00000015,-0.00000002,-0.00000023,0.00000010,-0.00000002,-0.00
 000031,0.00000005,-0.00000044,-0.00000023,-0.00000032,-0.00000007,0.00
 000045,-0.00000076,0.,-0.00000049,-0.00000013,-0.00000009,-0.00000003,
 -0.00000002,0.00000046,-0.00000015,0.00000004,0.00000019,-0.00000039,-
 0.00000011,-0.00000002,-0.00000009,-0.00000001,0.00000008,-0.00000047,
 -0.00000014,-0.00000010,-0.00000025,-0.00000011,0.,-0.00000028,0.00000
 011,-0.00000017,-0.00000023,0.00000124,-0.00000235,-0.00000041,0.00000
 243,0.00000256,-0.00000154,-0.00000333,-0.00000141,0.00000017,0.000000
 27,-0.00000026,-0.00000020,-0.00000002,-0.00000066,0.00000068,0.000001
 05,0.00000054,0.00000006,0.00000004,-0.00000055,-0.00000059,-0.0000010
 1,-0.00000059,0.00000035,-0.00000089,0.00000104,-0.00000037,0.00000011
 ,-0.00000013,-0.00000038,-0.00000022,0.00000003,-0.00000018,-0.0000001
 4,-0.00000002,0.00000007,-0.00000017,0.00000001,-0.00000016,-0.0000000
 4,-0.00000006,-0.00000098,0.00000122,0.00000280,0.00000172,-0.00000041
 ,-0.00000123,-0.00000259,-0.00000010,0.00000193,0.00000211,0.00000101,
 -0.00000106,0.00000058,-0.00000013,0.00000016,0.00000022,0.00000006,-0
 .00000027,0.00000201,-0.00000038,-0.00000096,-0.00000413,-0.00000058,0
 .00000174,0.00000046,0.00000212,0.00000084,0.00000034,0.00000064,0.000
 00084,0.00000273,-0.00000074,0.00000075,0.00000243,0.00000113,-0.00000
 092,0.00000048,-0.00000019,-0.00000019,0.00000040,0.00000036,-0.000000
 26,0.00000070,-0.00000002,-0.00000012,0.00000037,0.00000012,0.,0.00000
 050,0.00000028,0.00000020,-0.00000058,-0.00000052,-0.00000014,0.000000
 50,0.00000009,0.00000017,0.00000016,-0.00000017,0.00000035,0.00000051,
 -0.00000003,-0.00000044,0.00000059,-0.00000033,0.00000201,0.00000067,0
 .00000007,0.00000012,-0.00000028,-0.00000043,0.00000006,-0.00000024,-0
 .00000008,-0.00000060\\\@
 The archive entry for this job was punched.


 IF YOU WANT TO LEARN FROM THE THEORETICAL PHYSICISTS ABOUT THE
 METHODS WHICH THEY USE, I ADVISE YOU TO FOLLOW THIS PRINCIPLE VERY STRICTLY:
 DON'T LISTEN TO THEIR WORDS; PAY ATTENTION, INSTEAD, TO THEIR ACTIONS.
 -- A.EINSTEIN, 1934
 Job cpu time:       0 days 10 hours 52 minutes  0.7 seconds.
 Elapsed time:       0 days  1 hours 21 minutes 32.3 seconds.
 File lengths (MBytes):  RWF=   3960 Int=      0 D2E=      0 Chk=     48 Scr=     16
 Normal termination of Gaussian 16 at Tue May 31 20:41:05 2022.
