 Entering Gaussian System, Link 0=/opt/software/Gaussian/g16-AVX2-C.01/g16/g16
 Input=opt_freq-conf-841.com
 Output=opt_freq-conf-841.log
 Initial command:
 /opt/software/Gaussian/g16-AVX2-C.01/g16/l1.exe "/mnt/gs18/scratch/users/kengmith/Gau-102543.inp" -scrdir="/mnt/gs18/scratch/users/kengmith/"
 Entering Link 1 = /opt/software/Gaussian/g16-AVX2-C.01/g16/l1.exe PID=    102553.
  
 Copyright (c) 1988-2019, Gaussian, Inc.  All Rights Reserved.
  
 This is part of the Gaussian(R) 16 program.  It is based on
 the Gaussian(R) 09 system (copyright 2009, Gaussian, Inc.),
 the Gaussian(R) 03 system (copyright 2003, Gaussian, Inc.),
 the Gaussian(R) 98 system (copyright 1998, Gaussian, Inc.),
 the Gaussian(R) 94 system (copyright 1995, Gaussian, Inc.),
 the Gaussian 92(TM) system (copyright 1992, Gaussian, Inc.),
 the Gaussian 90(TM) system (copyright 1990, Gaussian, Inc.),
 the Gaussian 88(TM) system (copyright 1988, Gaussian, Inc.),
 the Gaussian 86(TM) system (copyright 1986, Carnegie Mellon
 University), and the Gaussian 82(TM) system (copyright 1983,
 Carnegie Mellon University). Gaussian is a federally registered
 trademark of Gaussian, Inc.
  
 This software contains proprietary and confidential information,
 including trade secrets, belonging to Gaussian, Inc.
  
 This software is provided under written license and may be
 used, copied, transmitted, or stored only in accord with that
 written license.
  
 The following legend is applicable only to US Government
 contracts under FAR:
  
                    RESTRICTED RIGHTS LEGEND
  
 Use, reproduction and disclosure by the US Government is
 subject to restrictions as set forth in subparagraphs (a)
 and (c) of the Commercial Computer Software - Restricted
 Rights clause in FAR 52.227-19.
  
 Gaussian, Inc.
 340 Quinnipiac St., Bldg. 40, Wallingford CT 06492
  
  
 ---------------------------------------------------------------
 Warning -- This program may not be used in any manner that
 competes with the business of Gaussian, Inc. or will provide
 assistance to any competitor of Gaussian, Inc.  The licensee
 of this program is prohibited from giving any competitor of
 Gaussian, Inc. access to this program.  By using this program,
 the user acknowledges that Gaussian, Inc. is engaged in the
 business of creating and licensing software in the field of
 computational chemistry and represents and warrants to the
 licensee that it is not a competitor of Gaussian, Inc. and that
 it will not use this program in any manner prohibited above.
 ---------------------------------------------------------------
  

 Cite this work as:
 Gaussian 16, Revision C.01,
 M. J. Frisch, G. W. Trucks, H. B. Schlegel, G. E. Scuseria, 
 M. A. Robb, J. R. Cheeseman, G. Scalmani, V. Barone, 
 G. A. Petersson, H. Nakatsuji, X. Li, M. Caricato, A. V. Marenich, 
 J. Bloino, B. G. Janesko, R. Gomperts, B. Mennucci, H. P. Hratchian, 
 J. V. Ortiz, A. F. Izmaylov, J. L. Sonnenberg, D. Williams-Young, 
 F. Ding, F. Lipparini, F. Egidi, J. Goings, B. Peng, A. Petrone, 
 T. Henderson, D. Ranasinghe, V. G. Zakrzewski, J. Gao, N. Rega, 
 G. Zheng, W. Liang, M. Hada, M. Ehara, K. Toyota, R. Fukuda, 
 J. Hasegawa, M. Ishida, T. Nakajima, Y. Honda, O. Kitao, H. Nakai, 
 T. Vreven, K. Throssell, J. A. Montgomery, Jr., J. E. Peralta, 
 F. Ogliaro, M. J. Bearpark, J. J. Heyd, E. N. Brothers, K. N. Kudin, 
 V. N. Staroverov, T. A. Keith, R. Kobayashi, J. Normand, 
 K. Raghavachari, A. P. Rendell, J. C. Burant, S. S. Iyengar, 
 J. Tomasi, M. Cossi, J. M. Millam, M. Klene, C. Adamo, R. Cammi, 
 J. W. Ochterski, R. L. Martin, K. Morokuma, O. Farkas, 
 J. B. Foresman, and D. J. Fox, Gaussian, Inc., Wallingford CT, 2019.
 
 ******************************************
 Gaussian 16:  ES64L-G16RevC.01  3-Jul-2019
                31-May-2022 
 ******************************************
 %mem=12gb
 %nproc=8
 Will use up to    8 processors via shared memory.
 %chk=conf-841.chk
 ----------------------------------------------------------------------
 # B3LYP/6-31G* empiricaldispersion=gd3 opt=calcfc freq=noraman nosymm 
 integral(ultrafinegrid)
 ----------------------------------------------------------------------
 1/10=4,18=20,19=15,26=4,38=1/1,3;
 2/9=110,12=2,15=1,17=6,18=5,40=1/2;
 3/5=1,6=6,7=1,11=2,25=1,30=1,71=2,74=-5,75=-5,124=31,140=1/1,2,3;
 4//1;
 5/5=2,38=5/2;
 8/6=4,10=90,11=11/1;
 11/6=1,8=1,9=11,15=111,16=1,31=1/1,2,10;
 10/6=1,13=1,31=1/2;
 6/7=2,8=2,9=2,10=2,28=1/1;
 7/10=1,25=1,30=1/1,2,3,16;
 1/10=4,18=20,19=15,26=4/3(2);
 2/9=110,15=1/2;
 99//99;
 2/9=110,15=1/2;
 3/5=1,6=6,7=1,11=2,25=1,30=1,71=1,74=-5,75=-5,124=31/1,2,3;
 4/5=5,16=3,69=1/1;
 5/5=2,38=5/2;
 7/30=1/1,2,3,16;
 1/18=20,19=15,26=4/3(-5);
 2/9=110,15=1/2;
 6/7=2,8=2,9=2,10=2,19=2,28=1/1;
 99/9=1/99;
 ------------------------------------------------------------
 Candidate Structure: Conf:841 OPT and FREQ calc in gas phase
 ------------------------------------------------------------
 Symbolic Z-matrix:
 Charge =  1 Multiplicity = 1
 N                    -9.53067  -3.45452  -7.12905 
 C                    -9.47242  -3.53924  -8.59313 
 C                    -8.12176  -3.07817  -9.11712 
 O                    -7.43401  -3.82764  -9.79949 
 C                    -10.58379  -2.72874  -9.24168 
 C                    -11.96573  -3.28185  -8.94048 
 N                    -12.9297  -2.89744  -9.81513 
 O                    -12.18944  -4.0057   -7.98414 
 H                    -10.43313  -3.84836  -6.84172 
 H                    -9.5606   -4.58247  -8.90498 
 H                    -10.544   -1.69556  -8.89289 
 H                    -10.42164  -2.69717  -10.32001 
 H                    -13.87611  -3.1821   -9.63118 
 H                    -12.74221  -2.20354  -10.51822 
 H                    -8.76379  -3.97578  -6.69568 
 H                    -9.49338  -2.4677   -6.83798 
 N                    -7.74529  -1.80792  -8.80907 
 C                    -6.67951  -1.18552  -9.55719 
 C                    -5.63859  -0.54459  -8.62404 
 O                    -5.49138   0.66852  -8.57652 
 C                    -7.23665  -0.12429  -10.51743 
 C                    -8.41696  -0.59643  -11.32146 
 C                    -8.28559  -1.62181  -12.25471 
 C                    -9.67816  -0.04483  -11.11109 
 C                    -9.3876   -2.07972  -12.97407 
 C                    -10.77461  -0.48076  -11.84398 
 C                    -10.63554  -1.50101  -12.77746 
 H                    -8.36813  -1.23013  -8.26481 
 H                    -6.19745  -1.9897   -10.1113 
 H                    -7.52231   0.7503   -9.93214 
 H                    -6.41577   0.19135  -11.16352 
 H                    -7.30723  -2.06579  -12.41436 
 H                    -9.80087   0.72232  -10.3522 
 H                    -9.26835  -2.89665  -13.67462 
 H                    -11.75372  -0.05114  -11.64805 
 H                    -11.50429  -1.87316  -13.3131 
 N                    -4.87363  -1.36463  -7.855 
 C                    -5.23605  -2.68312  -7.40107 
 C                    -6.26813  -2.68104  -6.25458 
 O                    -6.80994  -3.73584  -5.9375 
 C                    -4.01464  -3.50616  -6.97727 
 C                    -3.23322  -2.93455  -5.80559 
 N                    -2.72923  -3.85034  -4.94681 
 O                    -3.0394   -1.73005  -5.67252 
 H                    -4.19494  -0.88437  -7.28809 
 H                    -5.71762  -3.19612  -8.23347 
 H                    -3.32251  -3.55202  -7.81873 
 H                    -4.33154  -4.52421  -6.75043 
 H                    -2.17885  -3.53245  -4.16928 
 H                    -2.86982  -4.83232  -5.08809 
 N                    -6.5225   -1.50088  -5.65719 
 C                    -7.74721  -1.26832  -4.92405 
 C                    -8.53899  -0.2171   -5.74743 
 O                    -8.31986   0.97885  -5.50711 
 C                    -7.49517  -0.86034  -3.4836 
 C                    -6.76198   0.45121  -3.2 
 C                    -5.33168   0.54112  -3.71752 
 N                    -5.2394    1.03334  -5.11388 
 C                    -4.06787   1.49035  -5.59857 
 N                    -2.93751   1.13484  -4.96066 
 N                    -4.09889   2.27548  -6.68749 
 O                    -9.26028  -0.67999  -6.67125 
 H                    -6.0247   -0.67071  -5.93621 
 H                    -8.28075  -2.21916  -4.92886 
 H                    -8.46718  -0.83167  -2.97455 
 H                    -6.94645  -1.68993  -3.0247 
 H                    -7.3329    1.30338  -3.56297 
 H                    -6.71899   0.54443  -2.10896 
 H                    -4.75563   1.20374  -3.06256 
 H                    -4.85432  -0.43651  -3.67451 
 H                    -6.06106   1.51111  -5.46392 
 H                    -2.07162   1.38492  -5.41511 
 H                    -2.94      0.16773  -4.65099 
 H                    -3.20745   2.51574  -7.09845 
 H                    -4.78748   2.00615  -7.38623 
 

 GradGradGradGradGradGradGradGradGradGradGradGradGradGradGradGradGradGrad
 Berny optimization.
 Initialization pass.
                           ----------------------------
                           !    Initial Parameters    !
                           ! (Angstroms and Degrees)  !
 --------------------------                            --------------------------
 ! Name  Definition              Value          Derivative Info.                !
 --------------------------------------------------------------------------------
 ! R1    R(1,2)                  1.4677         calculate D2E/DX2 analytically  !
 ! R2    R(1,9)                  1.0257         calculate D2E/DX2 analytically  !
 ! R3    R(1,15)                 1.0235         calculate D2E/DX2 analytically  !
 ! R4    R(1,16)                 1.0295         calculate D2E/DX2 analytically  !
 ! R5    R(2,3)                  1.5203         calculate D2E/DX2 analytically  !
 ! R6    R(2,5)                  1.5207         calculate D2E/DX2 analytically  !
 ! R7    R(2,10)                 1.0924         calculate D2E/DX2 analytically  !
 ! R8    R(3,4)                  1.2249         calculate D2E/DX2 analytically  !
 ! R9    R(3,17)                 1.3602         calculate D2E/DX2 analytically  !
 ! R10   R(5,6)                  1.5187         calculate D2E/DX2 analytically  !
 ! R11   R(5,11)                 1.0912         calculate D2E/DX2 analytically  !
 ! R12   R(5,12)                 1.0909         calculate D2E/DX2 analytically  !
 ! R13   R(6,7)                  1.3572         calculate D2E/DX2 analytically  !
 ! R14   R(6,8)                  1.2201         calculate D2E/DX2 analytically  !
 ! R15   R(7,13)                 1.0053         calculate D2E/DX2 analytically  !
 ! R16   R(7,14)                 1.0055         calculate D2E/DX2 analytically  !
 ! R17   R(17,18)                1.4433         calculate D2E/DX2 analytically  !
 ! R18   R(17,28)                1.0089         calculate D2E/DX2 analytically  !
 ! R19   R(18,19)                1.5379         calculate D2E/DX2 analytically  !
 ! R20   R(18,21)                1.5358         calculate D2E/DX2 analytically  !
 ! R21   R(18,29)                1.0891         calculate D2E/DX2 analytically  !
 ! R22   R(19,20)                1.2229         calculate D2E/DX2 analytically  !
 ! R23   R(19,37)                1.3598         calculate D2E/DX2 analytically  !
 ! R24   R(21,22)                1.5042         calculate D2E/DX2 analytically  !
 ! R25   R(21,30)                1.0904         calculate D2E/DX2 analytically  !
 ! R26   R(21,31)                1.0913         calculate D2E/DX2 analytically  !
 ! R27   R(22,23)                1.3927         calculate D2E/DX2 analytically  !
 ! R28   R(22,24)                1.3925         calculate D2E/DX2 analytically  !
 ! R29   R(23,25)                1.3934         calculate D2E/DX2 analytically  !
 ! R30   R(23,32)                1.0862         calculate D2E/DX2 analytically  !
 ! R31   R(24,26)                1.389          calculate D2E/DX2 analytically  !
 ! R32   R(24,33)                1.086          calculate D2E/DX2 analytically  !
 ! R33   R(25,27)                1.3896         calculate D2E/DX2 analytically  !
 ! R34   R(25,34)                1.0828         calculate D2E/DX2 analytically  !
 ! R35   R(26,27)                1.3898         calculate D2E/DX2 analytically  !
 ! R36   R(26,35)                1.087          calculate D2E/DX2 analytically  !
 ! R37   R(27,36)                1.0863         calculate D2E/DX2 analytically  !
 ! R38   R(37,38)                1.4408         calculate D2E/DX2 analytically  !
 ! R39   R(37,45)                1.0063         calculate D2E/DX2 analytically  !
 ! R40   R(38,39)                1.5426         calculate D2E/DX2 analytically  !
 ! R41   R(38,41)                1.5326         calculate D2E/DX2 analytically  !
 ! R42   R(38,46)                1.0899         calculate D2E/DX2 analytically  !
 ! R43   R(39,40)                1.2275         calculate D2E/DX2 analytically  !
 ! R44   R(39,51)                1.347          calculate D2E/DX2 analytically  !
 ! R45   R(41,42)                1.5199         calculate D2E/DX2 analytically  !
 ! R46   R(41,47)                1.0905         calculate D2E/DX2 analytically  !
 ! R47   R(41,48)                1.0901         calculate D2E/DX2 analytically  !
 ! R48   R(42,43)                1.3528         calculate D2E/DX2 analytically  !
 ! R49   R(42,44)                1.2272         calculate D2E/DX2 analytically  !
 ! R50   R(43,49)                1.0042         calculate D2E/DX2 analytically  !
 ! R51   R(43,50)                1.002          calculate D2E/DX2 analytically  !
 ! R52   R(51,52)                1.4462         calculate D2E/DX2 analytically  !
 ! R53   R(51,63)                1.0074         calculate D2E/DX2 analytically  !
 ! R54   R(52,53)                1.5524         calculate D2E/DX2 analytically  !
 ! R55   R(52,55)                1.5182         calculate D2E/DX2 analytically  !
 ! R56   R(52,64)                1.0903         calculate D2E/DX2 analytically  !
 ! R57   R(53,54)                1.2394         calculate D2E/DX2 analytically  !
 ! R58   R(53,62)                1.2601         calculate D2E/DX2 analytically  !
 ! R59   R(55,56)                1.5291         calculate D2E/DX2 analytically  !
 ! R60   R(55,65)                1.0976         calculate D2E/DX2 analytically  !
 ! R61   R(55,66)                1.0954         calculate D2E/DX2 analytically  !
 ! R62   R(56,57)                1.5237         calculate D2E/DX2 analytically  !
 ! R63   R(56,67)                1.0881         calculate D2E/DX2 analytically  !
 ! R64   R(56,68)                1.0959         calculate D2E/DX2 analytically  !
 ! R65   R(57,58)                1.4834         calculate D2E/DX2 analytically  !
 ! R66   R(57,69)                1.0954         calculate D2E/DX2 analytically  !
 ! R67   R(57,70)                1.0888         calculate D2E/DX2 analytically  !
 ! R68   R(58,59)                1.3477         calculate D2E/DX2 analytically  !
 ! R69   R(58,71)                1.0129         calculate D2E/DX2 analytically  !
 ! R70   R(59,60)                1.3457         calculate D2E/DX2 analytically  !
 ! R71   R(59,61)                1.3428         calculate D2E/DX2 analytically  !
 ! R72   R(60,72)                1.0094         calculate D2E/DX2 analytically  !
 ! R73   R(60,73)                1.0155         calculate D2E/DX2 analytically  !
 ! R74   R(61,74)                1.0106         calculate D2E/DX2 analytically  !
 ! R75   R(61,75)                1.0173         calculate D2E/DX2 analytically  !
 ! A1    A(2,1,9)              106.9897         calculate D2E/DX2 analytically  !
 ! A2    A(2,1,15)             111.2989         calculate D2E/DX2 analytically  !
 ! A3    A(2,1,16)             109.6286         calculate D2E/DX2 analytically  !
 ! A4    A(9,1,15)             110.1849         calculate D2E/DX2 analytically  !
 ! A5    A(9,1,16)             108.7057         calculate D2E/DX2 analytically  !
 ! A6    A(15,1,16)            109.9561         calculate D2E/DX2 analytically  !
 ! A7    A(1,2,3)              111.196          calculate D2E/DX2 analytically  !
 ! A8    A(1,2,5)              111.4477         calculate D2E/DX2 analytically  !
 ! A9    A(1,2,10)             109.6749         calculate D2E/DX2 analytically  !
 ! A10   A(3,2,5)              109.9154         calculate D2E/DX2 analytically  !
 ! A11   A(3,2,10)             105.2441         calculate D2E/DX2 analytically  !
 ! A12   A(5,2,10)             109.1622         calculate D2E/DX2 analytically  !
 ! A13   A(2,3,4)              120.349          calculate D2E/DX2 analytically  !
 ! A14   A(2,3,17)             116.8099         calculate D2E/DX2 analytically  !
 ! A15   A(4,3,17)             122.8316         calculate D2E/DX2 analytically  !
 ! A16   A(2,5,6)              112.7253         calculate D2E/DX2 analytically  !
 ! A17   A(2,5,11)             109.9784         calculate D2E/DX2 analytically  !
 ! A18   A(2,5,12)             109.1687         calculate D2E/DX2 analytically  !
 ! A19   A(6,5,11)             108.3384         calculate D2E/DX2 analytically  !
 ! A20   A(6,5,12)             109.9885         calculate D2E/DX2 analytically  !
 ! A21   A(11,5,12)            106.4472         calculate D2E/DX2 analytically  !
 ! A22   A(5,6,7)              114.5407         calculate D2E/DX2 analytically  !
 ! A23   A(5,6,8)              122.5734         calculate D2E/DX2 analytically  !
 ! A24   A(7,6,8)              122.8843         calculate D2E/DX2 analytically  !
 ! A25   A(6,7,13)             118.0699         calculate D2E/DX2 analytically  !
 ! A26   A(6,7,14)             120.9078         calculate D2E/DX2 analytically  !
 ! A27   A(13,7,14)            119.9291         calculate D2E/DX2 analytically  !
 ! A28   A(3,17,18)            119.3218         calculate D2E/DX2 analytically  !
 ! A29   A(3,17,28)            119.0848         calculate D2E/DX2 analytically  !
 ! A30   A(18,17,28)           119.2435         calculate D2E/DX2 analytically  !
 ! A31   A(17,18,19)           111.4089         calculate D2E/DX2 analytically  !
 ! A32   A(17,18,21)           110.7444         calculate D2E/DX2 analytically  !
 ! A33   A(17,18,29)           105.7926         calculate D2E/DX2 analytically  !
 ! A34   A(19,18,21)           109.6911         calculate D2E/DX2 analytically  !
 ! A35   A(19,18,29)           108.473          calculate D2E/DX2 analytically  !
 ! A36   A(21,18,29)           110.6522         calculate D2E/DX2 analytically  !
 ! A37   A(18,19,20)           121.2288         calculate D2E/DX2 analytically  !
 ! A38   A(18,19,37)           118.2037         calculate D2E/DX2 analytically  !
 ! A39   A(20,19,37)           120.5658         calculate D2E/DX2 analytically  !
 ! A40   A(18,21,22)           113.7021         calculate D2E/DX2 analytically  !
 ! A41   A(18,21,30)           108.2796         calculate D2E/DX2 analytically  !
 ! A42   A(18,21,31)           107.2862         calculate D2E/DX2 analytically  !
 ! A43   A(22,21,30)           109.4568         calculate D2E/DX2 analytically  !
 ! A44   A(22,21,31)           111.3817         calculate D2E/DX2 analytically  !
 ! A45   A(30,21,31)           106.4305         calculate D2E/DX2 analytically  !
 ! A46   A(21,22,23)           121.0159         calculate D2E/DX2 analytically  !
 ! A47   A(21,22,24)           120.3715         calculate D2E/DX2 analytically  !
 ! A48   A(23,22,24)           118.5744         calculate D2E/DX2 analytically  !
 ! A49   A(22,23,25)           120.8839         calculate D2E/DX2 analytically  !
 ! A50   A(22,23,32)           118.9734         calculate D2E/DX2 analytically  !
 ! A51   A(25,23,32)           120.1425         calculate D2E/DX2 analytically  !
 ! A52   A(22,24,26)           120.7239         calculate D2E/DX2 analytically  !
 ! A53   A(22,24,33)           119.1894         calculate D2E/DX2 analytically  !
 ! A54   A(26,24,33)           120.0786         calculate D2E/DX2 analytically  !
 ! A55   A(23,25,27)           120.0234         calculate D2E/DX2 analytically  !
 ! A56   A(23,25,34)           119.6606         calculate D2E/DX2 analytically  !
 ! A57   A(27,25,34)           120.31           calculate D2E/DX2 analytically  !
 ! A58   A(24,26,27)           120.3834         calculate D2E/DX2 analytically  !
 ! A59   A(24,26,35)           119.4634         calculate D2E/DX2 analytically  !
 ! A60   A(27,26,35)           120.0871         calculate D2E/DX2 analytically  !
 ! A61   A(25,27,26)           119.3809         calculate D2E/DX2 analytically  !
 ! A62   A(25,27,36)           120.3815         calculate D2E/DX2 analytically  !
 ! A63   A(26,27,36)           120.1743         calculate D2E/DX2 analytically  !
 ! A64   A(19,37,38)           126.0544         calculate D2E/DX2 analytically  !
 ! A65   A(19,37,45)           114.2178         calculate D2E/DX2 analytically  !
 ! A66   A(38,37,45)           115.3981         calculate D2E/DX2 analytically  !
 ! A67   A(37,38,39)           113.6546         calculate D2E/DX2 analytically  !
 ! A68   A(37,38,41)           112.2162         calculate D2E/DX2 analytically  !
 ! A69   A(37,38,46)           107.5327         calculate D2E/DX2 analytically  !
 ! A70   A(39,38,41)           109.1719         calculate D2E/DX2 analytically  !
 ! A71   A(39,38,46)           105.8206         calculate D2E/DX2 analytically  !
 ! A72   A(41,38,46)           108.0922         calculate D2E/DX2 analytically  !
 ! A73   A(38,39,40)           119.0874         calculate D2E/DX2 analytically  !
 ! A74   A(38,39,51)           117.2032         calculate D2E/DX2 analytically  !
 ! A75   A(40,39,51)           123.7093         calculate D2E/DX2 analytically  !
 ! A76   A(38,41,42)           114.8932         calculate D2E/DX2 analytically  !
 ! A77   A(38,41,47)           108.3619         calculate D2E/DX2 analytically  !
 ! A78   A(38,41,48)           109.1106         calculate D2E/DX2 analytically  !
 ! A79   A(42,41,47)           106.5195         calculate D2E/DX2 analytically  !
 ! A80   A(42,41,48)           109.8935         calculate D2E/DX2 analytically  !
 ! A81   A(47,41,48)           107.8069         calculate D2E/DX2 analytically  !
 ! A82   A(41,42,43)           115.2328         calculate D2E/DX2 analytically  !
 ! A83   A(41,42,44)           122.2687         calculate D2E/DX2 analytically  !
 ! A84   A(43,42,44)           122.4618         calculate D2E/DX2 analytically  !
 ! A85   A(42,43,49)           118.7755         calculate D2E/DX2 analytically  !
 ! A86   A(42,43,50)           121.4421         calculate D2E/DX2 analytically  !
 ! A87   A(49,43,50)           119.7537         calculate D2E/DX2 analytically  !
 ! A88   A(39,51,52)           121.7117         calculate D2E/DX2 analytically  !
 ! A89   A(39,51,63)           120.388          calculate D2E/DX2 analytically  !
 ! A90   A(52,51,63)           115.2374         calculate D2E/DX2 analytically  !
 ! A91   A(51,52,53)           105.7798         calculate D2E/DX2 analytically  !
 ! A92   A(51,52,55)           112.5575         calculate D2E/DX2 analytically  !
 ! A93   A(51,52,64)           105.7792         calculate D2E/DX2 analytically  !
 ! A94   A(53,52,55)           113.9497         calculate D2E/DX2 analytically  !
 ! A95   A(53,52,64)           109.7923         calculate D2E/DX2 analytically  !
 ! A96   A(55,52,64)           108.6494         calculate D2E/DX2 analytically  !
 ! A97   A(52,53,54)           117.4134         calculate D2E/DX2 analytically  !
 ! A98   A(52,53,62)           115.5966         calculate D2E/DX2 analytically  !
 ! A99   A(54,53,62)           126.7131         calculate D2E/DX2 analytically  !
 ! A100  A(52,55,56)           119.0826         calculate D2E/DX2 analytically  !
 ! A101  A(52,55,65)           107.4599         calculate D2E/DX2 analytically  !
 ! A102  A(52,55,66)           106.0885         calculate D2E/DX2 analytically  !
 ! A103  A(56,55,65)           108.433          calculate D2E/DX2 analytically  !
 ! A104  A(56,55,66)           109.3721         calculate D2E/DX2 analytically  !
 ! A105  A(65,55,66)           105.6109         calculate D2E/DX2 analytically  !
 ! A106  A(55,56,57)           115.9582         calculate D2E/DX2 analytically  !
 ! A107  A(55,56,67)           110.9958         calculate D2E/DX2 analytically  !
 ! A108  A(55,56,68)           106.0468         calculate D2E/DX2 analytically  !
 ! A109  A(57,56,67)           109.4526         calculate D2E/DX2 analytically  !
 ! A110  A(57,56,68)           107.2364         calculate D2E/DX2 analytically  !
 ! A111  A(67,56,68)           106.624          calculate D2E/DX2 analytically  !
 ! A112  A(56,57,58)           113.4335         calculate D2E/DX2 analytically  !
 ! A113  A(56,57,69)           109.0422         calculate D2E/DX2 analytically  !
 ! A114  A(56,57,70)           110.1911         calculate D2E/DX2 analytically  !
 ! A115  A(58,57,69)           109.232          calculate D2E/DX2 analytically  !
 ! A116  A(58,57,70)           107.9292         calculate D2E/DX2 analytically  !
 ! A117  A(69,57,70)           106.7959         calculate D2E/DX2 analytically  !
 ! A118  A(57,58,59)           120.3398         calculate D2E/DX2 analytically  !
 ! A119  A(57,58,71)           115.5529         calculate D2E/DX2 analytically  !
 ! A120  A(59,58,71)           114.8939         calculate D2E/DX2 analytically  !
 ! A121  A(58,59,60)           118.0403         calculate D2E/DX2 analytically  !
 ! A122  A(58,59,61)           118.0235         calculate D2E/DX2 analytically  !
 ! A123  A(60,59,61)           123.936          calculate D2E/DX2 analytically  !
 ! A124  A(59,60,72)           116.2113         calculate D2E/DX2 analytically  !
 ! A125  A(59,60,73)           113.2089         calculate D2E/DX2 analytically  !
 ! A126  A(72,60,73)           112.0455         calculate D2E/DX2 analytically  !
 ! A127  A(59,61,74)           116.6406         calculate D2E/DX2 analytically  !
 ! A128  A(59,61,75)           114.6978         calculate D2E/DX2 analytically  !
 ! A129  A(74,61,75)           112.3766         calculate D2E/DX2 analytically  !
 ! D1    D(9,1,2,3)           -175.5556         calculate D2E/DX2 analytically  !
 ! D2    D(9,1,2,5)             61.428          calculate D2E/DX2 analytically  !
 ! D3    D(9,1,2,10)           -59.5695         calculate D2E/DX2 analytically  !
 ! D4    D(15,1,2,3)           -55.1338         calculate D2E/DX2 analytically  !
 ! D5    D(15,1,2,5)          -178.1501         calculate D2E/DX2 analytically  !
 ! D6    D(15,1,2,10)           60.8524         calculate D2E/DX2 analytically  !
 ! D7    D(16,1,2,3)            66.7342         calculate D2E/DX2 analytically  !
 ! D8    D(16,1,2,5)           -56.2822         calculate D2E/DX2 analytically  !
 ! D9    D(16,1,2,10)         -177.2797         calculate D2E/DX2 analytically  !
 ! D10   D(1,2,3,4)            122.36           calculate D2E/DX2 analytically  !
 ! D11   D(1,2,3,17)           -58.7315         calculate D2E/DX2 analytically  !
 ! D12   D(5,2,3,4)           -113.7482         calculate D2E/DX2 analytically  !
 ! D13   D(5,2,3,17)            65.1603         calculate D2E/DX2 analytically  !
 ! D14   D(10,2,3,4)             3.6769         calculate D2E/DX2 analytically  !
 ! D15   D(10,2,3,17)         -177.4146         calculate D2E/DX2 analytically  !
 ! D16   D(1,2,5,6)            -65.6337         calculate D2E/DX2 analytically  !
 ! D17   D(1,2,5,11)            55.3781         calculate D2E/DX2 analytically  !
 ! D18   D(1,2,5,12)           171.822          calculate D2E/DX2 analytically  !
 ! D19   D(3,2,5,6)            170.6211         calculate D2E/DX2 analytically  !
 ! D20   D(3,2,5,11)           -68.3671         calculate D2E/DX2 analytically  !
 ! D21   D(3,2,5,12)            48.0768         calculate D2E/DX2 analytically  !
 ! D22   D(10,2,5,6)            55.6629         calculate D2E/DX2 analytically  !
 ! D23   D(10,2,5,11)          176.6747         calculate D2E/DX2 analytically  !
 ! D24   D(10,2,5,12)          -66.8814         calculate D2E/DX2 analytically  !
 ! D25   D(2,3,17,18)         -163.1122         calculate D2E/DX2 analytically  !
 ! D26   D(2,3,17,28)           -0.6373         calculate D2E/DX2 analytically  !
 ! D27   D(4,3,17,18)           15.7667         calculate D2E/DX2 analytically  !
 ! D28   D(4,3,17,28)          178.2417         calculate D2E/DX2 analytically  !
 ! D29   D(2,5,6,7)           -159.2069         calculate D2E/DX2 analytically  !
 ! D30   D(2,5,6,8)             21.2441         calculate D2E/DX2 analytically  !
 ! D31   D(11,5,6,7)            78.8507         calculate D2E/DX2 analytically  !
 ! D32   D(11,5,6,8)          -100.6984         calculate D2E/DX2 analytically  !
 ! D33   D(12,5,6,7)           -37.1236         calculate D2E/DX2 analytically  !
 ! D34   D(12,5,6,8)           143.3274         calculate D2E/DX2 analytically  !
 ! D35   D(5,6,7,13)          -175.954          calculate D2E/DX2 analytically  !
 ! D36   D(5,6,7,14)            -7.9175         calculate D2E/DX2 analytically  !
 ! D37   D(8,6,7,13)             3.5935         calculate D2E/DX2 analytically  !
 ! D38   D(8,6,7,14)           171.6299         calculate D2E/DX2 analytically  !
 ! D39   D(3,17,18,19)        -131.2488         calculate D2E/DX2 analytically  !
 ! D40   D(3,17,18,21)         106.3725         calculate D2E/DX2 analytically  !
 ! D41   D(3,17,18,29)         -13.5656         calculate D2E/DX2 analytically  !
 ! D42   D(28,17,18,19)         66.3042         calculate D2E/DX2 analytically  !
 ! D43   D(28,17,18,21)        -56.0744         calculate D2E/DX2 analytically  !
 ! D44   D(28,17,18,29)       -176.0125         calculate D2E/DX2 analytically  !
 ! D45   D(17,18,19,20)       -112.705          calculate D2E/DX2 analytically  !
 ! D46   D(17,18,19,37)         67.7762         calculate D2E/DX2 analytically  !
 ! D47   D(21,18,19,20)         10.2783         calculate D2E/DX2 analytically  !
 ! D48   D(21,18,19,37)       -169.2404         calculate D2E/DX2 analytically  !
 ! D49   D(29,18,19,20)        131.2428         calculate D2E/DX2 analytically  !
 ! D50   D(29,18,19,37)        -48.2759         calculate D2E/DX2 analytically  !
 ! D51   D(17,18,21,22)        -47.3519         calculate D2E/DX2 analytically  !
 ! D52   D(17,18,21,30)         74.5273         calculate D2E/DX2 analytically  !
 ! D53   D(17,18,21,31)       -170.9677         calculate D2E/DX2 analytically  !
 ! D54   D(19,18,21,22)       -170.7269         calculate D2E/DX2 analytically  !
 ! D55   D(19,18,21,30)        -48.8476         calculate D2E/DX2 analytically  !
 ! D56   D(19,18,21,31)         65.6573         calculate D2E/DX2 analytically  !
 ! D57   D(29,18,21,22)         69.6338         calculate D2E/DX2 analytically  !
 ! D58   D(29,18,21,30)       -168.4869         calculate D2E/DX2 analytically  !
 ! D59   D(29,18,21,31)        -53.982          calculate D2E/DX2 analytically  !
 ! D60   D(18,19,37,38)        -26.3173         calculate D2E/DX2 analytically  !
 ! D61   D(18,19,37,45)        178.2928         calculate D2E/DX2 analytically  !
 ! D62   D(20,19,37,38)        154.1607         calculate D2E/DX2 analytically  !
 ! D63   D(20,19,37,45)         -1.2292         calculate D2E/DX2 analytically  !
 ! D64   D(18,21,22,23)        -65.0416         calculate D2E/DX2 analytically  !
 ! D65   D(18,21,22,24)        112.6769         calculate D2E/DX2 analytically  !
 ! D66   D(30,21,22,23)        173.7344         calculate D2E/DX2 analytically  !
 ! D67   D(30,21,22,24)         -8.5471         calculate D2E/DX2 analytically  !
 ! D68   D(31,21,22,23)         56.3169         calculate D2E/DX2 analytically  !
 ! D69   D(31,21,22,24)       -125.9646         calculate D2E/DX2 analytically  !
 ! D70   D(21,22,23,25)        178.3859         calculate D2E/DX2 analytically  !
 ! D71   D(21,22,23,32)         -1.4336         calculate D2E/DX2 analytically  !
 ! D72   D(24,22,23,25)          0.6273         calculate D2E/DX2 analytically  !
 ! D73   D(24,22,23,32)       -179.1922         calculate D2E/DX2 analytically  !
 ! D74   D(21,22,24,26)       -179.6258         calculate D2E/DX2 analytically  !
 ! D75   D(21,22,24,33)         -0.6617         calculate D2E/DX2 analytically  !
 ! D76   D(23,22,24,26)         -1.8523         calculate D2E/DX2 analytically  !
 ! D77   D(23,22,24,33)        177.1119         calculate D2E/DX2 analytically  !
 ! D78   D(22,23,25,27)          0.8189         calculate D2E/DX2 analytically  !
 ! D79   D(22,23,25,34)       -178.295          calculate D2E/DX2 analytically  !
 ! D80   D(32,23,25,27)       -179.3637         calculate D2E/DX2 analytically  !
 ! D81   D(32,23,25,34)          1.5223         calculate D2E/DX2 analytically  !
 ! D82   D(22,24,26,27)          1.6422         calculate D2E/DX2 analytically  !
 ! D83   D(22,24,26,35)        178.6877         calculate D2E/DX2 analytically  !
 ! D84   D(33,24,26,27)       -177.3128         calculate D2E/DX2 analytically  !
 ! D85   D(33,24,26,35)         -0.2673         calculate D2E/DX2 analytically  !
 ! D86   D(23,25,27,26)         -1.0485         calculate D2E/DX2 analytically  !
 ! D87   D(23,25,27,36)       -178.1585         calculate D2E/DX2 analytically  !
 ! D88   D(34,25,27,26)        178.0596         calculate D2E/DX2 analytically  !
 ! D89   D(34,25,27,36)          0.9497         calculate D2E/DX2 analytically  !
 ! D90   D(24,26,27,25)         -0.1669         calculate D2E/DX2 analytically  !
 ! D91   D(24,26,27,36)        176.9492         calculate D2E/DX2 analytically  !
 ! D92   D(35,26,27,25)       -177.1939         calculate D2E/DX2 analytically  !
 ! D93   D(35,26,27,36)         -0.0779         calculate D2E/DX2 analytically  !
 ! D94   D(19,37,38,39)        -74.8933         calculate D2E/DX2 analytically  !
 ! D95   D(19,37,38,41)        160.6228         calculate D2E/DX2 analytically  !
 ! D96   D(19,37,38,46)         41.8835         calculate D2E/DX2 analytically  !
 ! D97   D(45,37,38,39)         80.2453         calculate D2E/DX2 analytically  !
 ! D98   D(45,37,38,41)        -44.2387         calculate D2E/DX2 analytically  !
 ! D99   D(45,37,38,46)       -162.9779         calculate D2E/DX2 analytically  !
 ! D100  D(37,38,39,40)        168.2766         calculate D2E/DX2 analytically  !
 ! D101  D(37,38,39,51)        -11.6172         calculate D2E/DX2 analytically  !
 ! D102  D(41,38,39,40)        -65.6147         calculate D2E/DX2 analytically  !
 ! D103  D(41,38,39,51)        114.4915         calculate D2E/DX2 analytically  !
 ! D104  D(46,38,39,40)         50.5049         calculate D2E/DX2 analytically  !
 ! D105  D(46,38,39,51)       -129.3889         calculate D2E/DX2 analytically  !
 ! D106  D(37,38,41,42)         62.3452         calculate D2E/DX2 analytically  !
 ! D107  D(37,38,41,47)        -56.6217         calculate D2E/DX2 analytically  !
 ! D108  D(37,38,41,48)       -173.7519         calculate D2E/DX2 analytically  !
 ! D109  D(39,38,41,42)        -64.5854         calculate D2E/DX2 analytically  !
 ! D110  D(39,38,41,47)        176.4478         calculate D2E/DX2 analytically  !
 ! D111  D(39,38,41,48)         59.3175         calculate D2E/DX2 analytically  !
 ! D112  D(46,38,41,42)       -179.2457         calculate D2E/DX2 analytically  !
 ! D113  D(46,38,41,47)         61.7875         calculate D2E/DX2 analytically  !
 ! D114  D(46,38,41,48)        -55.3427         calculate D2E/DX2 analytically  !
 ! D115  D(38,39,51,52)        158.3574         calculate D2E/DX2 analytically  !
 ! D116  D(38,39,51,63)         -2.2662         calculate D2E/DX2 analytically  !
 ! D117  D(40,39,51,52)        -21.531          calculate D2E/DX2 analytically  !
 ! D118  D(40,39,51,63)        177.8453         calculate D2E/DX2 analytically  !
 ! D119  D(38,41,42,43)        143.1414         calculate D2E/DX2 analytically  !
 ! D120  D(38,41,42,44)        -39.0116         calculate D2E/DX2 analytically  !
 ! D121  D(47,41,42,43)        -96.8677         calculate D2E/DX2 analytically  !
 ! D122  D(47,41,42,44)         80.9792         calculate D2E/DX2 analytically  !
 ! D123  D(48,41,42,43)         19.6544         calculate D2E/DX2 analytically  !
 ! D124  D(48,41,42,44)       -162.4987         calculate D2E/DX2 analytically  !
 ! D125  D(41,42,43,49)        178.0848         calculate D2E/DX2 analytically  !
 ! D126  D(41,42,43,50)          0.037          calculate D2E/DX2 analytically  !
 ! D127  D(44,42,43,49)          0.2425         calculate D2E/DX2 analytically  !
 ! D128  D(44,42,43,50)       -177.8053         calculate D2E/DX2 analytically  !
 ! D129  D(39,51,52,53)       -112.3609         calculate D2E/DX2 analytically  !
 ! D130  D(39,51,52,55)        122.598          calculate D2E/DX2 analytically  !
 ! D131  D(39,51,52,64)          4.0948         calculate D2E/DX2 analytically  !
 ! D132  D(63,51,52,53)         49.1942         calculate D2E/DX2 analytically  !
 ! D133  D(63,51,52,55)        -75.8469         calculate D2E/DX2 analytically  !
 ! D134  D(63,51,52,64)        165.6499         calculate D2E/DX2 analytically  !
 ! D135  D(51,52,53,54)        -88.5598         calculate D2E/DX2 analytically  !
 ! D136  D(51,52,53,62)         85.8057         calculate D2E/DX2 analytically  !
 ! D137  D(55,52,53,54)         35.6143         calculate D2E/DX2 analytically  !
 ! D138  D(55,52,53,62)       -150.0202         calculate D2E/DX2 analytically  !
 ! D139  D(64,52,53,54)        157.7358         calculate D2E/DX2 analytically  !
 ! D140  D(64,52,53,62)        -27.8987         calculate D2E/DX2 analytically  !
 ! D141  D(51,52,55,56)         63.4635         calculate D2E/DX2 analytically  !
 ! D142  D(51,52,55,65)       -172.879          calculate D2E/DX2 analytically  !
 ! D143  D(51,52,55,66)        -60.2778         calculate D2E/DX2 analytically  !
 ! D144  D(53,52,55,56)        -56.982          calculate D2E/DX2 analytically  !
 ! D145  D(53,52,55,65)         66.6755         calculate D2E/DX2 analytically  !
 ! D146  D(53,52,55,66)        179.2767         calculate D2E/DX2 analytically  !
 ! D147  D(64,52,55,56)       -179.7306         calculate D2E/DX2 analytically  !
 ! D148  D(64,52,55,65)        -56.073          calculate D2E/DX2 analytically  !
 ! D149  D(64,52,55,66)         56.5282         calculate D2E/DX2 analytically  !
 ! D150  D(52,55,56,57)        -62.4585         calculate D2E/DX2 analytically  !
 ! D151  D(52,55,56,67)         63.2436         calculate D2E/DX2 analytically  !
 ! D152  D(52,55,56,68)        178.6632         calculate D2E/DX2 analytically  !
 ! D153  D(65,55,56,57)        174.3616         calculate D2E/DX2 analytically  !
 ! D154  D(65,55,56,67)        -59.9363         calculate D2E/DX2 analytically  !
 ! D155  D(65,55,56,68)         55.4833         calculate D2E/DX2 analytically  !
 ! D156  D(66,55,56,57)         59.6615         calculate D2E/DX2 analytically  !
 ! D157  D(66,55,56,67)       -174.6364         calculate D2E/DX2 analytically  !
 ! D158  D(66,55,56,68)        -59.2168         calculate D2E/DX2 analytically  !
 ! D159  D(55,56,57,58)         87.6223         calculate D2E/DX2 analytically  !
 ! D160  D(55,56,57,69)       -150.4138         calculate D2E/DX2 analytically  !
 ! D161  D(55,56,57,70)        -33.5008         calculate D2E/DX2 analytically  !
 ! D162  D(67,56,57,58)        -38.8597         calculate D2E/DX2 analytically  !
 ! D163  D(67,56,57,69)         83.1043         calculate D2E/DX2 analytically  !
 ! D164  D(67,56,57,70)       -159.9827         calculate D2E/DX2 analytically  !
 ! D165  D(68,56,57,58)       -154.1529         calculate D2E/DX2 analytically  !
 ! D166  D(68,56,57,69)        -32.1889         calculate D2E/DX2 analytically  !
 ! D167  D(68,56,57,70)         84.724          calculate D2E/DX2 analytically  !
 ! D168  D(56,57,58,59)        163.005          calculate D2E/DX2 analytically  !
 ! D169  D(56,57,58,71)         17.8756         calculate D2E/DX2 analytically  !
 ! D170  D(69,57,58,59)         41.1468         calculate D2E/DX2 analytically  !
 ! D171  D(69,57,58,71)       -103.9826         calculate D2E/DX2 analytically  !
 ! D172  D(70,57,58,59)        -74.6091         calculate D2E/DX2 analytically  !
 ! D173  D(70,57,58,71)        140.2614         calculate D2E/DX2 analytically  !
 ! D174  D(57,58,59,60)         19.2709         calculate D2E/DX2 analytically  !
 ! D175  D(57,58,59,61)       -160.5909         calculate D2E/DX2 analytically  !
 ! D176  D(71,58,59,60)        164.6159         calculate D2E/DX2 analytically  !
 ! D177  D(71,58,59,61)        -15.246          calculate D2E/DX2 analytically  !
 ! D178  D(58,59,60,72)        171.935          calculate D2E/DX2 analytically  !
 ! D179  D(58,59,60,73)         40.1534         calculate D2E/DX2 analytically  !
 ! D180  D(61,59,60,72)         -8.2119         calculate D2E/DX2 analytically  !
 ! D181  D(61,59,60,73)       -139.9935         calculate D2E/DX2 analytically  !
 ! D182  D(58,59,61,74)       -172.9103         calculate D2E/DX2 analytically  !
 ! D183  D(58,59,61,75)        -38.5232         calculate D2E/DX2 analytically  !
 ! D184  D(60,59,61,74)          7.2366         calculate D2E/DX2 analytically  !
 ! D185  D(60,59,61,75)        141.6237         calculate D2E/DX2 analytically  !
 --------------------------------------------------------------------------------
 Trust Radius=3.00D-01 FncErr=1.00D-07 GrdErr=1.00D-06 EigMax=2.50D+02 EigMin=1.00D-04
 Number of steps in this run=    399 maximum allowed number of steps=    450.
 GradGradGradGradGradGradGradGradGradGradGradGradGradGradGradGradGradGrad

 Symmetry turned off by external request.
 Stoichiometry    C23H36N9O7(1+)
 Framework group  C1[X(C23H36N9O7)]
 Deg. of freedom   219
 Full point group                 C1      NOp   1
                          Input orientation:                          
 ---------------------------------------------------------------------
 Center     Atomic      Atomic             Coordinates (Angstroms)
 Number     Number       Type             X           Y           Z
 ---------------------------------------------------------------------
      1          7           0       -9.530675   -3.454521   -7.129054
      2          6           0       -9.472424   -3.539238   -8.593132
      3          6           0       -8.121756   -3.078174   -9.117122
      4          8           0       -7.434009   -3.827637   -9.799491
      5          6           0      -10.583787   -2.728738   -9.241679
      6          6           0      -11.965730   -3.281850   -8.940484
      7          7           0      -12.929699   -2.897441   -9.815131
      8          8           0      -12.189444   -4.005701   -7.984145
      9          1           0      -10.433125   -3.848362   -6.841718
     10          1           0       -9.560597   -4.582466   -8.904976
     11          1           0      -10.543998   -1.695565   -8.892893
     12          1           0      -10.421639   -2.697167  -10.320010
     13          1           0      -13.876110   -3.182101   -9.631184
     14          1           0      -12.742206   -2.203545  -10.518223
     15          1           0       -8.763795   -3.975783   -6.695681
     16          1           0       -9.493383   -2.467703   -6.837978
     17          7           0       -7.745289   -1.807915   -8.809065
     18          6           0       -6.679507   -1.185515   -9.557195
     19          6           0       -5.638587   -0.544594   -8.624038
     20          8           0       -5.491383    0.668520   -8.576523
     21          6           0       -7.236648   -0.124288  -10.517432
     22          6           0       -8.416960   -0.596427  -11.321459
     23          6           0       -8.285593   -1.621809  -12.254705
     24          6           0       -9.678160   -0.044834  -11.111086
     25          6           0       -9.387602   -2.079716  -12.974074
     26          6           0      -10.774611   -0.480759  -11.843980
     27          6           0      -10.635545   -1.501008  -12.777460
     28          1           0       -8.368127   -1.230130   -8.264809
     29          1           0       -6.197453   -1.989696  -10.111296
     30          1           0       -7.522308    0.750301   -9.932144
     31          1           0       -6.415767    0.191347  -11.163522
     32          1           0       -7.307232   -2.065792  -12.414359
     33          1           0       -9.800871    0.722322  -10.352196
     34          1           0       -9.268348   -2.896645  -13.674620
     35          1           0      -11.753723   -0.051141  -11.648047
     36          1           0      -11.504291   -1.873161  -13.313102
     37          7           0       -4.873631   -1.364628   -7.854999
     38          6           0       -5.236048   -2.683116   -7.401071
     39          6           0       -6.268127   -2.681038   -6.254576
     40          8           0       -6.809936   -3.735840   -5.937502
     41          6           0       -4.014637   -3.506165   -6.977267
     42          6           0       -3.233215   -2.934549   -5.805588
     43          7           0       -2.729226   -3.850335   -4.946811
     44          8           0       -3.039405   -1.730047   -5.672521
     45          1           0       -4.194945   -0.884371   -7.288092
     46          1           0       -5.717625   -3.196116   -8.233468
     47          1           0       -3.322508   -3.552018   -7.818734
     48          1           0       -4.331541   -4.524210   -6.750429
     49          1           0       -2.178849   -3.532452   -4.169281
     50          1           0       -2.869820   -4.832321   -5.088087
     51          7           0       -6.522504   -1.500878   -5.657189
     52          6           0       -7.747210   -1.268323   -4.924054
     53          6           0       -8.538992   -0.217105   -5.747426
     54          8           0       -8.319855    0.978849   -5.507109
     55          6           0       -7.495169   -0.860342   -3.483597
     56          6           0       -6.761980    0.451209   -3.199997
     57          6           0       -5.331681    0.541121   -3.717522
     58          7           0       -5.239399    1.033339   -5.113882
     59          6           0       -4.067868    1.490351   -5.598574
     60          7           0       -2.937515    1.134844   -4.960658
     61          7           0       -4.098895    2.275482   -6.687488
     62          8           0       -9.260280   -0.679991   -6.671250
     63          1           0       -6.024698   -0.670715   -5.936213
     64          1           0       -8.280747   -2.219158   -4.928863
     65          1           0       -8.467180   -0.831668   -2.974545
     66          1           0       -6.946448   -1.689933   -3.024703
     67          1           0       -7.332903    1.303376   -3.562971
     68          1           0       -6.718993    0.544426   -2.108961
     69          1           0       -4.755629    1.203736   -3.062564
     70          1           0       -4.854317   -0.436508   -3.674507
     71          1           0       -6.061065    1.511110   -5.463918
     72          1           0       -2.071622    1.384915   -5.415108
     73          1           0       -2.940000    0.167726   -4.650991
     74          1           0       -3.207453    2.515744   -7.098447
     75          1           0       -4.787479    2.006155   -7.386235
 ---------------------------------------------------------------------
 Rotational constants (GHZ):           0.1535748           0.0671774           0.0639808
 Standard basis: 6-31G(d) (6D, 7F)
   657 basis functions,  1236 primitive gaussians,   657 cartesian basis functions
   146 alpha electrons      146 beta electrons
       nuclear repulsion energy      5140.3481892691 Hartrees.
 NAtoms=   75 NActive=   75 NUniq=   75 SFac= 1.00D+00 NAtFMM=   60 NAOKFM=T Big=T
 Integral buffers will be    131072 words long.
 Raffenetti 2 integral format.
 Two-electron integral symmetry is turned off.
 Nuclear repulsion after empirical dispersion term =     5140.2249071548 Hartrees.
 One-electron integrals computed using PRISM.
 NBasis=   657 RedAO= T EigKep=  4.44D-04  NBF=   657
 NBsUse=   657 1.00D-06 EigRej= -1.00D+00 NBFU=   657
 ExpMin= 1.61D-01 ExpMax= 5.48D+03 ExpMxC= 8.25D+02 IAcc=3 IRadAn=         5 AccDes= 0.00D+00
 Harris functional with IExCor=  402 and IRadAn=       5 diagonalized for initial guess.
 HarFok:  IExCor=  402 AccDes= 0.00D+00 IRadAn=         5 IDoV= 1 UseB2=F ITyADJ=14
 ICtDFT=  3500011 ScaDFX=  1.000000  1.000000  1.000000  1.000000
 FoFCou: FMM=F IPFlag=           0 FMFlag=      100000 FMFlg1=        2001
         NFxFlg=           0 DoJE=T BraDBF=F KetDBF=T FulRan=T
         wScrn=  0.000000 ICntrl=       500 IOpCl=  0 I1Cent=   200000004 NGrid=           0
         NMat0=    1 NMatS0=      1 NMatT0=    0 NMatD0=    1 NMtDS0=    0 NMtDT0=    0
 Symmetry not used in FoFCou.
 Requested convergence on RMS density matrix=1.00D-08 within 128 cycles.
 Requested convergence on MAX density matrix=1.00D-06.
 Requested convergence on             energy=1.00D-06.
 No special actions if energy rises.
 Integral accuracy reduced to 1.0D-05 until final iterations.
 Initial convergence to 1.0D-05 achieved.  Increase integral accuracy.
 SCF Done:  E(RB3LYP) =  -1917.50255760     A.U. after   15 cycles
            NFock= 15  Conv=0.34D-08     -V/T= 2.0088
 DoSCS=F DFT=T ScalE2(SS,OS)=  1.000000  1.000000
 Range of M.O.s used for correlation:     1   657
 NBasis=   657 NAE=   146 NBE=   146 NFC=     0 NFV=     0
 NROrb=    657 NOA=   146 NOB=   146 NVA=   511 NVB=   511
 Symmetrizing basis deriv contribution to polar:
 IMax=3 JMax=2 DiffMx= 0.00D+00
 G2DrvN: will do    76 centers at a time, making    1 passes.
 Calling FoFCou, ICntrl=  3107 FMM=T I1Cent=   0 AccDes= 0.00D+00.
 End of G2Drv F.D. properties file   721 does not exist.
 End of G2Drv F.D. properties file   722 does not exist.
 End of G2Drv F.D. properties file   788 does not exist.
          IDoAtm=11111111111111111111111111111111111111111111111111
          IDoAtm=1111111111111111111111111
          Differentiating once with respect to nuclear coordinates.
 CalDSu exits because no D1Ps are significant.
          There are   228 degrees of freedom in the 1st order CPHF.  IDoFFX=6 NUNeed=     0.
    222 vectors produced by pass  0 Test12= 7.46D-14 1.00D-09 XBig12= 1.92D-01 9.64D-02.
 AX will form    72 AO Fock derivatives at one time.
    222 vectors produced by pass  1 Test12= 7.46D-14 1.00D-09 XBig12= 3.29D-02 2.29D-02.
    222 vectors produced by pass  2 Test12= 7.46D-14 1.00D-09 XBig12= 1.62D-04 1.02D-03.
    222 vectors produced by pass  3 Test12= 7.46D-14 1.00D-09 XBig12= 4.98D-07 5.22D-05.
    222 vectors produced by pass  4 Test12= 7.46D-14 1.00D-09 XBig12= 8.40D-10 1.69D-06.
    173 vectors produced by pass  5 Test12= 7.46D-14 1.00D-09 XBig12= 8.65D-13 5.55D-08.
      9 vectors produced by pass  6 Test12= 7.46D-14 1.00D-09 XBig12= 8.07D-16 2.00D-09.
 InvSVY:  IOpt=1 It=  1 EMax= 7.77D-16
 Solved reduced A of dimension  1292 with   228 vectors.
 End of Minotr F.D. properties file   721 does not exist.
 End of Minotr F.D. properties file   722 does not exist.
 End of Minotr F.D. properties file   788 does not exist.

 **********************************************************************

            Population analysis using the SCF Density.

 **********************************************************************

 Alpha  occ. eigenvalues --  -19.24777 -19.24016 -19.22523 -19.22400 -19.22050
 Alpha  occ. eigenvalues --  -19.18115 -19.16679 -14.53735 -14.50501 -14.50262
 Alpha  occ. eigenvalues --  -14.49690 -14.47946 -14.47018 -14.46097 -14.46056
 Alpha  occ. eigenvalues --  -14.45194 -10.46798 -10.41920 -10.40605 -10.39712
 Alpha  occ. eigenvalues --  -10.39381 -10.39344 -10.36125 -10.35216 -10.34907
 Alpha  occ. eigenvalues --  -10.33713 -10.33492 -10.31559 -10.30468 -10.30461
 Alpha  occ. eigenvalues --  -10.27977 -10.27764 -10.27524 -10.27408 -10.27318
 Alpha  occ. eigenvalues --  -10.27223 -10.27108 -10.27085 -10.26964  -1.16733
 Alpha  occ. eigenvalues --   -1.16263  -1.15639  -1.15083  -1.14603  -1.14204
 Alpha  occ. eigenvalues --   -1.11314  -1.10316  -1.05320  -1.04534  -1.04096
 Alpha  occ. eigenvalues --   -1.03486  -1.03077  -1.02440  -1.02219  -1.00452
 Alpha  occ. eigenvalues --   -0.94459  -0.90836  -0.90021  -0.89284  -0.87824
 Alpha  occ. eigenvalues --   -0.84392  -0.83457  -0.82940  -0.80027  -0.79467
 Alpha  occ. eigenvalues --   -0.77721  -0.76007  -0.75936  -0.72360  -0.71741
 Alpha  occ. eigenvalues --   -0.71011  -0.70210  -0.69852  -0.69738  -0.69486
 Alpha  occ. eigenvalues --   -0.68783  -0.68554  -0.67546  -0.67365  -0.66514
 Alpha  occ. eigenvalues --   -0.66348  -0.65170  -0.64180  -0.63442  -0.62976
 Alpha  occ. eigenvalues --   -0.62435  -0.61812  -0.60974  -0.60074  -0.59317
 Alpha  occ. eigenvalues --   -0.59119  -0.58389  -0.58142  -0.57769  -0.56922
 Alpha  occ. eigenvalues --   -0.56367  -0.56160  -0.55801  -0.54986  -0.54432
 Alpha  occ. eigenvalues --   -0.54134  -0.53757  -0.53573  -0.53093  -0.52848
 Alpha  occ. eigenvalues --   -0.52509  -0.51863  -0.51595  -0.51461  -0.50895
 Alpha  occ. eigenvalues --   -0.50615  -0.50332  -0.50072  -0.49661  -0.49166
 Alpha  occ. eigenvalues --   -0.48897  -0.48361  -0.48251  -0.47643  -0.47120
 Alpha  occ. eigenvalues --   -0.46471  -0.46346  -0.45241  -0.44146  -0.44034
 Alpha  occ. eigenvalues --   -0.43403  -0.42828  -0.42444  -0.42161  -0.42098
 Alpha  occ. eigenvalues --   -0.40192  -0.39874  -0.39516  -0.38686  -0.38155
 Alpha  occ. eigenvalues --   -0.37221  -0.36999  -0.36665  -0.35758  -0.35677
 Alpha  occ. eigenvalues --   -0.34850  -0.33542  -0.33452  -0.33139  -0.32148
 Alpha  occ. eigenvalues --   -0.30270
 Alpha virt. eigenvalues --   -0.13493  -0.10636  -0.10215  -0.09879  -0.09097
 Alpha virt. eigenvalues --   -0.08898  -0.08553  -0.06810  -0.06354  -0.03547
 Alpha virt. eigenvalues --   -0.02929  -0.01970  -0.01434  -0.01044  -0.00405
 Alpha virt. eigenvalues --    0.00172   0.00557   0.01038   0.01440   0.02238
 Alpha virt. eigenvalues --    0.02520   0.03013   0.03624   0.03710   0.03906
 Alpha virt. eigenvalues --    0.04221   0.04677   0.05184   0.05379   0.05442
 Alpha virt. eigenvalues --    0.05951   0.06204   0.06459   0.07287   0.07516
 Alpha virt. eigenvalues --    0.07851   0.07916   0.08578   0.09107   0.09330
 Alpha virt. eigenvalues --    0.09628   0.09848   0.10097   0.10252   0.10987
 Alpha virt. eigenvalues --    0.11082   0.11424   0.11739   0.12432   0.12538
 Alpha virt. eigenvalues --    0.12930   0.14163   0.14485   0.14566   0.14651
 Alpha virt. eigenvalues --    0.15141   0.15761   0.16269   0.16759   0.17059
 Alpha virt. eigenvalues --    0.17824   0.18458   0.18965   0.19672   0.20746
 Alpha virt. eigenvalues --    0.22329   0.22529   0.23317   0.23726   0.24232
 Alpha virt. eigenvalues --    0.24655   0.25077   0.25592   0.26313   0.26947
 Alpha virt. eigenvalues --    0.27099   0.27524   0.29747   0.30597   0.30938
 Alpha virt. eigenvalues --    0.31983   0.34437   0.35072   0.37248   0.37646
 Alpha virt. eigenvalues --    0.38785   0.39244   0.39684   0.40239   0.41089
 Alpha virt. eigenvalues --    0.41437   0.42035   0.42347   0.43391   0.43687
 Alpha virt. eigenvalues --    0.44094   0.44330   0.44952   0.45153   0.46155
 Alpha virt. eigenvalues --    0.47120   0.47637   0.47861   0.47998   0.48354
 Alpha virt. eigenvalues --    0.48928   0.49344   0.49675   0.50688   0.50918
 Alpha virt. eigenvalues --    0.51134   0.51740   0.51912   0.52474   0.52877
 Alpha virt. eigenvalues --    0.52946   0.53409   0.53656   0.54233   0.54247
 Alpha virt. eigenvalues --    0.54530   0.54715   0.55196   0.55492   0.55749
 Alpha virt. eigenvalues --    0.55917   0.56238   0.56516   0.56968   0.57104
 Alpha virt. eigenvalues --    0.58069   0.58427   0.58862   0.59088   0.59546
 Alpha virt. eigenvalues --    0.60737   0.60882   0.61832   0.61984   0.62997
 Alpha virt. eigenvalues --    0.63041   0.63677   0.64358   0.64986   0.65395
 Alpha virt. eigenvalues --    0.65561   0.66000   0.67431   0.68064   0.68390
 Alpha virt. eigenvalues --    0.68687   0.69536   0.70296   0.70643   0.70868
 Alpha virt. eigenvalues --    0.71370   0.72002   0.72764   0.73463   0.73860
 Alpha virt. eigenvalues --    0.74109   0.74221   0.74706   0.74840   0.75359
 Alpha virt. eigenvalues --    0.75621   0.75927   0.76255   0.76493   0.76868
 Alpha virt. eigenvalues --    0.77191   0.77640   0.77801   0.78022   0.78736
 Alpha virt. eigenvalues --    0.78838   0.79018   0.79310   0.79889   0.80148
 Alpha virt. eigenvalues --    0.80709   0.81243   0.81675   0.82017   0.82559
 Alpha virt. eigenvalues --    0.82851   0.83294   0.83638   0.84239   0.84408
 Alpha virt. eigenvalues --    0.84890   0.84958   0.85533   0.85786   0.86511
 Alpha virt. eigenvalues --    0.87334   0.87773   0.88320   0.88808   0.89263
 Alpha virt. eigenvalues --    0.89543   0.90236   0.90754   0.91128   0.91635
 Alpha virt. eigenvalues --    0.92676   0.93465   0.93880   0.94460   0.95453
 Alpha virt. eigenvalues --    0.95934   0.96400   0.97320   0.98039   0.99058
 Alpha virt. eigenvalues --    1.00270   1.00756   1.01434   1.01694   1.02261
 Alpha virt. eigenvalues --    1.03992   1.04415   1.04838   1.05555   1.05679
 Alpha virt. eigenvalues --    1.06943   1.07880   1.08406   1.09098   1.09426
 Alpha virt. eigenvalues --    1.09963   1.11884   1.12078   1.12862   1.13176
 Alpha virt. eigenvalues --    1.13997   1.14957   1.15577   1.15766   1.16455
 Alpha virt. eigenvalues --    1.17316   1.18135   1.18607   1.19676   1.19872
 Alpha virt. eigenvalues --    1.21278   1.21587   1.22358   1.23778   1.24019
 Alpha virt. eigenvalues --    1.24893   1.26217   1.26408   1.27643   1.28693
 Alpha virt. eigenvalues --    1.29072   1.29674   1.30292   1.30623   1.32582
 Alpha virt. eigenvalues --    1.32950   1.33114   1.35354   1.35678   1.35999
 Alpha virt. eigenvalues --    1.36782   1.36964   1.37839   1.38771   1.39327
 Alpha virt. eigenvalues --    1.40250   1.40838   1.41396   1.42150   1.43103
 Alpha virt. eigenvalues --    1.43659   1.44453   1.45264   1.46413   1.47773
 Alpha virt. eigenvalues --    1.48182   1.48992   1.49647   1.49757   1.52018
 Alpha virt. eigenvalues --    1.53156   1.54358   1.54813   1.55734   1.56344
 Alpha virt. eigenvalues --    1.56661   1.56962   1.57868   1.59995   1.60685
 Alpha virt. eigenvalues --    1.61427   1.62052   1.63056   1.63181   1.63308
 Alpha virt. eigenvalues --    1.64250   1.64396   1.65593   1.66415   1.67306
 Alpha virt. eigenvalues --    1.67604   1.68504   1.68852   1.69592   1.70530
 Alpha virt. eigenvalues --    1.70977   1.71208   1.71750   1.72275   1.72920
 Alpha virt. eigenvalues --    1.73499   1.74242   1.74359   1.74770   1.75323
 Alpha virt. eigenvalues --    1.75848   1.76306   1.77229   1.78228   1.78695
 Alpha virt. eigenvalues --    1.79699   1.80020   1.80565   1.80892   1.81559
 Alpha virt. eigenvalues --    1.82490   1.83155   1.83700   1.84168   1.84717
 Alpha virt. eigenvalues --    1.84909   1.85656   1.86134   1.86378   1.86593
 Alpha virt. eigenvalues --    1.87075   1.87888   1.88197   1.89375   1.89979
 Alpha virt. eigenvalues --    1.90893   1.90987   1.91284   1.92965   1.93862
 Alpha virt. eigenvalues --    1.93984   1.95301   1.95381   1.95921   1.96200
 Alpha virt. eigenvalues --    1.97095   1.97348   1.98048   1.99036   1.99886
 Alpha virt. eigenvalues --    2.00599   2.01430   2.02380   2.03229   2.03551
 Alpha virt. eigenvalues --    2.04194   2.04576   2.05245   2.06124   2.06752
 Alpha virt. eigenvalues --    2.07286   2.08270   2.09197   2.09350   2.10728
 Alpha virt. eigenvalues --    2.10866   2.12592   2.13215   2.13413   2.15039
 Alpha virt. eigenvalues --    2.15795   2.16781   2.17077   2.17682   2.18879
 Alpha virt. eigenvalues --    2.19484   2.19854   2.21173   2.22015   2.22626
 Alpha virt. eigenvalues --    2.23524   2.23735   2.24435   2.24667   2.26123
 Alpha virt. eigenvalues --    2.26919   2.27343   2.28882   2.30029   2.30293
 Alpha virt. eigenvalues --    2.31925   2.32650   2.32669   2.34435   2.34721
 Alpha virt. eigenvalues --    2.35963   2.36913   2.37311   2.38752   2.39551
 Alpha virt. eigenvalues --    2.40476   2.41345   2.42061   2.43315   2.44052
 Alpha virt. eigenvalues --    2.45468   2.46607   2.47498   2.47855   2.48978
 Alpha virt. eigenvalues --    2.50425   2.50760   2.51567   2.51849   2.52231
 Alpha virt. eigenvalues --    2.52594   2.54422   2.55180   2.55685   2.56052
 Alpha virt. eigenvalues --    2.56892   2.57048   2.58600   2.58877   2.59970
 Alpha virt. eigenvalues --    2.61271   2.62742   2.62869   2.63777   2.64297
 Alpha virt. eigenvalues --    2.66163   2.66373   2.67687   2.68091   2.68944
 Alpha virt. eigenvalues --    2.70214   2.71844   2.74787   2.75736   2.79517
 Alpha virt. eigenvalues --    2.81678   2.82524   2.84265   2.85488   2.87560
 Alpha virt. eigenvalues --    2.89437   2.91037   2.91576   2.92325   2.92691
 Alpha virt. eigenvalues --    2.93249   2.94909   2.95998   2.97081   2.98539
 Alpha virt. eigenvalues --    2.99186   3.00282   3.05658   3.06835   3.09110
 Alpha virt. eigenvalues --    3.09578   3.34738   3.69187   3.70482   3.74452
 Alpha virt. eigenvalues --    3.78282   3.82025   3.89349   3.95201   3.97259
 Alpha virt. eigenvalues --    3.98508   4.00346   4.01992   4.03463   4.05815
 Alpha virt. eigenvalues --    4.07855   4.08430   4.10035   4.12562   4.14408
 Alpha virt. eigenvalues --    4.16028   4.18052   4.19740   4.23506   4.25297
 Alpha virt. eigenvalues --    4.26929   4.30341   4.33034   4.34271   4.37584
 Alpha virt. eigenvalues --    4.40337   4.41257   4.42843   4.44430   4.48353
 Alpha virt. eigenvalues --    4.53669   4.57183   4.60584   4.64939   4.65354
 Alpha virt. eigenvalues --    4.71311
          Condensed to atoms (all electrons):
 Mulliken charges:
               1
     1  N   -0.783893
     2  C   -0.128142
     3  C    0.629036
     4  O   -0.519298
     5  C   -0.424764
     6  C    0.627806
     7  N   -0.743349
     8  O   -0.521245
     9  H    0.417085
    10  H    0.223429
    11  H    0.222839
    12  H    0.223534
    13  H    0.363343
    14  H    0.354401
    15  H    0.426608
    16  H    0.424125
    17  N   -0.636929
    18  C   -0.083542
    19  C    0.631284
    20  O   -0.541167
    21  C   -0.366886
    22  C    0.172007
    23  C   -0.171129
    24  C   -0.199640
    25  C   -0.134596
    26  C   -0.154119
    27  C   -0.141531
    28  H    0.391366
    29  H    0.210360
    30  H    0.182864
    31  H    0.174547
    32  H    0.143913
    33  H    0.152035
    34  H    0.154080
    35  H    0.140030
    36  H    0.146799
    37  N   -0.622768
    38  C   -0.080100
    39  C    0.626479
    40  O   -0.572029
    41  C   -0.382223
    42  C    0.617140
    43  N   -0.724604
    44  O   -0.561962
    45  H    0.350398
    46  H    0.219239
    47  H    0.208653
    48  H    0.193100
    49  H    0.359231
    50  H    0.367888
    51  N   -0.616385
    52  C   -0.060939
    53  C    0.585686
    54  O   -0.546485
    55  C   -0.268389
    56  C   -0.301099
    57  C   -0.162338
    58  N   -0.621330
    59  C    0.697531
    60  N   -0.717266
    61  N   -0.734207
    62  O   -0.607002
    63  H    0.377281
    64  H    0.140534
    65  H    0.164706
    66  H    0.141360
    67  H    0.210165
    68  H    0.161366
    69  H    0.191272
    70  H    0.171278
    71  H    0.396624
    72  H    0.362593
    73  H    0.400649
    74  H    0.358394
    75  H    0.416295
 Sum of Mulliken charges =   1.00000
 Mulliken charges with hydrogens summed into heavy atoms:
               1
     1  N    0.483924
     2  C    0.095286
     3  C    0.629036
     4  O   -0.519298
     5  C    0.021609
     6  C    0.627806
     7  N   -0.025605
     8  O   -0.521245
    17  N   -0.245562
    18  C    0.126819
    19  C    0.631284
    20  O   -0.541167
    21  C   -0.009475
    22  C    0.172007
    23  C   -0.027215
    24  C   -0.047605
    25  C    0.019485
    26  C   -0.014089
    27  C    0.005268
    37  N   -0.272370
    38  C    0.139138
    39  C    0.626479
    40  O   -0.572029
    41  C    0.019531
    42  C    0.617140
    43  N    0.002515
    44  O   -0.561962
    51  N   -0.239103
    52  C    0.079595
    53  C    0.585686
    54  O   -0.546485
    55  C    0.037677
    56  C    0.070432
    57  C    0.200212
    58  N   -0.224706
    59  C    0.697531
    60  N    0.045975
    61  N    0.040483
    62  O   -0.607002
 APT charges:
               1
     1  N   -0.036067
     2  C   -1.493725
     3  C    0.099044
     4  O    0.556257
     5  C   -1.556305
     6  C   -0.721443
     7  N   -1.255365
     8  O   -0.568442
     9  H    1.444905
    10  H    1.446536
    11  H   -0.289529
    12  H    1.328829
    13  H    2.507254
    14  H    0.971555
    15  H   -0.509477
    16  H    0.052050
    17  N   -1.022191
    18  C   -0.322772
    19  C    1.279994
    20  O   -0.981191
    21  C   -0.764398
    22  C   -2.996349
    23  C   -0.583388
    24  C   -0.434963
    25  C   -0.123244
    26  C   -0.163088
    27  C    0.201728
    28  H    0.254175
    29  H    0.718116
    30  H   -0.084760
    31  H    0.495943
    32  H   -0.337312
    33  H   -0.601231
    34  H    1.670845
    35  H    1.368835
    36  H    2.579577
    37  N    0.204650
    38  C   -1.489931
    39  C   -0.251815
    40  O    0.236375
    41  C   -1.366661
    42  C    1.494081
    43  N   -0.965325
    44  O   -1.573171
    45  H   -0.711775
    46  H    1.441343
    47  H    0.802762
    48  H    0.763772
    49  H   -0.666769
    50  H    1.367400
    51  N   -0.423959
    52  C   -1.080861
    53  C   -0.877078
    54  O   -0.723376
    55  C   -0.805201
    56  C   -0.981132
    57  C    0.638637
    58  N   -1.462148
    59  C   -0.003647
    60  N   -1.332911
    61  N   -0.812245
    62  O    1.080064
    63  H   -0.013917
    64  H    0.959409
    65  H    0.985616
    66  H   -0.130615
    67  H    0.971546
    68  H    0.007816
    69  H   -0.267248
    70  H   -0.055892
    71  H    1.382774
    72  H    0.441609
    73  H    0.109069
    74  H    0.536286
    75  H    1.442067
 Sum of APT charges =   1.00000
 APT charges with hydrogens summed into heavy atoms:
               1
     1  N    0.951412
     2  C   -0.047189
     3  C    0.099044
     4  O    0.556257
     5  C   -0.517006
     6  C   -0.721443
     7  N    2.223444
     8  O   -0.568442
    17  N   -0.768016
    18  C    0.395344
    19  C    1.279994
    20  O   -0.981191
    21  C   -0.353214
    22  C   -2.996349
    23  C   -0.920700
    24  C   -1.036194
    25  C    1.547600
    26  C    1.205747
    27  C    2.781305
    37  N   -0.507125
    38  C   -0.048588
    39  C   -0.251815
    40  O    0.236375
    41  C    0.199874
    42  C    1.494081
    43  N   -0.264694
    44  O   -1.573171
    51  N   -0.437876
    52  C   -0.121452
    53  C   -0.877078
    54  O   -0.723376
    55  C    0.049799
    56  C   -0.001770
    57  C    0.315496
    58  N   -0.079374
    59  C   -0.003647
    60  N   -0.782233
    61  N    1.166108
    62  O    1.080064
 Electronic spatial extent (au):  <R**2>=         136548.7685
 Charge=              1.0000 electrons
 Dipole moment (field-independent basis, Debye):
    X=            -26.1583    Y=             -7.7767    Z=            -33.8200  Tot=             43.4572
 Quadrupole moment (field-independent basis, Debye-Ang):
   XX=              3.5288   YY=           -190.5068   ZZ=             57.1274
   XY=             64.0456   XZ=            233.8241   YZ=             56.0338
 Traceless Quadrupole moment (field-independent basis, Debye-Ang):
   XX=             46.8123   YY=           -147.2232   ZZ=            100.4109
   XY=             64.0456   XZ=            233.8241   YZ=             56.0338
 Octapole moment (field-independent basis, Debye-Ang**2):
  XXX=           2340.4019  YYY=            848.2679  ZZZ=           2556.5638  XYY=           1511.5308
  XXY=           -337.3155  XXZ=           -662.0939  XZZ=           -721.6043  YZZ=           -168.7287
  YYZ=           1525.2650  XYZ=           -558.9683
 Hexadecapole moment (field-independent basis, Debye-Ang**3):
 XXXX=         -49381.4155 YYYY=          -6502.4417 ZZZZ=         -62962.2463 XXXY=           -578.9469
 XXXZ=         -11589.2878 YYYX=          -7602.5059 YYYZ=          -7529.2787 ZZZX=         -15379.4070
 ZZZY=          -3007.1331 XXYY=         -13929.8140 XXZZ=          -2264.1392 YYZZ=         -14722.6868
 XXYZ=           3534.8498 YYXZ=         -12478.8550 ZZXY=           2817.3623
 N-N= 5.140224907155D+03 E-N=-1.472189600241D+04  KE= 1.900783052400D+03
  Exact polarizability:       0.000       0.000       0.000       0.000       0.000       0.000
 Approx polarizability:     460.792       6.793     494.338      29.878      25.161     421.374
 Calling FoFJK, ICntrl=    100127 FMM=F ISym2X=0 I1Cent= 0 IOpClX= 0 NMat=1 NMatS=1 NMatT=0.
 -------------------------------------------------------------------
 Center     Atomic                   Forces (Hartrees/Bohr)
 Number     Number              X              Y              Z
 -------------------------------------------------------------------
      1        7          -0.008842643   -0.017392466    0.005543112
      2        6           0.001359692   -0.005633726   -0.022462486
      3        6           0.010396844    0.002927040   -0.002515916
      4        8           0.000025518   -0.005520118   -0.002064790
      5        6          -0.003604708    0.003242254    0.000093706
      6        6          -0.004347006    0.010153328   -0.013813659
      7        7           0.007962870   -0.002274370    0.004777161
      8        8           0.002267983   -0.011961565    0.016512179
      9        1          -0.007609443   -0.001461807    0.000973380
     10        1           0.000133296   -0.000858585    0.005214945
     11        1           0.000017668    0.004051270    0.000916305
     12        1           0.002399671   -0.000585195   -0.001054936
     13        1          -0.005852099    0.000231030    0.000435800
     14        1          -0.000625512    0.001636869   -0.004863651
     15        1           0.007830207    0.001778460    0.005880850
     16        1           0.004115678    0.024585001    0.010941690
     17        7          -0.001574655   -0.013002281   -0.001196854
     18        6           0.003270902    0.007701930   -0.001276997
     19        6          -0.005582943   -0.010873556    0.002078260
     20        8           0.003530944    0.018643579   -0.001677383
     21        6           0.000869061    0.004221851    0.000232076
     22        6           0.002525029   -0.000625388    0.002048972
     23        6           0.002924877   -0.003426818   -0.004407562
     24        6           0.000071975    0.005419746    0.003644399
     25        6           0.005353331   -0.003715375   -0.000919679
     26        6          -0.008412586    0.001918394    0.003304455
     27        6          -0.006674449   -0.003637106   -0.000504859
     28        1          -0.005656648    0.011383567    0.009583352
     29        1           0.001449388   -0.001364679   -0.002084852
     30        1           0.000584927    0.002162736    0.001327611
     31        1           0.001634562    0.002102178   -0.002950923
     32        1          -0.000226672   -0.001812582   -0.000855972
     33        1          -0.000641031    0.001793015   -0.000225477
     34        1           0.000324597   -0.001180829   -0.002396188
     35        1          -0.000333289    0.002165980   -0.001563429
     36        1           0.000373991    0.000986491   -0.002018585
     37        7           0.002217317    0.002533770   -0.003502933
     38        6          -0.000403427   -0.005013381    0.004711580
     39        6           0.006044685    0.011359748   -0.003729920
     40        8          -0.011537566   -0.014974227   -0.002652276
     41        6           0.004393198   -0.002288397   -0.002344226
     42        6          -0.000620276   -0.016584782    0.001503749
     43        7          -0.005103230    0.009144398   -0.006964889
     44        8          -0.001243865    0.021269810    0.003956095
     45        1           0.006312335    0.002026470    0.005788869
     46        1           0.000816067   -0.005796864    0.001855418
     47        1           0.002702433   -0.001397899   -0.003933643
     48        1          -0.003345466   -0.001207756   -0.001568327
     49        1           0.004731330    0.000127115    0.004917722
     50        1          -0.000286700   -0.006972374    0.002063074
     51        7           0.002932412   -0.008736981   -0.007036841
     52        6          -0.009645636    0.005067193    0.006530262
     53        6           0.009708232    0.005456920    0.006654203
     54        8           0.004677402    0.008753645   -0.003709987
     55        6          -0.003559136   -0.005981242    0.006183421
     56        6          -0.002437364    0.000303767    0.004965683
     57        6           0.002999077   -0.001241099    0.005567295
     58        7           0.011167353    0.008240621    0.004316847
     59        6          -0.016762507   -0.008323863    0.000478941
     60        7           0.003824501    0.003169575   -0.003421436
     61        7           0.011064376    0.002862592    0.003057626
     62        8          -0.016634885   -0.020494979   -0.020631538
     63        1           0.003099754   -0.000020068   -0.004987267
     64        1          -0.000497649    0.000092770    0.002789273
     65        1           0.000213089    0.001901454   -0.000465053
     66        1           0.002618756   -0.000525399    0.003211377
     67        1          -0.002393683    0.000080725    0.000078736
     68        1           0.003187482    0.000753713    0.000414009
     69        1           0.001451894    0.003078194   -0.003532813
     70        1           0.001806564   -0.005310793   -0.000545995
     71        1          -0.011237107   -0.001158857   -0.001919849
     72        1           0.003378172    0.000028805   -0.001492323
     73        1           0.002597085   -0.002491457    0.005426186
     74        1           0.001810365    0.000430158   -0.001798128
     75        1          -0.007484706    0.000060708   -0.004886974
 -------------------------------------------------------------------
 Cartesian Forces:  Max     0.024585001 RMS     0.006378221
 FormGI is forming the generalized inverse of G from B-inverse, IUseBI=4.

 GradGradGradGradGradGradGradGradGradGradGradGradGradGradGradGradGradGrad
 Berny optimization.
 Internal  Forces:  Max     0.039067716 RMS     0.008653292
 Search for a local minimum.
 Step number   1 out of a maximum of  399
 All quantities printed in internal units (Hartrees-Bohrs-Radians)
 Mixed Optimization -- RFO/linear search
 Second derivative matrix not updated -- analytic derivatives used.
 ITU=  0
     Eigenvalues ---   -0.00045   0.00078   0.00141   0.00236   0.00288
     Eigenvalues ---    0.00339   0.00385   0.00455   0.00473   0.00498
     Eigenvalues ---    0.00522   0.00537   0.00614   0.00655   0.00739
     Eigenvalues ---    0.00803   0.00901   0.00935   0.01102   0.01123
     Eigenvalues ---    0.01384   0.01422   0.01567   0.01629   0.01742
     Eigenvalues ---    0.01777   0.01836   0.01856   0.01959   0.01984
     Eigenvalues ---    0.02188   0.02272   0.02424   0.02609   0.02628
     Eigenvalues ---    0.02777   0.02824   0.02941   0.02970   0.03079
     Eigenvalues ---    0.03433   0.03472   0.03607   0.03784   0.03817
     Eigenvalues ---    0.03953   0.04045   0.04117   0.04129   0.04193
     Eigenvalues ---    0.04287   0.04359   0.04486   0.04523   0.04559
     Eigenvalues ---    0.04665   0.04669   0.04866   0.04947   0.05036
     Eigenvalues ---    0.05266   0.05375   0.05491   0.05619   0.05762
     Eigenvalues ---    0.05791   0.06038   0.06246   0.06537   0.06620
     Eigenvalues ---    0.07091   0.07173   0.08188   0.08351   0.08433
     Eigenvalues ---    0.08549   0.08661   0.08918   0.09087   0.09715
     Eigenvalues ---    0.09947   0.11084   0.11136   0.11385   0.11459
     Eigenvalues ---    0.11571   0.11897   0.11995   0.12364   0.12395
     Eigenvalues ---    0.12454   0.12671   0.12743   0.12764   0.12981
     Eigenvalues ---    0.13225   0.13477   0.13558   0.13997   0.14296
     Eigenvalues ---    0.14503   0.14728   0.15042   0.15322   0.16804
     Eigenvalues ---    0.17298   0.17471   0.18281   0.19023   0.19188
     Eigenvalues ---    0.19376   0.19624   0.19817   0.19908   0.20167
     Eigenvalues ---    0.20248   0.20674   0.20844   0.21296   0.21903
     Eigenvalues ---    0.22126   0.22291   0.22523   0.22751   0.22917
     Eigenvalues ---    0.23366   0.23877   0.24157   0.24371   0.24718
     Eigenvalues ---    0.25391   0.25979   0.26304   0.26655   0.27483
     Eigenvalues ---    0.28050   0.28355   0.29358   0.29535   0.30546
     Eigenvalues ---    0.31006   0.31221   0.31377   0.31787   0.32074
     Eigenvalues ---    0.32392   0.32844   0.33172   0.33490   0.33707
     Eigenvalues ---    0.34006   0.34107   0.34386   0.34514   0.34767
     Eigenvalues ---    0.34835   0.34944   0.34958   0.35062   0.35129
     Eigenvalues ---    0.35195   0.35372   0.35555   0.35726   0.35796
     Eigenvalues ---    0.35893   0.36087   0.36161   0.36353   0.36772
     Eigenvalues ---    0.36937   0.37319   0.38245   0.39056   0.40319
     Eigenvalues ---    0.41865   0.42777   0.42921   0.43348   0.43661
     Eigenvalues ---    0.44092   0.44196   0.44542   0.44674   0.45498
     Eigenvalues ---    0.45779   0.47180   0.47293   0.47686   0.47821
     Eigenvalues ---    0.47925   0.48194   0.48657   0.48805   0.49187
     Eigenvalues ---    0.49418   0.49712   0.49971   0.50102   0.50299
     Eigenvalues ---    0.50374   0.52044   0.53139   0.54525   0.54967
     Eigenvalues ---    0.62241   0.64127   0.80695   0.82660   0.83357
     Eigenvalues ---    0.83913   0.85213   0.86694   0.92281   1.00456
     Eigenvalues ---    1.13891   2.14956   3.14047   4.75700
 RFO step:  Lambda=-3.74830929D-02 EMin=-4.54231832D-04
 Linear search not attempted -- first point.
 Iteration  1 RMS(Cart)=  0.15106691 RMS(Int)=  0.00914326
 Iteration  2 RMS(Cart)=  0.04086841 RMS(Int)=  0.00056614
 Iteration  3 RMS(Cart)=  0.00088541 RMS(Int)=  0.00046627
 Iteration  4 RMS(Cart)=  0.00000092 RMS(Int)=  0.00046627
 Variable       Old X    -DE/DX   Delta X   Delta X   Delta X     New X
                                 (Linear)    (Quad)   (Total)
    R1        2.77352   0.02390   0.00000   0.04717   0.04717   2.82069
    R2        1.93832   0.00753   0.00000   0.01463   0.01463   1.95295
    R3        1.93421   0.00745   0.00000   0.02160   0.02160   1.95580
    R4        1.94552   0.02681   0.00000   0.06855   0.06855   2.01407
    R5        2.87304   0.00572   0.00000   0.02281   0.02281   2.89585
    R6        2.87378   0.00242   0.00000   0.01538   0.01538   2.88916
    R7        2.06434  -0.00068   0.00000  -0.00260  -0.00260   2.06175
    R8        2.31468   0.00454   0.00000   0.00161   0.00161   2.31629
    R9        2.57043  -0.00531   0.00000   0.00522   0.00522   2.57565
   R10        2.86991   0.00195   0.00000   0.01029   0.01029   2.88020
   R11        2.06204   0.00413   0.00000   0.00902   0.00902   2.07106
   R12        2.06152   0.00138   0.00000   0.00531   0.00531   2.06683
   R13        2.56475  -0.00139   0.00000  -0.01069  -0.01069   2.55406
   R14        2.30561   0.01962   0.00000   0.02436   0.02436   2.32997
   R15        1.89968   0.00552   0.00000   0.01079   0.01079   1.91047
[...]
 003377,0.00004046,0.00004478,0.00000741,0.00000584,0.00015494,-0.00001
 952,-0.00002907,-0.00001205,0.00010956,0.00011136,0.00005923,-0.000123
 56,0.00006855,0.00007919,-0.00028272,-0.00039998,0.00008526,0.00049468
 ,0.00035586,-0.00000929,-0.00004907,-0.00000159,0.00006957,0.00024263,
 -0.00006280,-0.00018397,0.00058985,-0.00065506,0.00272698,0.00478962,0
 .00048750,-0.00070868,-0.00218573,0.00760682,-0.02396294,0.03798238,0.
 15944151,-0.37345429,-0.00320957,-0.00048113,0.00149303,0.00023367,0.0
 0018800,0.00007828,-0.00017809,-0.00026081,-0.00011427,0.00002227,0.00
 000720,-0.00002364,0.00000724,-0.00002205,-0.00001169,-0.00001093,0.00
 002871,-0.00000455,-0.00007273,0.00005408,0.00001749,0.00008919,0.0000
 2343,-0.00006750,0.00151324,-0.00026461,-0.00022135,0.00001916,0.00077
 070,0.00006956,-0.00038456,-0.00071285,-0.00093604,-0.00145685,0.00306
 189,-0.00511990,-0.03839525,-0.17100741,0.39975754,0.00002134,0.000047
 12,0.00002760,0.00000075,-0.00000827,-0.00002852,-0.00001048,-0.000035
 76,-0.00002488,-0.00001513,0.00002518,0.00002436,0.00000160,-0.0000001
 2,0.00000423,-0.00002394,0.00000086,-0.00002045,0.00001585,0.00000306,
 0.00001443,0.00001594,0.00000281,0.00001730,-0.00001887,-0.00000856,-0
 .00000355,-0.00000170,-0.00000038,0.00000450,-0.00000115,0.00000094,-0
 .00000673,0.00000247,0.00000048,0.00000079,-0.00000275,-0.00000336,-0.
 00000202,-0.00000166,-0.00000268,-0.00000354,-0.00002226,-0.00001251,-
 0.00000831,-0.00002081,-0.00008075,-0.00002495,-0.00002757,-0.00000150
 ,0.00002922,-0.00004752,0.00001717,0.00010436,-0.00002644,0.00035437,-
 0.00027071,0.00002536,-0.00074806,-0.00118098,0.00000532,-0.00000996,-
 0.00001214,-0.00000859,0.00000441,-0.00000076,0.00000807,-0.00000313,0
 .00000285,0.00000291,-0.00000666,-0.00000224,-0.00000054,-0.00000156,-
 0.00000008,-0.00000387,0.00000172,0.00000223,-0.00000070,0.00000077,0.
 00000121,0.00001334,-0.00002227,-0.00005323,0.00001814,0.00000731,0.00
 000615,-0.00000525,-0.00000018,0.00000227,-0.00000129,-0.00000875,-0.0
 0000089,-0.00000062,0.00000094,-0.00000277,-0.00000250,0.00000321,0.00
 000002,0.00000121,0.00000213,0.00000099,-0.00000025,0.00000001,-0.0000
 0141,0.00000156,0.00000111,0.00000037,0.00001972,0.00004863,0.00012692
 ,0.00003432,0.00000154,0.00000958,0.00003883,-0.00019152,-0.00018290,0
 .00004031,0.00012747,0.00005955,0.00002058,-0.00000266,-0.00000005,0.0
 0006139,-0.00014344,-0.00000562,-0.00008330,0.00007082,-0.00001869,-0.
 00018067,0.00018867,0.00008658,0.00006715,-0.00026071,-0.00010650,-0.0
 0000068,0.00000720,-0.00000141,-0.00000268,0.00001259,0.00000863,0.000
 00317,0.00000184,0.00000334,0.00004522,-0.00000106,-0.00001804,0.00002
 175,-0.00000051,-0.00001532,-0.00001169,0.00016112,0.00018905,0.000002
 36,0.00001014,-0.00003979,-0.00022857,-0.00018246,-0.00001268,0.000241
 24,0.00018262,0.00008317,0.00000520,-0.00004603,-0.00000995,-0.0001021
 1,-0.00001422,-0.00002747,0.00041867,-0.00096985,-0.00028682,0.0033390
 8,0.00044791,-0.00090980,-0.00182387,0.00170961,0.00174850,0.00004296,
 0.00031729,-0.00297132,-0.40654450,-0.10180981,0.10252749,0.00015078,0
 .00011739,0.00010160,-0.00006059,-0.00020903,-0.00012022,0.00000944,0.
 00000807,0.00000323,0.00001677,0.00002300,0.00000386,-0.00000308,0.000
 00803,0.00000440,-0.00000894,0.00000267,-0.00000369,0.00004415,0.00002
 051,-0.00003317,0.00007416,0.00003165,-0.00018414,-0.00004971,0.000039
 27,0.00010932,-0.00018849,0.00022577,-0.00044629,0.00069943,0.00038856
 ,-0.00082297,-0.00022924,0.00019522,0.00005257,0.41620413,0.00007486,0
 .00001917,0.00001823,-0.00001774,-0.00000252,-0.00002410,-0.00008994,-
 0.00005978,-0.00001462,0.00007683,0.00002474,0.00003124,0.00000933,0.0
 0001705,-0.00001038,-0.00007446,0.00000289,-0.00003850,0.00005478,-0.0
 0000776,0.00002691,0.00004899,-0.00000547,0.00003003,-0.00004491,-0.00
 001334,-0.00000790,-0.00000078,-0.00000112,0.00000065,-0.00000227,0.00
 000254,-0.00000627,0.00000166,0.00000250,-0.00000335,-0.00000730,0.000
 00109,0.00000149,-0.00000698,0.00000325,-0.00000498,-0.00008611,-0.000
 00818,-0.00001533,-0.00002733,-0.00001697,-0.00000434,0.00010456,0.000
 00200,0.00007702,-0.00012723,0.00002264,0.00011085,-0.00050334,0.00045
 312,-0.00038965,0.00058586,-0.00068599,-0.00043583,0.00003463,0.000063
 31,-0.00000899,-0.00002315,-0.00004371,-0.00000798,0.00000631,0.000002
 61,0.00001787,0.00001068,0.00001388,0.00003414,-0.00000166,-0.00001274
 ,-0.00000432,-0.00000161,-0.00000233,0.00000031,0.00000509,-0.00000139
 ,0.00000406,-0.00002841,0.00002747,-0.00001780,0.00003122,-0.00000952,
 0.00000136,0.00000513,0.00001002,-0.00001225,-0.00001054,0.00001943,0.
 00000313,0.00000364,-0.00000146,-0.00001569,-0.00000125,0.00000770,-0.
 00000949,0.00000090,0.00000418,-0.00000129,0.00000832,0.00000307,-0.00
 000169,0.00000437,0.00000234,-0.00000091,0.00052291,-0.00015422,-0.000
 10921,-0.00000163,-0.00012408,0.00014211,-0.00020662,-0.00003512,0.000
 10102,0.00020925,0.00008723,-0.00004521,-0.00003646,0.00006822,0.00001
 023,0.00006806,-0.00116086,0.00010183,-0.00015621,0.00047782,-0.000308
 62,0.00049491,0.00112695,-0.00026226,-0.00087466,-0.00049016,0.0001854
 9,0.00001216,0.00003388,-0.00003846,0.00002939,-0.00004316,-0.00001230
 ,0.00002508,0.00002966,0.00000370,0.00001247,-0.00002139,0.00008063,-0
 .00004300,-0.00003489,0.00000243,0.00016170,-0.00000919,-0.00006123,-0
 .00010512,0.00000750,0.00007040,-0.00010860,-0.00001713,-0.00007299,0.
 00014616,-0.00001439,0.00001126,0.00001338,0.00001549,0.00001008,-0.00
 010480,0.00009948,0.00022598,-0.00089525,0.00305735,0.00008574,0.00083
 718,0.00392733,0.00144830,-0.00588561,-0.00736118,0.00338284,-0.000309
 49,-0.00312593,-0.00162523,-0.09069429,-0.02547440,0.02373012,0.000117
 83,0.00001125,0.00005898,-0.00005719,0.00005809,-0.00001006,0.00001177
 ,0.00000310,-0.00000367,0.00001835,-0.00000986,-0.00000542,-0.00000826
 ,-0.00001664,0.00001374,0.00001850,-0.00000613,0.00003033,-0.00008040,
 -0.00006018,-0.00001838,-0.00006810,-0.00007883,0.00039192,0.00014528,
 0.00002607,-0.00058457,-0.00008773,-0.00130358,-0.00039672,0.00087106,
 0.00229189,0.00086011,0.00018376,-0.00117688,-0.00030249,0.10080870,0.
 03153267,-0.00002964,-0.00003691,-0.00002262,0.00000932,-0.00000732,0.
 00002712,-0.00001560,0.00009275,0.00005274,0.00001896,-0.00003763,-0.0
 0005168,0.00000021,-0.00000190,0.00000007,0.00002650,-0.00000773,0.000
 02930,-0.00002097,0.00000177,-0.00001770,-0.00001645,0.00000549,-0.000
 02477,0.00002117,0.00000614,0.00000587,-0.00000256,-0.00000109,-0.0000
 0177,0.00000163,-0.00000218,0.00000863,-0.00000261,-0.00000361,0.00000
 192,0.00000166,0.00000154,0.00000094,-0.00000090,-0.00000192,0.0000059
 2,0.00002748,0.00000667,0.00000674,0.00001965,0.00006158,0.00001440,-0
 .00010071,-0.00009418,-0.00011382,-0.00012768,0.00003223,0.00028567,0.
 00001263,0.00081590,-0.00012409,0.00044706,-0.00152604,-0.00275628,-0.
 00002973,-0.00001837,0.00002120,0.00001061,0.00000975,-0.00001085,-0.0
 0001220,0.00000968,-0.00000624,-0.00000137,0.00000393,-0.00000695,0.00
 000280,0.00000273,-0.00000274,0.00000240,-0.00000038,-0.00000298,0.000
 00129,0.00000241,-0.00000309,0.00000301,0.00000881,0.00004367,0.000011
 52,0.00000064,0.00001832,0.00001476,-0.00000920,0.00001289,-0.00000686
 ,-0.00000719,-0.00001116,-0.00000075,-0.00000622,0.00000657,0.00000082
 ,-0.00000550,0.00000471,-0.00000241,-0.00000309,0.00000057,-0.00000082
 ,-0.00000203,0.00000190,-0.00000061,-0.00000179,0.00000138,0.00030603,
 -0.00021711,-0.00008568,0.00001865,0.00002787,-0.00000848,0.00004040,0
 .00010002,0.00006337,-0.00006405,-0.00006991,-0.00002093,-0.00002251,-
 0.00003961,-0.00000416,-0.00001535,0.00034771,0.00005161,0.00004821,-0
 .00014388,0.00005367,-0.00009752,-0.00042081,-0.00012209,-0.00015693,0
 .00019377,0.00022375,-0.00001045,-0.00001007,0.00000990,-0.00000536,-0
 .00001935,-0.00000705,-0.00000006,-0.00001070,-0.00000989,-0.00000839,
 0.00003140,-0.00000555,-0.00000246,0.00001073,0.00001008,-0.00002012,-
 0.00003939,-0.00003488,0.00000993,-0.00001995,-0.00002100,0.00018156,0
 .00020335,-0.00000211,-0.00017519,-0.00015047,0.00011991,0.00001343,-0
 .00002387,-0.00000485,-0.00010837,0.00000535,-0.00048841,0.00108512,0.
 00060575,0.00077608,-0.00237226,0.00040866,-0.00597991,0.03967606,0.00
 866716,-0.00721382,0.00001406,-0.00117714,0.00151913,0.09201239,0.0244
 4354,-0.10186922,-0.00013617,-0.00010878,-0.00008359,0.00003566,0.0000
 4916,-0.00002901,-0.00000477,-0.00000451,0.00001070,-0.00000129,0.0000
 1067,0.00000916,0.00000277,0.00000455,0.00000178,-0.00003243,-0.000007
 44,0.00001985,0.00014433,0.00002680,-0.00000120,0.00002418,-0.00008168
 ,0.00002331,0.00001347,0.00010234,-0.00010541,-0.00002819,-0.00010131,
 -0.00023342,-0.00164149,0.00112650,-0.00228786,-0.00016099,0.00002105,
 0.00017382,-0.10851837,-0.03058586,0.09998876,0.00014065,0.00004916,-0
 .00010193,-0.00007056,0.00009037,0.00014820,0.00005205,-0.00125958,-0.
 00036974,-0.00004036,0.00059702,0.00021315,0.00007198,0.00010043,-0.00
 009517,-0.00026151,-0.00012395,0.00008137,0.00014772,0.00003112,0.0000
 1550,0.00016414,0.00007928,-0.00008660,-0.00007514,-0.00003254,0.00000
 564,0.00005295,0.00002116,-0.00003603,-0.00002491,-0.00000240,0.000028
 29,-0.00001899,-0.00002364,-0.00000394,-0.00002496,-0.00000629,0.00000
 629,-0.00005312,-0.00002690,0.00000804,-0.00002939,-0.00003638,0.00006
 180,-0.00005021,0.00000555,0.00009504,0.00121956,0.00122311,0.00035334
 ,-0.00008342,0.00008949,-0.00146962,0.00018754,-0.01699387,0.00647347,
 -0.00357658,0.01518352,0.00298357,0.00010388,0.00017210,-0.00014131,-0
 .00027310,-0.00010604,-0.00009940,0.00015991,0.00001725,0.00008142,0.0
 0011108,0.00008049,0.00010789,-0.00001987,-0.00001340,-0.00001715,-0.0
 0000921,0.00000274,-0.00001451,0.00006485,0.00003413,0.00001236,-0.000
 18874,0.00015921,0.00022329,0.00004857,-0.00006600,-0.00004348,-0.0002
 2364,0.00001090,0.00001622,0.00003000,0.00006128,-0.00014549,0.0000001
 7,-0.00002190,-0.00006131,-0.00004595,0.00001194,-0.00000401,0.0000176
 5,0.00002217,0.00001950,0.00003941,-0.00000216,0.00000612,0.00002529,0
 .00000481,0.00001444,-0.00356860,0.00530635,-0.00332556,-0.00053905,-0
 .00166802,0.00009173,-0.00061856,0.00082096,0.00087899,0.00036882,-0.0
 0005887,-0.00049221,0.00033747,0.00015844,-0.00018172,0.00037403,0.001
 23363,0.00073820,-0.00006084,-0.00044783,-0.00010424,-0.00064128,-0.00
 140250,-0.00088229,0.00137430,0.00150555,0.00080910,0.00003213,0.00017
 135,-0.00007743,0.00002664,-0.00009903,0.00001481,-0.00019786,0.000072
 15,-0.00018108,-0.00000046,0.00009641,-0.00003102,0.00006543,-0.000002
 63,0.00006671,0.00007879,-0.00045412,-0.00130473,-0.00015388,0.0000596
 4,0.00036986,0.00007683,-0.00052769,0.00035514,-0.00007474,-0.00001059
 ,-0.00159215,-0.00003485,0.00027029,0.00017370,0.00043419,0.00007418,0
 .00019231,-0.00003168,0.00086439,-0.00129623,-0.00652349,-0.00265324,0
 .00286923,0.02087398,0.01235612,-0.00619648,0.00071213,-0.00208695,0.0
 0770023,-0.19484040,-0.07265436,-0.12413691,0.00005768,0.00002869,-0.0
 0037907,0.00044909,0.00066485,0.00105706,-0.00002699,0.00001797,-0.000
 06365,-0.00006885,-0.00012996,-0.00004670,-0.00002140,-0.00001789,-0.0
 0008662,-0.00004672,0.00002004,0.00005321,-0.00021221,-0.00011207,0.00
 000746,-0.00011077,-0.00011620,0.00036817,-0.00011574,0.00003577,0.000
 19132,0.00126850,0.00044038,0.00331747,-0.00033258,0.00006261,0.000158
 65,0.00153922,-0.00103724,0.00007704,-0.01197261,-0.00499664,-0.020305
 19,0.19455655,0.00023218,-0.00007698,-0.00010027,-0.00009749,0.0000843
 7,0.00012218,-0.00009559,-0.00106493,-0.00032880,0.00013931,0.00049822
 ,0.00019212,0.00007251,0.00012199,-0.00010693,-0.00029888,-0.00009376,
 0.00002488,0.00019226,0.00000540,0.00003888,0.00019256,0.00004676,-0.0
 0003779,-0.00010726,-0.00004385,-0.00000891,0.00004765,0.00001572,-0.0
 0003843,-0.00002057,0.00000238,0.00002838,-0.00001727,-0.00001741,-0.0
 0001231,-0.00002722,0.00000235,0.00001097,-0.00005151,-0.00001054,0.00
 000335,-0.00019315,-0.00003178,0.00001772,-0.00004055,0.00025332,0.000
 12028,0.00127844,0.00104837,0.00042613,-0.00024379,0.00063368,-0.00054
 192,-0.00328662,-0.01611981,0.00106036,0.00412357,0.00584298,0.0058623
 9,0.00007643,0.00048422,-0.00005688,-0.00023826,-0.00022882,-0.0001457
 3,0.00012842,0.00002916,0.00010500,0.00010348,0.00014121,0.00019296,-0
 .00002511,-0.00004509,-0.00002919,0.00000985,-0.00001395,-0.00001986,0
 .00006899,0.00002150,0.00001263,-0.00026413,0.00029092,0.00028565,0.00
 026775,-0.00003565,0.00006253,-0.00013564,0.00007632,-0.00000279,0.000
 01163,0.00011390,-0.00017859,0.00001286,-0.00002704,-0.00008377,-0.000
 02066,0.00001383,-0.00002141,0.00001450,0.00002208,0.00001147,0.000049
 75,0.00000540,0.00000650,0.00002579,0.00000392,0.00000698,-0.00238790,
 0.00400722,-0.00267156,-0.00040935,-0.00180087,0.00082374,-0.00087437,
 0.00071790,0.00095469,0.00072895,0.00009074,-0.00052167,0.00033266,0.0
 0024948,-0.00020058,0.00037970,-0.00043208,0.00077808,-0.00027178,0.00
 022605,-0.00048808,-0.00053319,0.00014850,-0.00105264,0.00129212,-0.00
 283731,0.00127959,0.00008609,0.00034523,-0.00020813,0.00007134,-0.0001
 3866,0.00001159,-0.00018675,0.00012454,-0.00017090,0.00004240,0.000067
 38,0.00004775,0.00002226,-0.00003473,0.00005071,0.00040403,-0.00055644
 ,-0.00116174,-0.00045304,0.00008522,0.00045714,0.00058436,0.00069188,-
 0.00006839,-0.00042007,-0.00130059,-0.00052154,0.00006002,0.00016838,0
 .00014646,0.00022967,0.00005859,-0.00001047,0.00015101,-0.00080658,-0.
 00080292,-0.00159510,-0.00294347,0.00026996,0.01643717,0.00103848,0.00
 523768,-0.00161190,0.00170789,0.00528556,-0.07773998,-0.04189954,-0.06
 007666,-0.00029688,-0.00053278,-0.00043554,-0.00007845,0.00027951,0.00
 093175,0.00004367,-0.00002389,-0.00002115,-0.00003198,-0.00010300,-0.0
 0007175,-0.00002274,-0.00003461,-0.00001958,0.00002053,0.00001966,0.00
 001850,-0.00010223,-0.00005567,-0.00000236,-0.00000007,-0.00007266,-0.
 00021166,0.00005704,-0.00002787,0.00045507,0.00100974,0.00218607,0.000
 83038,-0.00108152,-0.00085020,-0.00041611,0.00022048,0.00249085,0.0012
 5358,-0.00084410,-0.00196849,-0.00244226,0.06488387,0.04976745,0.00015
 554,-0.00022642,-0.00026594,-0.00010427,0.00013660,0.00034722,-0.00001
 317,-0.00159122,-0.00040715,0.00010922,0.00076789,0.00013982,0.0001123
 4,0.00016971,-0.00016649,-0.00032181,-0.00020168,0.00020114,0.00017715
 ,0.00004105,-0.00002632,0.00020164,0.00011779,-0.00019732,-0.00004295,
 -0.00003244,0.00001657,0.00008014,0.00002885,-0.00007629,-0.00002933,-
 0.00000963,0.00008439,-0.00004117,-0.00004746,-0.00000752,-0.00003159,
 0.00000108,0.00001505,-0.00008322,-0.00003839,0.00002929,-0.00004756,-
 0.00001684,0.00009106,0.00003303,0.00055385,0.00024888,0.00178687,0.00
 164568,0.00018912,-0.00107964,0.00186926,-0.00045208,0.00253711,-0.021
 43387,0.01175482,0.00273705,0.01939111,-0.00592554,0.00003321,0.000527
 17,-0.00029571,-0.00040376,-0.00021277,-0.00021242,0.00021311,0.000061
 80,0.00013924,0.00016995,0.00018082,0.00020401,-0.00002967,-0.00003246
 ,-0.00003997,0.00000994,-0.00000609,-0.00003947,0.00011471,0.00005527,
 0.00001270,-0.00036347,0.00042413,0.00064755,0.00053658,0.00003165,0.0
 0021581,-0.00032292,-0.00000169,0.00006596,0.00000963,0.00007298,-0.00
 030718,0.00000817,-0.00005579,-0.00010429,-0.00005795,-0.00000373,0.00
 000214,0.00002262,0.00002839,0.00002880,0.00006633,-0.00000507,0.00001
 672,0.00003857,0.00000142,0.00002194,-0.00359568,0.00759595,-0.0057876
 9,-0.00070812,-0.00240741,0.00014889,-0.00102178,0.00180914,0.00179478
 ,0.00054583,-0.00036835,-0.00089693,0.00044829,0.00026956,-0.00030015,
 0.00049482,0.00137066,0.00110751,-0.00009598,-0.00048494,-0.00025446,-
 0.00066085,-0.00169023,-0.00136443,0.00085124,0.00122817,0.00211739,0.
 00007003,0.00023096,-0.00012073,0.00008223,-0.00019359,0.00002114,-0.0
 0028713,0.00012780,-0.00025633,-0.00001540,0.00012406,-0.00001506,0.00
 004996,-0.00000913,0.00011078,0.00039873,-0.00103673,-0.00204679,-0.00
 040174,-0.00001318,0.00057161,0.00168183,0.00143892,0.00022543,-0.0017
 5043,-0.00181871,-0.00106288,0.00001865,0.00035754,0.00019503,0.000581
 54,0.00014245,0.00031871,0.00021577,0.00094154,-0.00219955,-0.00737228
 ,-0.00322075,0.00427695,-0.00949429,-0.00163364,-0.03235210,0.00383240
 ,0.00082797,0.00405034,-0.13636361,-0.05637093,-0.21551167,-0.00100726
 ,-0.00105024,-0.00113678,0.00050065,0.00132135,0.00111425,-0.00002396,
 -0.00003244,-0.00002115,-0.00009906,-0.00018686,-0.00008253,-0.0000128
 2,-0.00004000,-0.00005957,0.00001862,-0.00001490,-0.00000961,-0.000318
 91,-0.00016240,0.00005122,-0.00010417,-0.00012507,0.00059949,-0.000032
 26,-0.00007920,0.00061406,0.00446101,0.00133232,0.00076754,-0.00085237
 ,0.00012157,-0.00051452,-0.00016428,-0.00053167,-0.00017536,0.01102268
 ,0.00417380,0.01816985,0.13292766,0.04586564,0.22196475\\-0.00000032,-
 0.00002129,-0.00000053,0.00000032,-0.00000254,-0.00000015,-0.00000061,
 0.00000294,0.00000752,0.00000084,-0.00000199,-0.00000110,-0.00000067,-
 0.00000203,0.00000063,-0.00000011,0.00000356,-0.00000066,0.00000050,-0
 .00000128,0.00000099,-0.00000729,-0.00000341,-0.00000020,0.00000088,-0
 .00000017,0.00000137,-0.00000083,-0.00000004,0.00000019,0.,0.00000084,
 0.00000049,-0.00000151,-0.00000129,0.00000163,-0.00000121,0.00000193,0
 .00000219,-0.00000120,-0.00000119,0.00000105,0.00000097,-0.00000266,-0
 .00000176,0.00000187,0.00000476,0.00000159,-0.00000190,0.00000159,-0.0
 0001543,0.00000390,-0.00000372,0.00000902,-0.00000794,-0.00000195,-0.0
 0000199,0.00001223,0.00001155,0.00001037,-0.00000003,-0.00000058,-0.00
 000265,-0.00000099,0.00000081,0.00000249,-0.00000087,0.00000095,-0.000
 00185,-0.00000069,0.00000158,0.00000076,-0.00000117,-0.00000025,0.0000
 0100,-0.00000146,-0.00000094,0.00000217,-0.00000250,-0.00000318,0.0000
 0183,0.00000165,-0.00000328,0.00000103,-0.00000026,0.00000035,-0.00000
 009,0.00000099,0.00000075,0.00000128,-0.00000113,-0.00000187,-0.000001
 62,-0.00000146,-0.00000072,0.00000034,0.00000007,0.00000148,-0.0000006
 2,-0.00000112,0.00000051,-0.00000048,-0.00000038,0.00000259,-0.0000007
 8,-0.00000047,0.00000134,0.00000004,0.00000720,0.00000824,-0.00000200,
 0.00000954,-0.00000457,0.00000802,-0.00000639,-0.00000613,-0.00000146,
 -0.00000277,0.00000008,-0.00000133,-0.00000011,-0.00000201,-0.00000120
 ,0.00000206,0.00000397,-0.00000300,0.00000215,-0.00000209,-0.00000078,
 -0.00000223,0.00000297,0.00000410,0.00000027,-0.00000723,0.00000356,-0
 .00000211,-0.00000182,0.00000168,0.00000057,-0.00000071,-0.00000091,-0
 .00000101,-0.00000094,-0.00000216,0.00000194,0.00000025,-0.00000078,-0
 .00000125,-0.00000141,0.00000031,0.00000257,0.00003031,-0.00002936,-0.
 00001459,-0.00000914,0.00000599,-0.00000428,-0.00000396,0.00001918,-0.
 00001151,0.00000773,0.00000133,0.00002177,-0.00001273,0.00000760,-0.00
 000543,-0.00000507,0.00000395,0.00000019,0.00000240,-0.00001120,0.0000
 3387,0.00001662,0.00000877,-0.00001934,-0.00001030,0.00002766,0.000002
 51,-0.00000567,-0.00000797,0.00000766,-0.00002555,-0.00002222,0.000001
 57,0.00001970,-0.00000494,-0.00000159,0.00000230,0.00000108,-0.0000011
 3,0.00000193,0.00000336,0.00000006,0.00000106,-0.00000141,0.00000204,0
 .00000089,-0.00000012,-0.00000029,-0.00000197,-0.00000597,-0.00000086,
 0.00000680,-0.00000256,0.00000135,-0.00000100,0.00000071,-0.00000018,-
 0.00000295,-0.00000503,-0.00000425,-0.00000337,-0.00000006,0.00000190,
 -0.00000271,-0.00000052,-0.00000002,0.00000695,0.00000131,0.00000361,0
 .00000622,-0.00000346,-0.00001164,0.00000974,-0.00000824\\\@
 The archive entry for this job was punched.


 THE RARE EARTHS PERPLEX US IN OUR RESEARCHES,
 BAFFLE US IN OUR SPECULATIONS, AND HAUNT US IN OUR
 VERY DREAMS.  THEY STRETCH LIKE AN UNKNOWN BEFORE US,
 MOCKING, MYSTIFYING, AND MURMURING STRANGE REVELATIONS
 AND POSSIBILITIES.  -- SIR WILLIAM CROOKE, 1832-1919
 Job cpu time:       0 days  7 hours 27 minutes 21.7 seconds.
 Elapsed time:       0 days  0 hours 55 minutes 57.1 seconds.
 File lengths (MBytes):  RWF=   3960 Int=      0 D2E=      0 Chk=     48 Scr=     16
 Normal termination of Gaussian 16 at Tue May 31 20:43:00 2022.
