 Entering Gaussian System, Link 0=/opt/software/Gaussian/g16-AVX2-C.01/g16/g16
 Input=opt_freq-conf-472.com
 Output=opt_freq-conf-472.log
 Initial command:
 /opt/software/Gaussian/g16-AVX2-C.01/g16/l1.exe "/mnt/gs18/scratch/users/kengmith/Gau-99722.inp" -scrdir="/mnt/gs18/scratch/users/kengmith/"
 Entering Link 1 = /opt/software/Gaussian/g16-AVX2-C.01/g16/l1.exe PID=     99732.
  
 Copyright (c) 1988-2019, Gaussian, Inc.  All Rights Reserved.
  
 This is part of the Gaussian(R) 16 program.  It is based on
 the Gaussian(R) 09 system (copyright 2009, Gaussian, Inc.),
 the Gaussian(R) 03 system (copyright 2003, Gaussian, Inc.),
 the Gaussian(R) 98 system (copyright 1998, Gaussian, Inc.),
 the Gaussian(R) 94 system (copyright 1995, Gaussian, Inc.),
 the Gaussian 92(TM) system (copyright 1992, Gaussian, Inc.),
 the Gaussian 90(TM) system (copyright 1990, Gaussian, Inc.),
 the Gaussian 88(TM) system (copyright 1988, Gaussian, Inc.),
 the Gaussian 86(TM) system (copyright 1986, Carnegie Mellon
 University), and the Gaussian 82(TM) system (copyright 1983,
 Carnegie Mellon University). Gaussian is a federally registered
 trademark of Gaussian, Inc.
  
 This software contains proprietary and confidential information,
 including trade secrets, belonging to Gaussian, Inc.
  
 This software is provided under written license and may be
 used, copied, transmitted, or stored only in accord with that
 written license.
  
 The following legend is applicable only to US Government
 contracts under FAR:
  
                    RESTRICTED RIGHTS LEGEND
  
 Use, reproduction and disclosure by the US Government is
 subject to restrictions as set forth in subparagraphs (a)
 and (c) of the Commercial Computer Software - Restricted
 Rights clause in FAR 52.227-19.
  
 Gaussian, Inc.
 340 Quinnipiac St., Bldg. 40, Wallingford CT 06492
  
  
 ---------------------------------------------------------------
 Warning -- This program may not be used in any manner that
 competes with the business of Gaussian, Inc. or will provide
 assistance to any competitor of Gaussian, Inc.  The licensee
 of this program is prohibited from giving any competitor of
 Gaussian, Inc. access to this program.  By using this program,
 the user acknowledges that Gaussian, Inc. is engaged in the
 business of creating and licensing software in the field of
 computational chemistry and represents and warrants to the
 licensee that it is not a competitor of Gaussian, Inc. and that
 it will not use this program in any manner prohibited above.
 ---------------------------------------------------------------
  

 Cite this work as:
 Gaussian 16, Revision C.01,
 M. J. Frisch, G. W. Trucks, H. B. Schlegel, G. E. Scuseria, 
 M. A. Robb, J. R. Cheeseman, G. Scalmani, V. Barone, 
 G. A. Petersson, H. Nakatsuji, X. Li, M. Caricato, A. V. Marenich, 
 J. Bloino, B. G. Janesko, R. Gomperts, B. Mennucci, H. P. Hratchian, 
 J. V. Ortiz, A. F. Izmaylov, J. L. Sonnenberg, D. Williams-Young, 
 F. Ding, F. Lipparini, F. Egidi, J. Goings, B. Peng, A. Petrone, 
 T. Henderson, D. Ranasinghe, V. G. Zakrzewski, J. Gao, N. Rega, 
 G. Zheng, W. Liang, M. Hada, M. Ehara, K. Toyota, R. Fukuda, 
 J. Hasegawa, M. Ishida, T. Nakajima, Y. Honda, O. Kitao, H. Nakai, 
 T. Vreven, K. Throssell, J. A. Montgomery, Jr., J. E. Peralta, 
 F. Ogliaro, M. J. Bearpark, J. J. Heyd, E. N. Brothers, K. N. Kudin, 
 V. N. Staroverov, T. A. Keith, R. Kobayashi, J. Normand, 
 K. Raghavachari, A. P. Rendell, J. C. Burant, S. S. Iyengar, 
 J. Tomasi, M. Cossi, J. M. Millam, M. Klene, C. Adamo, R. Cammi, 
 J. W. Ochterski, R. L. Martin, K. Morokuma, O. Farkas, 
 J. B. Foresman, and D. J. Fox, Gaussian, Inc., Wallingford CT, 2019.
 
 ******************************************
 Gaussian 16:  ES64L-G16RevC.01  3-Jul-2019
                31-May-2022 
 ******************************************
 %mem=12gb
 %nproc=8
 Will use up to    8 processors via shared memory.
 %chk=conf-472.chk
 ----------------------------------------------------------------------
 # B3LYP/6-31G* empiricaldispersion=gd3 opt=calcfc freq=noraman nosymm 
 integral(ultrafinegrid)
 ----------------------------------------------------------------------
 1/10=4,18=20,19=15,26=4,38=1/1,3;
 2/9=110,12=2,15=1,17=6,18=5,40=1/2;
 3/5=1,6=6,7=1,11=2,25=1,30=1,71=2,74=-5,75=-5,124=31,140=1/1,2,3;
 4//1;
 5/5=2,38=5/2;
 8/6=4,10=90,11=11/1;
 11/6=1,8=1,9=11,15=111,16=1,31=1/1,2,10;
 10/6=1,13=1,31=1/2;
 6/7=2,8=2,9=2,10=2,28=1/1;
 7/10=1,25=1,30=1/1,2,3,16;
 1/10=4,18=20,19=15,26=4/3(2);
 2/9=110,15=1/2;
 99//99;
 2/9=110,15=1/2;
 3/5=1,6=6,7=1,11=2,25=1,30=1,71=1,74=-5,75=-5,124=31/1,2,3;
 4/5=5,16=3,69=1/1;
 5/5=2,38=5/2;
 7/30=1/1,2,3,16;
 1/18=20,19=15,26=4/3(-5);
 2/9=110,15=1/2;
 6/7=2,8=2,9=2,10=2,19=2,28=1/1;
 99/9=1/99;
 ------------------------------------------------------------
 Candidate Structure: Conf:472 OPT and FREQ calc in gas phase
 ------------------------------------------------------------
 Symbolic Z-matrix:
 Charge =  1 Multiplicity = 1
 N                    -6.24149  -0.32356  -11.06699 
 C                    -5.46785  -1.48512  -10.58647 
 C                    -6.4129   -2.56967  -10.04206 
 O                    -7.01861  -3.26975  -10.85537 
 C                    -4.36263  -1.07704  -9.61877 
 C                    -3.32116  -0.24555  -10.33554 
 N                    -3.03993   0.93733  -9.73251 
 O                    -2.76526  -0.64793  -11.34402 
 H                    -5.84898  -0.00283  -11.95476 
 H                    -4.99488  -1.95817  -11.45054 
 H                    -4.73553  -0.55068  -8.76205 
 H                    -3.84345  -1.97944  -9.28728 
 H                    -2.41306   1.55455  -10.22083 
 H                    -3.74097   1.32285  -9.11482 
 H                    -7.2431   -0.51496  -11.19554 
 H                    -6.1316    0.45267  -10.39219 
 N                    -6.52716  -2.72527  -8.70027 
 C                    -7.12255  -3.94055  -8.16659 
 C                    -8.24394  -3.68772  -7.15198 
 O                    -8.33338  -4.33459  -6.11734 
 C                    -6.06521  -4.90949  -7.60616 
 C                    -5.32151  -4.42639  -6.38939 
 C                    -4.43111  -3.35991  -6.45117 
 C                    -5.51582  -5.04733  -5.15989 
 C                    -3.7666   -2.90616  -5.31648 
 C                    -4.85853  -4.60335  -4.01868 
 C                    -3.9826   -3.52473  -4.09264 
 H                    -6.20769  -2.00471  -8.06494 
 H                    -7.58196  -4.42447  -9.02948 
 H                    -6.58679  -5.84003  -7.37145 
 H                    -5.37244  -5.13085  -8.424 
 H                    -4.26763  -2.85707  -7.40024 
 H                    -6.22773  -5.86845  -5.09015 
 H                    -3.10551  -2.05227  -5.39122 
 H                    -5.06405  -5.07592  -3.06259 
 H                    -3.50179  -3.14567  -3.19615 
 N                    -9.13575  -2.70498  -7.43963 
 C                    -9.5251   -2.26316  -8.75464 
 C                    -9.06365  -0.83927  -9.06257 
 O                    -9.081    -0.43411  -10.2189 
 C                    -11.04305  -2.35751  -8.95986 
 C                    -11.83958  -1.57009  -7.93328 
 N                    -12.91667  -0.91249  -8.41097 
 O                    -11.54083  -1.56701  -6.74328 
 H                    -9.83787  -2.58462  -6.7256 
 H                    -9.0255   -2.88605  -9.49379 
 H                    -11.34874  -3.39989  -8.85966 
 H                    -11.29487  -2.02885  -9.96835 
 H                    -13.48964  -0.39859  -7.76515 
 H                    -13.16375  -0.9443   -9.38143 
 N                    -8.69394  -0.09635  -7.99718 
 C                    -7.89676   1.08678  -8.19727 
 C                    -6.3907    0.72644  -8.10656 
 O                    -6.07156  -0.12819  -7.27738 
 C                    -8.21835   2.22429  -7.23929 
 C                    -7.89718   2.01492  -5.75603 
 C                    -8.66089   0.87415  -5.07829 
 N                    -7.84942  -0.35729  -5.05922 
 C                    -8.25908  -1.51332  -4.53686 
 N                    -9.56796  -1.71148  -4.29923 
 N                    -7.3743   -2.47263  -4.20448 
 O                    -5.67704   1.37895  -8.88609 
 H                    -8.48519  -0.6278   -7.1764 
 H                    -8.09056   1.42157  -9.2126 
 H                    -7.66407   3.0989   -7.60004 
 H                    -9.28069   2.4596   -7.3573 
 H                    -6.82605   1.86307  -5.6131 
 H                    -8.14524   2.94753  -5.24107 
 H                    -8.91116   1.13727  -4.04924 
 H                    -9.60584   0.69029  -5.59433 
 H                    -6.95354  -0.34159  -5.53162 
 H                    -9.81314  -2.61654  -3.92718 
 H                    -10.2426  -1.32677  -4.9569 
 H                    -7.67429  -3.40823  -4.46186 
 H                    -6.40808  -2.29643  -4.44102 
 

 GradGradGradGradGradGradGradGradGradGradGradGradGradGradGradGradGradGrad
 Berny optimization.
 Initialization pass.
                           ----------------------------
                           !    Initial Parameters    !
                           ! (Angstroms and Degrees)  !
 --------------------------                            --------------------------
 ! Name  Definition              Value          Derivative Info.                !
 --------------------------------------------------------------------------------
 ! R1    R(1,2)                  1.476          calculate D2E/DX2 analytically  !
 ! R2    R(1,9)                  1.0223         calculate D2E/DX2 analytically  !
 ! R3    R(1,15)                 1.0278         calculate D2E/DX2 analytically  !
 ! R4    R(1,16)                 1.0344         calculate D2E/DX2 analytically  !
 ! R5    R(2,3)                  1.5381         calculate D2E/DX2 analytically  !
 ! R6    R(2,5)                  1.5246         calculate D2E/DX2 analytically  !
 ! R7    R(2,10)                 1.0927         calculate D2E/DX2 analytically  !
 ! R8    R(3,4)                  1.2323         calculate D2E/DX2 analytically  !
 ! R9    R(3,17)                 1.3556         calculate D2E/DX2 analytically  !
 ! R10   R(5,6)                  1.5132         calculate D2E/DX2 analytically  !
 ! R11   R(5,11)                 1.0724         calculate D2E/DX2 analytically  !
 ! R12   R(5,12)                 1.0926         calculate D2E/DX2 analytically  !
 ! R13   R(6,7)                  1.3572         calculate D2E/DX2 analytically  !
 ! R14   R(6,8)                  1.2198         calculate D2E/DX2 analytically  !
 ! R15   R(7,13)                 1.0062         calculate D2E/DX2 analytically  !
 ! R16   R(7,14)                 1.0108         calculate D2E/DX2 analytically  !
 ! R17   R(17,18)                1.4547         calculate D2E/DX2 analytically  !
 ! R18   R(17,28)                1.0124         calculate D2E/DX2 analytically  !
 ! R19   R(18,19)                1.5333         calculate D2E/DX2 analytically  !
 ! R20   R(18,21)                1.5398         calculate D2E/DX2 analytically  !
 ! R21   R(18,29)                1.0908         calculate D2E/DX2 analytically  !
 ! R22   R(19,20)                1.2235         calculate D2E/DX2 analytically  !
 ! R23   R(19,37)                1.3579         calculate D2E/DX2 analytically  !
 ! R24   R(21,22)                1.5057         calculate D2E/DX2 analytically  !
 ! R25   R(21,30)                1.0923         calculate D2E/DX2 analytically  !
 ! R26   R(21,31)                1.0944         calculate D2E/DX2 analytically  !
 ! R27   R(22,23)                1.3907         calculate D2E/DX2 analytically  !
 ! R28   R(22,24)                1.391          calculate D2E/DX2 analytically  !
 ! R29   R(23,25)                1.391          calculate D2E/DX2 analytically  !
 ! R30   R(23,32)                1.0864         calculate D2E/DX2 analytically  !
 ! R31   R(24,26)                1.3898         calculate D2E/DX2 analytically  !
 ! R32   R(24,33)                1.089          calculate D2E/DX2 analytically  !
 ! R33   R(25,27)                1.3882         calculate D2E/DX2 analytically  !
 ! R34   R(25,34)                1.0825         calculate D2E/DX2 analytically  !
 ! R35   R(26,27)                1.3915         calculate D2E/DX2 analytically  !
 ! R36   R(26,35)                1.0861         calculate D2E/DX2 analytically  !
 ! R37   R(27,36)                1.0856         calculate D2E/DX2 analytically  !
 ! R38   R(37,38)                1.4409         calculate D2E/DX2 analytically  !
 ! R39   R(37,45)                1.0086         calculate D2E/DX2 analytically  !
 ! R40   R(38,39)                1.5281         calculate D2E/DX2 analytically  !
 ! R41   R(38,41)                1.5347         calculate D2E/DX2 analytically  !
 ! R42   R(38,46)                1.0881         calculate D2E/DX2 analytically  !
 ! R43   R(39,40)                1.2254         calculate D2E/DX2 analytically  !
 ! R44   R(39,51)                1.3504         calculate D2E/DX2 analytically  !
 ! R45   R(41,42)                1.5193         calculate D2E/DX2 analytically  !
 ! R46   R(41,47)                1.0909         calculate D2E/DX2 analytically  !
 ! R47   R(41,48)                1.0902         calculate D2E/DX2 analytically  !
 ! R48   R(42,43)                1.3494         calculate D2E/DX2 analytically  !
 ! R49   R(42,44)                1.2269         calculate D2E/DX2 analytically  !
 ! R50   R(43,49)                1.0047         calculate D2E/DX2 analytically  !
 ! R51   R(43,50)                1.0019         calculate D2E/DX2 analytically  !
 ! R52   R(51,52)                1.4406         calculate D2E/DX2 analytically  !
 ! R53   R(51,63)                0.9998         calculate D2E/DX2 analytically  !
 ! R54   R(52,53)                1.5512         calculate D2E/DX2 analytically  !
 ! R55   R(52,55)                1.5215         calculate D2E/DX2 analytically  !
 ! R56   R(52,64)                1.0865         calculate D2E/DX2 analytically  !
 ! R57   R(53,54)                1.2328         calculate D2E/DX2 analytically  !
 ! R58   R(53,62)                1.2421         calculate D2E/DX2 analytically  !
 ! R59   R(55,56)                1.532          calculate D2E/DX2 analytically  !
 ! R60   R(55,65)                1.0965         calculate D2E/DX2 analytically  !
 ! R61   R(55,66)                1.0945         calculate D2E/DX2 analytically  !
 ! R62   R(56,57)                1.531          calculate D2E/DX2 analytically  !
 ! R63   R(56,67)                1.0912         calculate D2E/DX2 analytically  !
 ! R64   R(56,68)                1.0938         calculate D2E/DX2 analytically  !
 ! R65   R(57,58)                1.4749         calculate D2E/DX2 analytically  !
 ! R66   R(57,69)                1.0912         calculate D2E/DX2 analytically  !
 ! R67   R(57,70)                1.0923         calculate D2E/DX2 analytically  !
 ! R68   R(58,59)                1.3331         calculate D2E/DX2 analytically  !
 ! R69   R(58,71)                1.0129         calculate D2E/DX2 analytically  !
 ! R70   R(59,60)                1.345          calculate D2E/DX2 analytically  !
 ! R71   R(59,61)                1.3467         calculate D2E/DX2 analytically  !
 ! R72   R(60,72)                1.0088         calculate D2E/DX2 analytically  !
 ! R73   R(60,73)                1.0177         calculate D2E/DX2 analytically  !
 ! R74   R(61,74)                1.0157         calculate D2E/DX2 analytically  !
 ! R75   R(61,75)                1.0102         calculate D2E/DX2 analytically  !
 ! A1    A(2,1,9)              109.1697         calculate D2E/DX2 analytically  !
 ! A2    A(2,1,15)             113.8878         calculate D2E/DX2 analytically  !
 ! A3    A(2,1,16)             108.8133         calculate D2E/DX2 analytically  !
 ! A4    A(9,1,15)             108.9038         calculate D2E/DX2 analytically  !
 ! A5    A(9,1,16)             106.8757         calculate D2E/DX2 analytically  !
 ! A6    A(15,1,16)            108.9578         calculate D2E/DX2 analytically  !
 ! A7    A(1,2,3)              110.3701         calculate D2E/DX2 analytically  !
 ! A8    A(1,2,5)              112.0832         calculate D2E/DX2 analytically  !
 ! A9    A(1,2,10)             108.0659         calculate D2E/DX2 analytically  !
 ! A10   A(3,2,5)              114.1724         calculate D2E/DX2 analytically  !
 ! A11   A(3,2,10)             103.92           calculate D2E/DX2 analytically  !
 ! A12   A(5,2,10)             107.6978         calculate D2E/DX2 analytically  !
 ! A13   A(2,3,4)              117.9697         calculate D2E/DX2 analytically  !
 ! A14   A(2,3,17)             118.8861         calculate D2E/DX2 analytically  !
 ! A15   A(4,3,17)             123.1369         calculate D2E/DX2 analytically  !
 ! A16   A(2,5,6)              110.2035         calculate D2E/DX2 analytically  !
 ! A17   A(2,5,11)             112.7278         calculate D2E/DX2 analytically  !
 ! A18   A(2,5,12)             108.4195         calculate D2E/DX2 analytically  !
 ! A19   A(6,5,11)             110.3667         calculate D2E/DX2 analytically  !
 ! A20   A(6,5,12)             105.6938         calculate D2E/DX2 analytically  !
 ! A21   A(11,5,12)            109.1617         calculate D2E/DX2 analytically  !
 ! A22   A(5,6,7)              114.2722         calculate D2E/DX2 analytically  !
 ! A23   A(5,6,8)              121.6014         calculate D2E/DX2 analytically  !
 ! A24   A(7,6,8)              124.0839         calculate D2E/DX2 analytically  !
 ! A25   A(6,7,13)             116.6223         calculate D2E/DX2 analytically  !
 ! A26   A(6,7,14)             117.4028         calculate D2E/DX2 analytically  !
 ! A27   A(13,7,14)            119.6525         calculate D2E/DX2 analytically  !
 ! A28   A(3,17,18)            119.5718         calculate D2E/DX2 analytically  !
 ! A29   A(3,17,28)            120.8546         calculate D2E/DX2 analytically  !
 ! A30   A(18,17,28)           119.5729         calculate D2E/DX2 analytically  !
 ! A31   A(17,18,19)           113.8504         calculate D2E/DX2 analytically  !
 ! A32   A(17,18,21)           112.2209         calculate D2E/DX2 analytically  !
 ! A33   A(17,18,29)           104.6426         calculate D2E/DX2 analytically  !
 ! A34   A(19,18,21)           111.4165         calculate D2E/DX2 analytically  !
 ! A35   A(19,18,29)           106.7741         calculate D2E/DX2 analytically  !
 ! A36   A(21,18,29)           107.3352         calculate D2E/DX2 analytically  !
 ! A37   A(18,19,20)           121.7269         calculate D2E/DX2 analytically  !
 ! A38   A(18,19,37)           117.3554         calculate D2E/DX2 analytically  !
 ! A39   A(20,19,37)           120.9156         calculate D2E/DX2 analytically  !
 ! A40   A(18,21,22)           115.557          calculate D2E/DX2 analytically  !
 ! A41   A(18,21,30)           106.6431         calculate D2E/DX2 analytically  !
 ! A42   A(18,21,31)           106.8557         calculate D2E/DX2 analytically  !
 ! A43   A(22,21,30)           109.6064         calculate D2E/DX2 analytically  !
 ! A44   A(22,21,31)           110.8627         calculate D2E/DX2 analytically  !
 ! A45   A(30,21,31)           106.8898         calculate D2E/DX2 analytically  !
 ! A46   A(21,22,23)           121.7626         calculate D2E/DX2 analytically  !
 ! A47   A(21,22,24)           120.1367         calculate D2E/DX2 analytically  !
 ! A48   A(23,22,24)           118.1006         calculate D2E/DX2 analytically  !
 ! A49   A(22,23,25)           121.317          calculate D2E/DX2 analytically  !
 ! A50   A(22,23,32)           119.3465         calculate D2E/DX2 analytically  !
 ! A51   A(25,23,32)           119.3227         calculate D2E/DX2 analytically  !
 ! A52   A(22,24,26)           121.1392         calculate D2E/DX2 analytically  !
 ! A53   A(22,24,33)           118.9798         calculate D2E/DX2 analytically  !
 ! A54   A(26,24,33)           119.8325         calculate D2E/DX2 analytically  !
 ! A55   A(23,25,27)           119.964          calculate D2E/DX2 analytically  !
 ! A56   A(23,25,34)           119.5206         calculate D2E/DX2 analytically  !
 ! A57   A(27,25,34)           120.4909         calculate D2E/DX2 analytically  !
 ! A58   A(24,26,27)           120.1131         calculate D2E/DX2 analytically  !
 ! A59   A(24,26,35)           119.6265         calculate D2E/DX2 analytically  !
 ! A60   A(27,26,35)           120.2109         calculate D2E/DX2 analytically  !
 ! A61   A(25,27,26)           119.3556         calculate D2E/DX2 analytically  !
 ! A62   A(25,27,36)           120.2337         calculate D2E/DX2 analytically  !
 ! A63   A(26,27,36)           120.369          calculate D2E/DX2 analytically  !
 ! A64   A(19,37,38)           126.351          calculate D2E/DX2 analytically  !
 ! A65   A(19,37,45)           113.1784         calculate D2E/DX2 analytically  !
 ! A66   A(38,37,45)           114.9228         calculate D2E/DX2 analytically  !
 ! A67   A(37,38,39)           112.8319         calculate D2E/DX2 analytically  !
 ! A68   A(37,38,41)           111.7446         calculate D2E/DX2 analytically  !
 ! A69   A(37,38,46)           108.6846         calculate D2E/DX2 analytically  !
 ! A70   A(39,38,41)           109.2095         calculate D2E/DX2 analytically  !
 ! A71   A(39,38,46)           104.9442         calculate D2E/DX2 analytically  !
 ! A72   A(41,38,46)           109.1548         calculate D2E/DX2 analytically  !
 ! A73   A(38,39,40)           119.6012         calculate D2E/DX2 analytically  !
 ! A74   A(38,39,51)           115.8678         calculate D2E/DX2 analytically  !
 ! A75   A(40,39,51)           124.5031         calculate D2E/DX2 analytically  !
 ! A76   A(38,41,42)           113.3493         calculate D2E/DX2 analytically  !
 ! A77   A(38,41,47)           108.8828         calculate D2E/DX2 analytically  !
 ! A78   A(38,41,48)           109.49           calculate D2E/DX2 analytically  !
 ! A79   A(42,41,47)           106.634          calculate D2E/DX2 analytically  !
 ! A80   A(42,41,48)           110.3469         calculate D2E/DX2 analytically  !
 ! A81   A(47,41,48)           107.9574         calculate D2E/DX2 analytically  !
 ! A82   A(41,42,43)           115.5854         calculate D2E/DX2 analytically  !
 ! A83   A(41,42,44)           121.9372         calculate D2E/DX2 analytically  !
 ! A84   A(43,42,44)           122.4456         calculate D2E/DX2 analytically  !
 ! A85   A(42,43,49)           118.4843         calculate D2E/DX2 analytically  !
 ! A86   A(42,43,50)           121.6193         calculate D2E/DX2 analytically  !
 ! A87   A(49,43,50)           119.8815         calculate D2E/DX2 analytically  !
 ! A88   A(39,51,52)           119.5858         calculate D2E/DX2 analytically  !
 ! A89   A(39,51,63)           114.3542         calculate D2E/DX2 analytically  !
 ! A90   A(52,51,63)           115.7867         calculate D2E/DX2 analytically  !
 ! A91   A(51,52,53)           109.7769         calculate D2E/DX2 analytically  !
 ! A92   A(51,52,55)           114.1784         calculate D2E/DX2 analytically  !
 ! A93   A(51,52,64)           106.5082         calculate D2E/DX2 analytically  !
 ! A94   A(53,52,55)           110.0018         calculate D2E/DX2 analytically  !
 ! A95   A(53,52,64)           107.4211         calculate D2E/DX2 analytically  !
 ! A96   A(55,52,64)           108.6812         calculate D2E/DX2 analytically  !
 ! A97   A(52,53,54)           116.8529         calculate D2E/DX2 analytically  !
 ! A98   A(52,53,62)           113.5226         calculate D2E/DX2 analytically  !
 ! A99   A(54,53,62)           129.6115         calculate D2E/DX2 analytically  !
 ! A100  A(52,55,56)           117.5875         calculate D2E/DX2 analytically  !
 ! A101  A(52,55,65)           106.3995         calculate D2E/DX2 analytically  !
 ! A102  A(52,55,66)           107.3374         calculate D2E/DX2 analytically  !
 ! A103  A(56,55,65)           108.7579         calculate D2E/DX2 analytically  !
 ! A104  A(56,55,66)           109.7101         calculate D2E/DX2 analytically  !
 ! A105  A(65,55,66)           106.4808         calculate D2E/DX2 analytically  !
 ! A106  A(55,56,57)           115.2046         calculate D2E/DX2 analytically  !
 ! A107  A(55,56,67)           110.5852         calculate D2E/DX2 analytically  !
 ! A108  A(55,56,68)           106.9624         calculate D2E/DX2 analytically  !
 ! A109  A(57,56,67)           109.1459         calculate D2E/DX2 analytically  !
 ! A110  A(57,56,68)           108.286          calculate D2E/DX2 analytically  !
 ! A111  A(67,56,68)           106.2349         calculate D2E/DX2 analytically  !
 ! A112  A(56,57,58)           110.6956         calculate D2E/DX2 analytically  !
 ! A113  A(56,57,69)           110.6213         calculate D2E/DX2 analytically  !
 ! A114  A(56,57,70)           110.355          calculate D2E/DX2 analytically  !
 ! A115  A(58,57,69)           108.3793         calculate D2E/DX2 analytically  !
 ! A116  A(58,57,70)           109.9718         calculate D2E/DX2 analytically  !
 ! A117  A(69,57,70)           106.7202         calculate D2E/DX2 analytically  !
 ! A118  A(57,58,59)           124.0589         calculate D2E/DX2 analytically  !
 ! A119  A(57,58,71)           117.8815         calculate D2E/DX2 analytically  !
 ! A120  A(59,58,71)           117.9034         calculate D2E/DX2 analytically  !
 ! A121  A(58,59,60)           119.7396         calculate D2E/DX2 analytically  !
 ! A122  A(58,59,61)           120.834          calculate D2E/DX2 analytically  !
 ! A123  A(60,59,61)           119.3945         calculate D2E/DX2 analytically  !
 ! A124  A(59,60,72)           115.7134         calculate D2E/DX2 analytically  !
 ! A125  A(59,60,73)           118.3769         calculate D2E/DX2 analytically  !
 ! A126  A(72,60,73)           114.6057         calculate D2E/DX2 analytically  !
 ! A127  A(59,61,74)           113.5523         calculate D2E/DX2 analytically  !
 ! A128  A(59,61,75)           116.5092         calculate D2E/DX2 analytically  !
 ! A129  A(74,61,75)           112.5705         calculate D2E/DX2 analytically  !
 ! D1    D(9,1,2,3)           -137.2485         calculate D2E/DX2 analytically  !
 ! D2    D(9,1,2,5)             94.2874         calculate D2E/DX2 analytically  !
 ! D3    D(9,1,2,10)           -24.2294         calculate D2E/DX2 analytically  !
 ! D4    D(15,1,2,3)           -15.3039         calculate D2E/DX2 analytically  !
 ! D5    D(15,1,2,5)          -143.768          calculate D2E/DX2 analytically  !
 ! D6    D(15,1,2,10)           97.7152         calculate D2E/DX2 analytically  !
 ! D7    D(16,1,2,3)           106.4483         calculate D2E/DX2 analytically  !
 ! D8    D(16,1,2,5)           -22.0158         calculate D2E/DX2 analytically  !
 ! D9    D(16,1,2,10)         -140.5326         calculate D2E/DX2 analytically  !
 ! D10   D(1,2,3,4)             76.8282         calculate D2E/DX2 analytically  !
 ! D11   D(1,2,3,17)          -104.1195         calculate D2E/DX2 analytically  !
 ! D12   D(5,2,3,4)           -155.8544         calculate D2E/DX2 analytically  !
 ! D13   D(5,2,3,17)            23.1979         calculate D2E/DX2 analytically  !
 ! D14   D(10,2,3,4)           -38.8193         calculate D2E/DX2 analytically  !
 ! D15   D(10,2,3,17)          140.2331         calculate D2E/DX2 analytically  !
 ! D16   D(1,2,5,6)            -65.8547         calculate D2E/DX2 analytically  !
 ! D17   D(1,2,5,11)            57.9394         calculate D2E/DX2 analytically  !
 ! D18   D(1,2,5,12)           178.9091         calculate D2E/DX2 analytically  !
 ! D19   D(3,2,5,6)            167.715          calculate D2E/DX2 analytically  !
 ! D20   D(3,2,5,11)           -68.4909         calculate D2E/DX2 analytically  !
 ! D21   D(3,2,5,12)            52.4788         calculate D2E/DX2 analytically  !
 ! D22   D(10,2,5,6)            52.8797         calculate D2E/DX2 analytically  !
 ! D23   D(10,2,5,11)          176.6738         calculate D2E/DX2 analytically  !
 ! D24   D(10,2,5,12)          -62.3565         calculate D2E/DX2 analytically  !
 ! D25   D(2,3,17,18)         -163.989          calculate D2E/DX2 analytically  !
 ! D26   D(2,3,17,28)           16.3155         calculate D2E/DX2 analytically  !
 ! D27   D(4,3,17,18)           15.0114         calculate D2E/DX2 analytically  !
 ! D28   D(4,3,17,28)         -164.6841         calculate D2E/DX2 analytically  !
 ! D29   D(2,5,6,7)            127.732          calculate D2E/DX2 analytically  !
 ! D30   D(2,5,6,8)            -54.5456         calculate D2E/DX2 analytically  !
 ! D31   D(11,5,6,7)             2.5799         calculate D2E/DX2 analytically  !
 ! D32   D(11,5,6,8)          -179.6978         calculate D2E/DX2 analytically  !
 ! D33   D(12,5,6,7)          -115.3239         calculate D2E/DX2 analytically  !
 ! D34   D(12,5,6,8)            62.3985         calculate D2E/DX2 analytically  !
 ! D35   D(5,6,7,13)          -174.7652         calculate D2E/DX2 analytically  !
 ! D36   D(5,6,7,14)           -22.733          calculate D2E/DX2 analytically  !
 ! D37   D(8,6,7,13)             7.5771         calculate D2E/DX2 analytically  !
 ! D38   D(8,6,7,14)           159.6093         calculate D2E/DX2 analytically  !
 ! D39   D(3,17,18,19)        -128.7737         calculate D2E/DX2 analytically  !
 ! D40   D(3,17,18,21)         103.5012         calculate D2E/DX2 analytically  !
 ! D41   D(3,17,18,29)         -12.5647         calculate D2E/DX2 analytically  !
 ! D42   D(28,17,18,19)         50.9257         calculate D2E/DX2 analytically  !
 ! D43   D(28,17,18,21)        -76.7994         calculate D2E/DX2 analytically  !
 ! D44   D(28,17,18,29)        167.1347         calculate D2E/DX2 analytically  !
 ! D45   D(17,18,19,20)       -137.0284         calculate D2E/DX2 analytically  !
 ! D46   D(17,18,19,37)         42.457          calculate D2E/DX2 analytically  !
 ! D47   D(21,18,19,20)         -8.8901         calculate D2E/DX2 analytically  !
 ! D48   D(21,18,19,37)        170.5953         calculate D2E/DX2 analytically  !
 ! D49   D(29,18,19,20)        108.0148         calculate D2E/DX2 analytically  !
 ! D50   D(29,18,19,37)        -72.4998         calculate D2E/DX2 analytically  !
 ! D51   D(17,18,21,22)         66.2108         calculate D2E/DX2 analytically  !
 ! D52   D(17,18,21,30)       -171.7052         calculate D2E/DX2 analytically  !
 ! D53   D(17,18,21,31)        -57.6625         calculate D2E/DX2 analytically  !
 ! D54   D(19,18,21,22)        -62.7964         calculate D2E/DX2 analytically  !
 ! D55   D(19,18,21,30)         59.2876         calculate D2E/DX2 analytically  !
 ! D56   D(19,18,21,31)        173.3304         calculate D2E/DX2 analytically  !
 ! D57   D(29,18,21,22)       -179.3595         calculate D2E/DX2 analytically  !
 ! D58   D(29,18,21,30)        -57.2755         calculate D2E/DX2 analytically  !
 ! D59   D(29,18,21,31)         56.7672         calculate D2E/DX2 analytically  !
 ! D60   D(18,19,37,38)         28.5914         calculate D2E/DX2 analytically  !
 ! D61   D(18,19,37,45)       -179.2492         calculate D2E/DX2 analytically  !
 ! D62   D(20,19,37,38)       -151.9188         calculate D2E/DX2 analytically  !
 ! D63   D(20,19,37,45)          0.2406         calculate D2E/DX2 analytically  !
 ! D64   D(18,21,22,23)        -68.0932         calculate D2E/DX2 analytically  !
 ! D65   D(18,21,22,24)        111.8264         calculate D2E/DX2 analytically  !
 ! D66   D(30,21,22,23)        171.4193         calculate D2E/DX2 analytically  !
 ! D67   D(30,21,22,24)         -8.6611         calculate D2E/DX2 analytically  !
 ! D68   D(31,21,22,23)         53.6566         calculate D2E/DX2 analytically  !
 ! D69   D(31,21,22,24)       -126.4238         calculate D2E/DX2 analytically  !
 ! D70   D(21,22,23,25)        178.8574         calculate D2E/DX2 analytically  !
 ! D71   D(21,22,23,32)          0.216          calculate D2E/DX2 analytically  !
 ! D72   D(24,22,23,25)         -1.0638         calculate D2E/DX2 analytically  !
 ! D73   D(24,22,23,32)       -179.7051         calculate D2E/DX2 analytically  !
 ! D74   D(21,22,24,26)       -178.8355         calculate D2E/DX2 analytically  !
 ! D75   D(21,22,24,33)         -1.3751         calculate D2E/DX2 analytically  !
 ! D76   D(23,22,24,26)          1.087          calculate D2E/DX2 analytically  !
 ! D77   D(23,22,24,33)        178.5474         calculate D2E/DX2 analytically  !
 ! D78   D(22,23,25,27)          0.2895         calculate D2E/DX2 analytically  !
 ! D79   D(22,23,25,34)       -177.9215         calculate D2E/DX2 analytically  !
 ! D80   D(32,23,25,27)        178.9312         calculate D2E/DX2 analytically  !
 ! D81   D(32,23,25,34)          0.7202         calculate D2E/DX2 analytically  !
 ! D82   D(22,24,26,27)         -0.3389         calculate D2E/DX2 analytically  !
 ! D83   D(22,24,26,35)        177.1065         calculate D2E/DX2 analytically  !
 ! D84   D(33,24,26,27)       -177.778          calculate D2E/DX2 analytically  !
 ! D85   D(33,24,26,35)         -0.3325         calculate D2E/DX2 analytically  !
 ! D86   D(23,25,27,26)          0.485          calculate D2E/DX2 analytically  !
 ! D87   D(23,25,27,36)       -177.1747         calculate D2E/DX2 analytically  !
 ! D88   D(34,25,27,26)        178.6784         calculate D2E/DX2 analytically  !
 ! D89   D(34,25,27,36)          1.0188         calculate D2E/DX2 analytically  !
 ! D90   D(24,26,27,25)         -0.461          calculate D2E/DX2 analytically  !
 ! D91   D(24,26,27,36)        177.1955         calculate D2E/DX2 analytically  !
 ! D92   D(35,26,27,25)       -177.8914         calculate D2E/DX2 analytically  !
 ! D93   D(35,26,27,36)         -0.235          calculate D2E/DX2 analytically  !
 ! D94   D(19,37,38,39)       -112.8898         calculate D2E/DX2 analytically  !
 ! D95   D(19,37,38,41)        123.5876         calculate D2E/DX2 analytically  !
 ! D96   D(19,37,38,46)          3.0705         calculate D2E/DX2 analytically  !
 ! D97   D(45,37,38,39)         95.3656         calculate D2E/DX2 analytically  !
 ! D98   D(45,37,38,41)        -28.157          calculate D2E/DX2 analytically  !
 ! D99   D(45,37,38,46)       -148.6741         calculate D2E/DX2 analytically  !
 ! D100  D(37,38,39,40)        165.2015         calculate D2E/DX2 analytically  !
 ! D101  D(37,38,39,51)        -16.6322         calculate D2E/DX2 analytically  !
 ! D102  D(41,38,39,40)        -69.8837         calculate D2E/DX2 analytically  !
 ! D103  D(41,38,39,51)        108.2825         calculate D2E/DX2 analytically  !
 ! D104  D(46,38,39,40)         47.0287         calculate D2E/DX2 analytically  !
 ! D105  D(46,38,39,51)       -134.8051         calculate D2E/DX2 analytically  !
 ! D106  D(37,38,41,42)         57.124          calculate D2E/DX2 analytically  !
 ! D107  D(37,38,41,47)        -61.3774         calculate D2E/DX2 analytically  !
 ! D108  D(37,38,41,48)       -179.1982         calculate D2E/DX2 analytically  !
 ! D109  D(39,38,41,42)        -68.4219         calculate D2E/DX2 analytically  !
 ! D110  D(39,38,41,47)        173.0767         calculate D2E/DX2 analytically  !
 ! D111  D(39,38,41,48)         55.2559         calculate D2E/DX2 analytically  !
 ! D112  D(46,38,41,42)        177.3661         calculate D2E/DX2 analytically  !
 ! D113  D(46,38,41,47)         58.8647         calculate D2E/DX2 analytically  !
 ! D114  D(46,38,41,48)        -58.9561         calculate D2E/DX2 analytically  !
 ! D115  D(38,39,51,52)        162.1753         calculate D2E/DX2 analytically  !
 ! D116  D(38,39,51,63)         18.4583         calculate D2E/DX2 analytically  !
 ! D117  D(40,39,51,52)        -19.7595         calculate D2E/DX2 analytically  !
 ! D118  D(40,39,51,63)       -163.4765         calculate D2E/DX2 analytically  !
 ! D119  D(38,41,42,43)        140.1518         calculate D2E/DX2 analytically  !
 ! D120  D(38,41,42,44)        -41.8524         calculate D2E/DX2 analytically  !
 ! D121  D(47,41,42,43)       -100.0552         calculate D2E/DX2 analytically  !
 ! D122  D(47,41,42,44)         77.9406         calculate D2E/DX2 analytically  !
 ! D123  D(48,41,42,43)         16.9442         calculate D2E/DX2 analytically  !
 ! D124  D(48,41,42,44)       -165.06           calculate D2E/DX2 analytically  !
 ! D125  D(41,42,43,49)        178.3151         calculate D2E/DX2 analytically  !
 ! D126  D(41,42,43,50)         -0.2814         calculate D2E/DX2 analytically  !
 ! D127  D(44,42,43,49)          0.3305         calculate D2E/DX2 analytically  !
 ! D128  D(44,42,43,50)       -178.266          calculate D2E/DX2 analytically  !
 ! D129  D(39,51,52,53)        -91.1962         calculate D2E/DX2 analytically  !
 ! D130  D(39,51,52,55)        144.7566         calculate D2E/DX2 analytically  !
 ! D131  D(39,51,52,64)         24.8057         calculate D2E/DX2 analytically  !
 ! D132  D(63,51,52,53)         52.0243         calculate D2E/DX2 analytically  !
 ! D133  D(63,51,52,55)        -72.0228         calculate D2E/DX2 analytically  !
 ! D134  D(63,51,52,64)        168.0262         calculate D2E/DX2 analytically  !
 ! D135  D(51,52,53,54)        -36.788          calculate D2E/DX2 analytically  !
 ! D136  D(51,52,53,62)        144.3962         calculate D2E/DX2 analytically  !
 ! D137  D(55,52,53,54)         89.6587         calculate D2E/DX2 analytically  !
 ! D138  D(55,52,53,62)        -89.1571         calculate D2E/DX2 analytically  !
 ! D139  D(64,52,53,54)       -152.2116         calculate D2E/DX2 analytically  !
 ! D140  D(64,52,53,62)         28.9726         calculate D2E/DX2 analytically  !
 ! D141  D(51,52,55,56)         66.6563         calculate D2E/DX2 analytically  !
 ! D142  D(51,52,55,65)       -171.204          calculate D2E/DX2 analytically  !
 ! D143  D(51,52,55,66)        -57.5209         calculate D2E/DX2 analytically  !
 ! D144  D(53,52,55,56)        -57.2702         calculate D2E/DX2 analytically  !
 ! D145  D(53,52,55,65)         64.8695         calculate D2E/DX2 analytically  !
 ! D146  D(53,52,55,66)        178.5526         calculate D2E/DX2 analytically  !
 ! D147  D(64,52,55,56)       -174.619          calculate D2E/DX2 analytically  !
 ! D148  D(64,52,55,65)        -52.4793         calculate D2E/DX2 analytically  !
 ! D149  D(64,52,55,66)         61.2038         calculate D2E/DX2 analytically  !
 ! D150  D(52,55,56,57)        -62.5136         calculate D2E/DX2 analytically  !
 ! D151  D(52,55,56,67)         61.818          calculate D2E/DX2 analytically  !
 ! D152  D(52,55,56,68)        177.0816         calculate D2E/DX2 analytically  !
 ! D153  D(65,55,56,57)        176.5646         calculate D2E/DX2 analytically  !
 ! D154  D(65,55,56,67)        -59.1039         calculate D2E/DX2 analytically  !
 ! D155  D(65,55,56,68)         56.1598         calculate D2E/DX2 analytically  !
 ! D156  D(66,55,56,57)         60.466          calculate D2E/DX2 analytically  !
 ! D157  D(66,55,56,67)       -175.2025         calculate D2E/DX2 analytically  !
 ! D158  D(66,55,56,68)        -59.9389         calculate D2E/DX2 analytically  !
 ! D159  D(55,56,57,58)         96.2041         calculate D2E/DX2 analytically  !
 ! D160  D(55,56,57,69)       -143.6443         calculate D2E/DX2 analytically  !
 ! D161  D(55,56,57,70)        -25.7739         calculate D2E/DX2 analytically  !
 ! D162  D(67,56,57,58)        -28.8783         calculate D2E/DX2 analytically  !
 ! D163  D(67,56,57,69)         91.2733         calculate D2E/DX2 analytically  !
 ! D164  D(67,56,57,70)       -150.8563         calculate D2E/DX2 analytically  !
 ! D165  D(68,56,57,58)       -144.1182         calculate D2E/DX2 analytically  !
 ! D166  D(68,56,57,69)        -23.9666         calculate D2E/DX2 analytically  !
 ! D167  D(68,56,57,70)         93.9038         calculate D2E/DX2 analytically  !
 ! D168  D(56,57,58,59)       -179.735          calculate D2E/DX2 analytically  !
 ! D169  D(56,57,58,71)         -4.382          calculate D2E/DX2 analytically  !
 ! D170  D(69,57,58,59)         58.7825         calculate D2E/DX2 analytically  !
 ! D171  D(69,57,58,71)       -125.8646         calculate D2E/DX2 analytically  !
 ! D172  D(70,57,58,59)        -57.5326         calculate D2E/DX2 analytically  !
 ! D173  D(70,57,58,71)        117.8204         calculate D2E/DX2 analytically  !
 ! D174  D(57,58,59,60)         16.9901         calculate D2E/DX2 analytically  !
 ! D175  D(57,58,59,61)       -160.9432         calculate D2E/DX2 analytically  !
 ! D176  D(71,58,59,60)       -158.362          calculate D2E/DX2 analytically  !
 ! D177  D(71,58,59,61)         23.7048         calculate D2E/DX2 analytically  !
 ! D178  D(58,59,60,72)        178.3834         calculate D2E/DX2 analytically  !
 ! D179  D(58,59,60,73)         36.6282         calculate D2E/DX2 analytically  !
 ! D180  D(61,59,60,72)         -3.6534         calculate D2E/DX2 analytically  !
 ! D181  D(61,59,60,73)       -145.4086         calculate D2E/DX2 analytically  !
 ! D182  D(58,59,61,74)       -138.0586         calculate D2E/DX2 analytically  !
 ! D183  D(58,59,61,75)         -4.7985         calculate D2E/DX2 analytically  !
 ! D184  D(60,59,61,74)         44.0011         calculate D2E/DX2 analytically  !
 ! D185  D(60,59,61,75)        177.2612         calculate D2E/DX2 analytically  !
 --------------------------------------------------------------------------------
 Trust Radius=3.00D-01 FncErr=1.00D-07 GrdErr=1.00D-06 EigMax=2.50D+02 EigMin=1.00D-04
 Number of steps in this run=    399 maximum allowed number of steps=    450.
 GradGradGradGradGradGradGradGradGradGradGradGradGradGradGradGradGradGrad

 Symmetry turned off by external request.
 Stoichiometry    C23H36N9O7(1+)
 Framework group  C1[X(C23H36N9O7)]
 Deg. of freedom   219
 Full point group                 C1      NOp   1
                          Input orientation:                          
 ---------------------------------------------------------------------
 Center     Atomic      Atomic             Coordinates (Angstroms)
 Number     Number       Type             X           Y           Z
 ---------------------------------------------------------------------
      1          7           0       -6.241492   -0.323559  -11.066989
      2          6           0       -5.467851   -1.485118  -10.586468
      3          6           0       -6.412899   -2.569669  -10.042060
      4          8           0       -7.018609   -3.269750  -10.855373
      5          6           0       -4.362631   -1.077041   -9.618772
      6          6           0       -3.321159   -0.245554  -10.335536
      7          7           0       -3.039929    0.937331   -9.732509
      8          8           0       -2.765257   -0.647926  -11.344019
      9          1           0       -5.848981   -0.002827  -11.954757
     10          1           0       -4.994882   -1.958171  -11.450538
     11          1           0       -4.735534   -0.550681   -8.762052
     12          1           0       -3.843446   -1.979442   -9.287282
     13          1           0       -2.413063    1.554547  -10.220834
     14          1           0       -3.740974    1.322851   -9.114817
     15          1           0       -7.243104   -0.514964  -11.195540
     16          1           0       -6.131602    0.452669  -10.392191
     17          7           0       -6.527164   -2.725275   -8.700270
     18          6           0       -7.122551   -3.940548   -8.166592
     19          6           0       -8.243945   -3.687719   -7.151984
     20          8           0       -8.333376   -4.334591   -6.117344
     21          6           0       -6.065211   -4.909491   -7.606164
     22          6           0       -5.321509   -4.426393   -6.389390
     23          6           0       -4.431111   -3.359910   -6.451170
     24          6           0       -5.515824   -5.047326   -5.159889
     25          6           0       -3.766596   -2.906156   -5.316477
     26          6           0       -4.858531   -4.603350   -4.018679
     27          6           0       -3.982596   -3.524727   -4.092642
     28          1           0       -6.207687   -2.004709   -8.064942
     29          1           0       -7.581956   -4.424468   -9.029477
     30          1           0       -6.586789   -5.840030   -7.371453
     31          1           0       -5.372445   -5.130849   -8.423997
     32          1           0       -4.267633   -2.857071   -7.400240
     33          1           0       -6.227725   -5.868446   -5.090151
     34          1           0       -3.105510   -2.052265   -5.391220
     35          1           0       -5.064055   -5.075919   -3.062585
     36          1           0       -3.501792   -3.145669   -3.196145
     37          7           0       -9.135748   -2.704982   -7.439626
     38          6           0       -9.525101   -2.263156   -8.754642
     39          6           0       -9.063649   -0.839270   -9.062572
     40          8           0       -9.081002   -0.434110  -10.218896
     41          6           0      -11.043051   -2.357511   -8.959858
     42          6           0      -11.839578   -1.570089   -7.933279
     43          7           0      -12.916672   -0.912492   -8.410971
     44          8           0      -11.540831   -1.567009   -6.743281
     45          1           0       -9.837870   -2.584624   -6.725605
     46          1           0       -9.025498   -2.886055   -9.493786
     47          1           0      -11.348737   -3.399887   -8.859663
     48          1           0      -11.294874   -2.028846   -9.968348
     49          1           0      -13.489639   -0.398593   -7.765145
     50          1           0      -13.163750   -0.944298   -9.381433
     51          7           0       -8.693944   -0.096351   -7.997178
     52          6           0       -7.896760    1.086780   -8.197271
     53          6           0       -6.390696    0.726441   -8.106559
     54          8           0       -6.071562   -0.128194   -7.277379
     55          6           0       -8.218349    2.224289   -7.239287
     56          6           0       -7.897184    2.014918   -5.756032
     57          6           0       -8.660891    0.874147   -5.078294
     58          7           0       -7.849423   -0.357293   -5.059219
     59          6           0       -8.259080   -1.513321   -4.536860
     60          7           0       -9.567960   -1.711478   -4.299234
     61          7           0       -7.374302   -2.472626   -4.204476
     62          8           0       -5.677035    1.378951   -8.886086
     63          1           0       -8.485194   -0.627801   -7.176405
     64          1           0       -8.090556    1.421569   -9.212599
     65          1           0       -7.664066    3.098903   -7.600037
     66          1           0       -9.280691    2.459600   -7.357300
     67          1           0       -6.826047    1.863071   -5.613104
     68          1           0       -8.145242    2.947530   -5.241067
     69          1           0       -8.911160    1.137268   -4.049241
     70          1           0       -9.605842    0.690292   -5.594331
     71          1           0       -6.953536   -0.341594   -5.531618
     72          1           0       -9.813142   -2.616540   -3.927183
     73          1           0      -10.242602   -1.326769   -4.956896
     74          1           0       -7.674294   -3.408226   -4.461855
     75          1           0       -6.408076   -2.296428   -4.441023
 ---------------------------------------------------------------------
 Rotational constants (GHZ):           0.1116830           0.0986574           0.0787359
 Standard basis: 6-31G(d) (6D, 7F)
   657 basis functions,  1236 primitive gaussians,   657 cartesian basis functions
   146 alpha electrons      146 beta electrons
       nuclear repulsion energy      5297.1091967978 Hartrees.
 NAtoms=   75 NActive=   75 NUniq=   75 SFac= 1.00D+00 NAtFMM=   60 NAOKFM=T Big=T
 Integral buffers will be    131072 words long.
 Raffenetti 2 integral format.
 Two-electron integral symmetry is turned off.
 Nuclear repulsion after empirical dispersion term =     5296.9783982948 Hartrees.
 One-electron integrals computed using PRISM.
 NBasis=   657 RedAO= T EigKep=  4.18D-04  NBF=   657
 NBsUse=   657 1.00D-06 EigRej= -1.00D+00 NBFU=   657
 ExpMin= 1.61D-01 ExpMax= 5.48D+03 ExpMxC= 8.25D+02 IAcc=3 IRadAn=         5 AccDes= 0.00D+00
 Harris functional with IExCor=  402 and IRadAn=       5 diagonalized for initial guess.
 HarFok:  IExCor=  402 AccDes= 0.00D+00 IRadAn=         5 IDoV= 1 UseB2=F ITyADJ=14
 ICtDFT=  3500011 ScaDFX=  1.000000  1.000000  1.000000  1.000000
 FoFCou: FMM=F IPFlag=           0 FMFlag=      100000 FMFlg1=        2001
         NFxFlg=           0 DoJE=T BraDBF=F KetDBF=T FulRan=T
         wScrn=  0.000000 ICntrl=       500 IOpCl=  0 I1Cent=   200000004 NGrid=           0
         NMat0=    1 NMatS0=      1 NMatT0=    0 NMatD0=    1 NMtDS0=    0 NMtDT0=    0
 Symmetry not used in FoFCou.
 Requested convergence on RMS density matrix=1.00D-08 within 128 cycles.
 Requested convergence on MAX density matrix=1.00D-06.
 Requested convergence on             energy=1.00D-06.
 No special actions if energy rises.
 Integral accuracy reduced to 1.0D-05 until final iterations.
 Initial convergence to 1.0D-05 achieved.  Increase integral accuracy.
 SCF Done:  E(RB3LYP) =  -1917.50253874     A.U. after   15 cycles
            NFock= 15  Conv=0.80D-08     -V/T= 2.0087
 DoSCS=F DFT=T ScalE2(SS,OS)=  1.000000  1.000000
 Range of M.O.s used for correlation:     1   657
 NBasis=   657 NAE=   146 NBE=   146 NFC=     0 NFV=     0
 NROrb=    657 NOA=   146 NOB=   146 NVA=   511 NVB=   511
 Symmetrizing basis deriv contribution to polar:
 IMax=3 JMax=2 DiffMx= 0.00D+00
 G2DrvN: will do    76 centers at a time, making    1 passes.
 Calling FoFCou, ICntrl=  3107 FMM=T I1Cent=   0 AccDes= 0.00D+00.
 End of G2Drv F.D. properties file   721 does not exist.
 End of G2Drv F.D. properties file   722 does not exist.
 End of G2Drv F.D. properties file   788 does not exist.
          IDoAtm=11111111111111111111111111111111111111111111111111
          IDoAtm=1111111111111111111111111
          Differentiating once with respect to nuclear coordinates.
 CalDSu exits because no D1Ps are significant.
          There are   228 degrees of freedom in the 1st order CPHF.  IDoFFX=6 NUNeed=     0.
    222 vectors produced by pass  0 Test12= 7.46D-14 1.00D-09 XBig12= 1.91D-01 8.67D-02.
 AX will form    72 AO Fock derivatives at one time.
    222 vectors produced by pass  1 Test12= 7.46D-14 1.00D-09 XBig12= 2.83D-02 2.36D-02.
    222 vectors produced by pass  2 Test12= 7.46D-14 1.00D-09 XBig12= 2.16D-04 1.15D-03.
    222 vectors produced by pass  3 Test12= 7.46D-14 1.00D-09 XBig12= 8.08D-07 8.85D-05.
    222 vectors produced by pass  4 Test12= 7.46D-14 1.00D-09 XBig12= 1.15D-09 3.22D-06.
    178 vectors produced by pass  5 Test12= 7.46D-14 1.00D-09 XBig12= 1.05D-12 8.05D-08.
     10 vectors produced by pass  6 Test12= 7.46D-14 1.00D-09 XBig12= 9.48D-16 2.15D-09.
 InvSVY:  IOpt=1 It=  1 EMax= 6.11D-16
 Solved reduced A of dimension  1298 with   228 vectors.
 End of Minotr F.D. properties file   721 does not exist.
 End of Minotr F.D. properties file   722 does not exist.
 End of Minotr F.D. properties file   788 does not exist.

 **********************************************************************

            Population analysis using the SCF Density.

 **********************************************************************

 Alpha  occ. eigenvalues --  -19.24797 -19.24475 -19.24004 -19.23843 -19.22388
 Alpha  occ. eigenvalues --  -19.21778 -19.19286 -14.56735 -14.50463 -14.50356
 Alpha  occ. eigenvalues --  -14.49104 -14.48217 -14.48182 -14.47801 -14.47161
 Alpha  occ. eigenvalues --  -14.42471 -10.46361 -10.42152 -10.41454 -10.41311
 Alpha  occ. eigenvalues --  -10.40563 -10.39122 -10.37140 -10.36892 -10.35912
 Alpha  occ. eigenvalues --  -10.35062 -10.34810 -10.32369 -10.32280 -10.30244
 Alpha  occ. eigenvalues --  -10.29423 -10.29147 -10.29050 -10.28949 -10.28207
 Alpha  occ. eigenvalues --  -10.28124 -10.28035 -10.27980 -10.27777  -1.17442
 Alpha  occ. eigenvalues --   -1.17001  -1.16668  -1.16101  -1.15990  -1.15428
 Alpha  occ. eigenvalues --   -1.12629  -1.11334  -1.08114  -1.06552  -1.05086
 Alpha  occ. eigenvalues --   -1.04704  -1.03894  -1.03427  -1.03292  -0.98161
 Alpha  occ. eigenvalues --   -0.95456  -0.91866  -0.91303  -0.90551  -0.88651
 Alpha  occ. eigenvalues --   -0.86048  -0.84185  -0.83841  -0.81277  -0.79850
 Alpha  occ. eigenvalues --   -0.78581  -0.77146  -0.76934  -0.72970  -0.72616
 Alpha  occ. eigenvalues --   -0.71958  -0.71289  -0.70874  -0.70591  -0.70482
 Alpha  occ. eigenvalues --   -0.70289  -0.69686  -0.68102  -0.67754  -0.67298
 Alpha  occ. eigenvalues --   -0.66765  -0.66067  -0.65177  -0.64190  -0.63341
 Alpha  occ. eigenvalues --   -0.62876  -0.62403  -0.61630  -0.61028  -0.60625
 Alpha  occ. eigenvalues --   -0.59927  -0.59401  -0.58766  -0.58508  -0.57814
 Alpha  occ. eigenvalues --   -0.57680  -0.56991  -0.56557  -0.56049  -0.55585
 Alpha  occ. eigenvalues --   -0.55144  -0.54633  -0.54360  -0.53907  -0.53667
 Alpha  occ. eigenvalues --   -0.53345  -0.53057  -0.52777  -0.52502  -0.51916
 Alpha  occ. eigenvalues --   -0.51787  -0.51482  -0.51108  -0.50974  -0.50534
 Alpha  occ. eigenvalues --   -0.49592  -0.49098  -0.48847  -0.48670  -0.48105
 Alpha  occ. eigenvalues --   -0.47781  -0.47070  -0.46126  -0.45934  -0.45627
 Alpha  occ. eigenvalues --   -0.45303  -0.44734  -0.43344  -0.43067  -0.42340
 Alpha  occ. eigenvalues --   -0.41381  -0.40140  -0.39807  -0.39357  -0.39184
 Alpha  occ. eigenvalues --   -0.38766  -0.38591  -0.37659  -0.37235  -0.36798
 Alpha  occ. eigenvalues --   -0.36137  -0.34942  -0.34503  -0.33875  -0.33728
 Alpha  occ. eigenvalues --   -0.33031
 Alpha virt. eigenvalues --   -0.12807  -0.12045  -0.11379  -0.10893  -0.10022
 Alpha virt. eigenvalues --   -0.09618  -0.09136  -0.07693  -0.06262  -0.05389
 Alpha virt. eigenvalues --   -0.05021  -0.03412  -0.01899  -0.01134  -0.00700
 Alpha virt. eigenvalues --   -0.00347   0.00309   0.00421   0.00803   0.01190
 Alpha virt. eigenvalues --    0.02204   0.02569   0.03109   0.03227   0.03757
 Alpha virt. eigenvalues --    0.03860   0.03963   0.04150   0.04619   0.05058
 Alpha virt. eigenvalues --    0.05414   0.05742   0.06368   0.06436   0.06874
 Alpha virt. eigenvalues --    0.07357   0.07434   0.07799   0.08071   0.08401
 Alpha virt. eigenvalues --    0.08682   0.08848   0.09292   0.09380   0.10009
 Alpha virt. eigenvalues --    0.10422   0.10642   0.11036   0.11694   0.12093
 Alpha virt. eigenvalues --    0.12924   0.13068   0.13834   0.14099   0.14957
 Alpha virt. eigenvalues --    0.15131   0.15458   0.15766   0.16121   0.16744
 Alpha virt. eigenvalues --    0.17180   0.17605   0.18191   0.18780   0.19984
 Alpha virt. eigenvalues --    0.20647   0.22046   0.22955   0.23611   0.23663
 Alpha virt. eigenvalues --    0.24268   0.24666   0.25696   0.25820   0.26286
 Alpha virt. eigenvalues --    0.26558   0.27539   0.28768   0.29887   0.30807
 Alpha virt. eigenvalues --    0.31812   0.33477   0.35297   0.35902   0.36757
 Alpha virt. eigenvalues --    0.37397   0.37669   0.38739   0.39688   0.40513
 Alpha virt. eigenvalues --    0.40975   0.41344   0.42143   0.42298   0.42512
 Alpha virt. eigenvalues --    0.42849   0.43316   0.43969   0.45183   0.46181
 Alpha virt. eigenvalues --    0.46233   0.46459   0.46850   0.47293   0.47546
 Alpha virt. eigenvalues --    0.47837   0.48426   0.48772   0.49052   0.49555
 Alpha virt. eigenvalues --    0.49976   0.50238   0.50855   0.51076   0.51668
 Alpha virt. eigenvalues --    0.52177   0.52400   0.52581   0.53195   0.53484
 Alpha virt. eigenvalues --    0.53774   0.54201   0.54448   0.55122   0.55303
 Alpha virt. eigenvalues --    0.55483   0.55722   0.56274   0.56553   0.56963
 Alpha virt. eigenvalues --    0.57230   0.57752   0.58272   0.58973   0.59541
 Alpha virt. eigenvalues --    0.60608   0.60972   0.61318   0.61538   0.61979
 Alpha virt. eigenvalues --    0.63344   0.63638   0.64288   0.64332   0.65472
 Alpha virt. eigenvalues --    0.66257   0.66505   0.67336   0.67902   0.68128
 Alpha virt. eigenvalues --    0.69172   0.69400   0.69560   0.70141   0.70587
 Alpha virt. eigenvalues --    0.71130   0.71531   0.71751   0.72503   0.73499
 Alpha virt. eigenvalues --    0.73744   0.74219   0.74734   0.75003   0.75174
 Alpha virt. eigenvalues --    0.75426   0.75842   0.76087   0.76274   0.76832
 Alpha virt. eigenvalues --    0.77319   0.77448   0.77733   0.78059   0.78484
 Alpha virt. eigenvalues --    0.79032   0.79098   0.79736   0.80450   0.80931
 Alpha virt. eigenvalues --    0.81307   0.81530   0.81603   0.81855   0.82314
 Alpha virt. eigenvalues --    0.82642   0.83504   0.83709   0.84132   0.84409
 Alpha virt. eigenvalues --    0.84613   0.85185   0.85768   0.86127   0.86933
 Alpha virt. eigenvalues --    0.87518   0.87596   0.88230   0.88518   0.89388
 Alpha virt. eigenvalues --    0.90168   0.90552   0.91354   0.91818   0.92116
 Alpha virt. eigenvalues --    0.92585   0.93785   0.94815   0.95085   0.95627
 Alpha virt. eigenvalues --    0.95993   0.96936   0.97535   0.98069   0.98651
 Alpha virt. eigenvalues --    0.99295   1.00071   1.01584   1.01804   1.02209
 Alpha virt. eigenvalues --    1.02451   1.03577   1.04082   1.04975   1.05393
 Alpha virt. eigenvalues --    1.05974   1.06699   1.07559   1.08397   1.08623
 Alpha virt. eigenvalues --    1.09103   1.09876   1.10245   1.11489   1.11872
 Alpha virt. eigenvalues --    1.12623   1.12920   1.13997   1.14837   1.15332
 Alpha virt. eigenvalues --    1.16614   1.16951   1.17740   1.18843   1.19180
 Alpha virt. eigenvalues --    1.19968   1.20579   1.22332   1.23298   1.24169
 Alpha virt. eigenvalues --    1.24934   1.25068   1.25723   1.27101   1.27318
 Alpha virt. eigenvalues --    1.28798   1.29225   1.29543   1.30379   1.31526
 Alpha virt. eigenvalues --    1.32172   1.33065   1.33462   1.33850   1.34687
 Alpha virt. eigenvalues --    1.35811   1.36558   1.36966   1.37659   1.38332
 Alpha virt. eigenvalues --    1.39063   1.39549   1.39878   1.41453   1.42722
 Alpha virt. eigenvalues --    1.43041   1.43532   1.44562   1.45813   1.46890
 Alpha virt. eigenvalues --    1.47773   1.49078   1.49435   1.50737   1.51924
 Alpha virt. eigenvalues --    1.52514   1.52971   1.54196   1.54601   1.56467
 Alpha virt. eigenvalues --    1.56736   1.57544   1.58998   1.59826   1.60422
 Alpha virt. eigenvalues --    1.60862   1.61874   1.63038   1.63731   1.64600
 Alpha virt. eigenvalues --    1.64867   1.65362   1.65792   1.66641   1.67159
 Alpha virt. eigenvalues --    1.67793   1.68990   1.69324   1.69399   1.70567
 Alpha virt. eigenvalues --    1.71066   1.71362   1.71789   1.71919   1.72861
 Alpha virt. eigenvalues --    1.73156   1.73977   1.74505   1.75094   1.75430
 Alpha virt. eigenvalues --    1.76042   1.76961   1.77087   1.77915   1.78565
 Alpha virt. eigenvalues --    1.78953   1.79155   1.79976   1.80200   1.80793
 Alpha virt. eigenvalues --    1.81192   1.81554   1.82222   1.82589   1.83517
 Alpha virt. eigenvalues --    1.83649   1.84889   1.84996   1.85622   1.86379
 Alpha virt. eigenvalues --    1.86959   1.88243   1.88364   1.88982   1.89880
 Alpha virt. eigenvalues --    1.90572   1.91153   1.91693   1.92283   1.92676
 Alpha virt. eigenvalues --    1.93509   1.94127   1.94483   1.95269   1.95574
 Alpha virt. eigenvalues --    1.97291   1.97933   1.98444   1.99292   1.99931
 Alpha virt. eigenvalues --    2.00196   2.00460   2.01698   2.02177   2.02632
 Alpha virt. eigenvalues --    2.04144   2.04433   2.05761   2.06303   2.06595
 Alpha virt. eigenvalues --    2.08188   2.08273   2.08599   2.09168   2.09963
 Alpha virt. eigenvalues --    2.12196   2.12931   2.12991   2.13776   2.14492
 Alpha virt. eigenvalues --    2.14668   2.15687   2.16241   2.17567   2.18170
 Alpha virt. eigenvalues --    2.19578   2.19609   2.20580   2.21536   2.21775
 Alpha virt. eigenvalues --    2.21982   2.23009   2.23962   2.24614   2.25363
 Alpha virt. eigenvalues --    2.25922   2.26581   2.26893   2.27210   2.29559
 Alpha virt. eigenvalues --    2.29762   2.31773   2.33072   2.33467   2.35092
 Alpha virt. eigenvalues --    2.35549   2.35678   2.38028   2.38747   2.39018
 Alpha virt. eigenvalues --    2.39655   2.42198   2.42554   2.43601   2.45081
 Alpha virt. eigenvalues --    2.45513   2.46705   2.46831   2.48003   2.48972
 Alpha virt. eigenvalues --    2.49196   2.50018   2.50313   2.50710   2.52678
 Alpha virt. eigenvalues --    2.52919   2.53555   2.54057   2.55408   2.55757
 Alpha virt. eigenvalues --    2.56680   2.57021   2.58093   2.59034   2.59910
 Alpha virt. eigenvalues --    2.60510   2.61416   2.62953   2.64661   2.65470
 Alpha virt. eigenvalues --    2.65897   2.66823   2.66928   2.68649   2.68963
 Alpha virt. eigenvalues --    2.70047   2.71187   2.71918   2.76446   2.77161
 Alpha virt. eigenvalues --    2.80432   2.82305   2.84228   2.84650   2.87180
 Alpha virt. eigenvalues --    2.88152   2.89779   2.91405   2.92051   2.93466
 Alpha virt. eigenvalues --    2.94634   2.94995   2.95611   2.97003   2.97986
 Alpha virt. eigenvalues --    2.98700   3.00119   3.02901   3.05103   3.09427
 Alpha virt. eigenvalues --    3.11212   3.33918   3.69093   3.73931   3.74678
 Alpha virt. eigenvalues --    3.80417   3.80803   3.89065   3.90749   3.96491
 Alpha virt. eigenvalues --    3.99609   4.03003   4.04414   4.05342   4.06024
 Alpha virt. eigenvalues --    4.07247   4.10171   4.11648   4.12329   4.13408
 Alpha virt. eigenvalues --    4.13971   4.16944   4.18969   4.22662   4.23989
 Alpha virt. eigenvalues --    4.24891   4.27145   4.30039   4.33290   4.36648
 Alpha virt. eigenvalues --    4.40331   4.41367   4.44319   4.45905   4.48945
 Alpha virt. eigenvalues --    4.55646   4.60533   4.63405   4.64209   4.69319
 Alpha virt. eigenvalues --    4.72234
          Condensed to atoms (all electrons):
 Mulliken charges:
               1
     1  N   -0.792964
     2  C   -0.098049
     3  C    0.583722
     4  O   -0.504910
     5  C   -0.442354
     6  C    0.555225
     7  N   -0.741862
     8  O   -0.504316
     9  H    0.418440
    10  H    0.247604
    11  H    0.231166
    12  H    0.210821
    13  H    0.345123
    14  H    0.374720
    15  H    0.441515
    16  H    0.436265
    17  N   -0.632213
    18  C   -0.106524
    19  C    0.609240
    20  O   -0.535381
    21  C   -0.345325
    22  C    0.167375
    23  C   -0.197430
    24  C   -0.197890
    25  C   -0.147409
    26  C   -0.137176
    27  C   -0.149379
    28  H    0.393570
    29  H    0.224967
    30  H    0.179851
    31  H    0.176255
    32  H    0.134295
    33  H    0.152472
    34  H    0.153747
    35  H    0.153723
    36  H    0.154653
    37  N   -0.640031
    38  C   -0.074496
    39  C    0.610514
    40  O   -0.567031
    41  C   -0.384039
    42  C    0.623283
    43  N   -0.726876
    44  O   -0.552852
    45  H    0.362839
    46  H    0.218478
    47  H    0.211431
    48  H    0.194795
    49  H    0.365322
    50  H    0.366933
    51  N   -0.590427
    52  C   -0.079960
    53  C    0.623749
    54  O   -0.599337
    55  C   -0.285017
    56  C   -0.319440
    57  C   -0.147853
    58  N   -0.628728
    59  C    0.694178
    60  N   -0.734951
    61  N   -0.734947
    62  O   -0.589296
    63  H    0.372893
    64  H    0.170910
    65  H    0.182153
    66  H    0.159995
    67  H    0.177174
    68  H    0.181655
    69  H    0.199630
    70  H    0.177265
    71  H    0.397378
    72  H    0.375432
    73  H    0.402108
    74  H    0.400078
    75  H    0.375520
 Sum of Mulliken charges =   1.00000
 Mulliken charges with hydrogens summed into heavy atoms:
               1
     1  N    0.503256
     2  C    0.149555
     3  C    0.583722
     4  O   -0.504910
     5  C   -0.000367
     6  C    0.555225
     7  N   -0.022019
     8  O   -0.504316
    17  N   -0.238643
    18  C    0.118442
    19  C    0.609240
    20  O   -0.535381
    21  C    0.010781
    22  C    0.167375
    23  C   -0.063135
    24  C   -0.045418
    25  C    0.006339
    26  C    0.016548
    27  C    0.005274
    37  N   -0.277193
    38  C    0.143982
    39  C    0.610514
    40  O   -0.567031
    41  C    0.022187
    42  C    0.623283
    43  N    0.005379
    44  O   -0.552852
    51  N   -0.217534
    52  C    0.090950
    53  C    0.623749
    54  O   -0.599337
    55  C    0.057131
    56  C    0.039389
    57  C    0.229041
    58  N   -0.231350
    59  C    0.694178
    60  N    0.042590
    61  N    0.040651
    62  O   -0.589296
 APT charges:
               1
     1  N   -2.546187
     2  C   -0.800739
     3  C   -2.141010
     4  O    2.559970
     5  C    1.127938
     6  C   -1.665529
     7  N   -1.470706
     8  O    1.670637
     9  H    1.766093
    10  H    1.219559
    11  H   -0.322463
    12  H   -0.278322
    13  H    1.058148
    14  H    0.015139
    15  H    1.646903
    16  H   -0.350393
    17  N    0.482030
    18  C   -2.488589
    19  C    0.987099
    20  O   -1.076573
    21  C   -1.234443
    22  C    1.394121
    23  C   -0.497619
    24  C   -0.576034
    25  C   -0.811728
    26  C   -0.575848
    27  C   -0.852316
    28  H   -0.784260
    29  H    1.819705
    30  H    1.058978
    31  H    0.726632
    32  H    0.699881
    33  H    1.342474
    34  H   -0.298696
    35  H    0.245922
    36  H   -0.609205
    37  N    0.160090
    38  C   -0.818772
    39  C   -0.713390
    40  O    1.625995
    41  C   -3.142948
    42  C    1.810713
    43  N   -1.542261
    44  O   -2.790534
    45  H    0.465168
    46  H    0.706079
    47  H    1.013745
    48  H    1.748389
    49  H    0.765574
    50  H    2.568935
    51  N   -0.165360
    52  C   -1.582916
    53  C    1.103008
    54  O   -1.680884
    55  C   -1.973380
    56  C    0.439953
    57  C   -1.679628
    58  N    0.038847
    59  C   -0.117194
    60  N   -1.597146
    61  N   -1.300675
    62  O   -0.250791
    63  H   -0.605425
    64  H    1.427383
    65  H    0.389280
    66  H    1.519968
    67  H   -0.744068
    68  H    0.495404
    69  H    0.067771
    70  H    1.496772
    71  H   -0.144962
    72  H    0.970026
    73  H    1.804669
    74  H    1.306049
    75  H   -0.514050
 Sum of APT charges =   1.00000
 APT charges with hydrogens summed into heavy atoms:
               1
     1  N    0.516416
     2  C    0.418820
     3  C   -2.141010
     4  O    2.559970
     5  C    0.527152
     6  C   -1.665529
     7  N   -0.397419
     8  O    1.670637
    17  N   -0.302230
    18  C   -0.668884
    19  C    0.987099
    20  O   -1.076573
    21  C    0.551167
    22  C    1.394121
    23  C    0.202262
    24  C    0.766439
    25  C   -1.110425
    26  C   -0.329926
    27  C   -1.461522
    37  N    0.625258
    38  C   -0.112693
    39  C   -0.713390
    40  O    1.625995
    41  C   -0.380814
    42  C    1.810713
    43  N    1.792248
    44  O   -2.790534
    51  N   -0.770785
    52  C   -0.155533
    53  C    1.103008
    54  O   -1.680884
    55  C   -0.064132
    56  C    0.191290
    57  C   -0.115084
    58  N   -0.106116
    59  C   -0.117194
    60  N    1.177549
    61  N   -0.508676
    62  O   -0.250791
 Electronic spatial extent (au):  <R**2>=         133444.0590
 Charge=              1.0000 electrons
 Dipole moment (field-independent basis, Debye):
    X=            -43.3891    Y=             -4.2048    Z=            -34.0834  Tot=             55.3351
 Quadrupole moment (field-independent basis, Debye-Ang):
   XX=            197.8986   YY=           -199.5028   ZZ=             51.0431
   XY=             41.4593   XZ=            322.6614   YZ=             18.0347
 Traceless Quadrupole moment (field-independent basis, Debye-Ang):
   XX=            181.4190   YY=           -215.9824   ZZ=             34.5634
   XY=             41.4593   XZ=            322.6614   YZ=             18.0347
 Octapole moment (field-independent basis, Debye-Ang**2):
  XXX=            315.6687  YYY=           1003.8226  ZZZ=           2682.9069  XYY=           1419.1539
  XXY=            -37.5666  XXZ=          -1516.2600  XZZ=          -1076.0633  YZZ=            308.8375
  YYZ=           1570.1994  XYZ=           -261.3886
 Hexadecapole moment (field-independent basis, Debye-Ang**3):
 XXXX=         -25501.4161 YYYY=          -8565.5346 ZZZZ=         -61407.2685 XXXY=          -3275.1710
 XXXZ=           -874.4946 YYYX=          -6818.5816 YYYZ=          -7073.4236 ZZZX=         -12167.8571
 ZZZY=          -8049.6264 XXYY=         -12858.5745 XXZZ=            -60.9520 YYZZ=         -14748.1502
 XXYZ=            410.0183 YYXZ=         -11061.7240 ZZXY=           -661.4809
 N-N= 5.296978398295D+03 E-N=-1.503277096560D+04  KE= 1.901056310463D+03
  Exact polarizability:       0.000       0.000       0.000       0.000       0.000       0.000
 Approx polarizability:     413.951      35.668     441.885      18.703     -28.265     521.454
 Calling FoFJK, ICntrl=    100127 FMM=F ISym2X=0 I1Cent= 0 IOpClX= 0 NMat=1 NMatS=1 NMatT=0.
 -------------------------------------------------------------------
 Center     Atomic                   Forces (Hartrees/Bohr)
 Number     Number              X              Y              Z
 -------------------------------------------------------------------
      1        7           0.000004140    0.011616686   -0.013888807
      2        6           0.014301657   -0.028322291    0.015022313
      3        6          -0.008703844   -0.002823138   -0.010787614
      4        8           0.002556012    0.003004545    0.003046233
      5        6           0.005426419   -0.004158961   -0.008689704
      6        6           0.009670308    0.010917712    0.003501998
      7        7          -0.000081754   -0.005887833   -0.001566255
      8        8           0.000206024   -0.005778784   -0.011985689
      9        1          -0.000683682    0.002339475   -0.002466784
     10        1          -0.001558422    0.001745209   -0.001401971
     11        1           0.000297307   -0.004046084    0.007761177
     12        1          -0.001602723   -0.002585485   -0.001224383
     13        1           0.003668614    0.003712489   -0.001587900
     14        1          -0.002604541    0.004551776    0.003538704
     15        1          -0.006801113   -0.001154060    0.001806989
     16        1          -0.001873762    0.011298946    0.007391441
     17        7          -0.004389335    0.000416859   -0.000207901
     18        6          -0.000291718   -0.004149382    0.002367486
     19        6           0.006060631   -0.000375460   -0.010403663
     20        8          -0.000095242   -0.003347236    0.011697287
     21        6          -0.001914282   -0.003613730   -0.002194172
     22        6          -0.001138147   -0.002719984   -0.003541033
     23        6           0.002140272    0.007670284   -0.008388439
     24        6          -0.006621863   -0.007799155    0.005646633
     25        6           0.000272451    0.005936868   -0.001557211
     26        6          -0.002873411   -0.002719153    0.005391367
     27        6           0.000726489    0.003294044    0.007387633
     28        1           0.004881756    0.003408987    0.002673263
     29        1          -0.001269593   -0.003348868   -0.002393003
     30        1           0.000588895   -0.001414657    0.000225586
     31        1           0.001065837    0.000456424   -0.000742903
     32        1           0.002495465   -0.001510216    0.002077825
     33        1           0.001960600    0.000941194    0.000196182
     34        1           0.002720637    0.001428257   -0.000216148
     35        1           0.001505566   -0.001125313    0.000092089
     36        1           0.001752632   -0.001238630    0.000273187
     37        7           0.000627095   -0.002806084    0.007741283
     38        6           0.001632769    0.006247212   -0.006193869
     39        6          -0.001382271   -0.003698285    0.011817733
     40        8           0.004725978    0.004144958   -0.018719880
     41        6          -0.003592091   -0.002518955   -0.001250531
     42        6          -0.006040416    0.001407031   -0.012166804
     43        7           0.008705091   -0.003495742    0.004344473
     44        8           0.005779696    0.003588504    0.019364143
     45        1          -0.008736057   -0.000866014    0.001426600
     46        1          -0.003067094   -0.000753549   -0.005301298
     47        1          -0.000844693   -0.004324000   -0.000791771
     48        1           0.002995629   -0.000691486   -0.003030951
     49        1          -0.005542144    0.002835820    0.002816733
     50        1          -0.003559250    0.002021912   -0.006035165
     51        7          -0.006302517   -0.002271935   -0.008851525
     52        6           0.008486061    0.003145316   -0.003141869
     53        6          -0.042849195    0.026715976   -0.001777348
     54        8           0.017642031   -0.030044164    0.028883837
     55        6          -0.002892193    0.006265378   -0.002000537
     56        6          -0.002004897    0.003437865   -0.001811634
     57        6           0.000046121   -0.000252213    0.002877366
     58        7          -0.009498494   -0.000859847    0.007044818
     59        6           0.004440041    0.003242062   -0.003899981
     60        7          -0.001758731   -0.001583633   -0.001512746
     61        7          -0.006221250    0.003772995   -0.005665785
     62        8           0.019171837    0.010595365   -0.018410262
     63        1           0.001395152   -0.006597459    0.008754353
     64        1          -0.002651921    0.002711318   -0.001461118
     65        1           0.000113616    0.000027530    0.001410273
     66        1          -0.002395381    0.001226210    0.001605185
     67        1           0.003352289    0.001091684    0.000875486
     68        1           0.000033953   -0.000159548    0.001393347
     69        1           0.001022429   -0.001307854    0.003252377
     70        1          -0.002375261    0.000110344   -0.002452655
     71        1           0.007666147    0.002498057   -0.005682429
     72        1          -0.003309872   -0.002409022    0.002357505
     73        1          -0.002170799    0.001383849    0.003168208
     74        1           0.002584505   -0.005722828    0.001506739
     75        1           0.006975808   -0.000728104    0.002663884
 -------------------------------------------------------------------
 Cartesian Forces:  Max     0.042849195 RMS     0.007229635
 FormGI is forming the generalized inverse of G from B-inverse, IUseBI=4.

 GradGradGradGradGradGradGradGradGradGradGradGradGradGradGradGradGradGrad
 Berny optimization.
 Internal  Forces:  Max     0.068263522 RMS     0.010805469
 Search for a local minimum.
 Step number   1 out of a maximum of  399
 All quantities printed in internal units (Hartrees-Bohrs-Radians)
 Mixed Optimization -- RFO/linear search
 Second derivative matrix not updated -- analytic derivatives used.
 ITU=  0
     Eigenvalues ---   -0.00547  -0.00172  -0.00046  -0.00002   0.00100
     Eigenvalues ---    0.00176   0.00264   0.00351   0.00440   0.00486
     Eigenvalues ---    0.00568   0.00685   0.00750   0.00800   0.00853
     Eigenvalues ---    0.00996   0.01065   0.01137   0.01195   0.01467
     Eigenvalues ---    0.01588   0.01695   0.01721   0.01757   0.01796
     Eigenvalues ---    0.01818   0.01863   0.01911   0.01985   0.02266
     Eigenvalues ---    0.02416   0.02493   0.02524   0.02566   0.02633
     Eigenvalues ---    0.02779   0.02907   0.02957   0.03054   0.03346
     Eigenvalues ---    0.03761   0.03870   0.03941   0.03961   0.04120
     Eigenvalues ---    0.04124   0.04145   0.04182   0.04202   0.04340
     Eigenvalues ---    0.04360   0.04435   0.04475   0.04596   0.04656
     Eigenvalues ---    0.04754   0.04786   0.04904   0.05110   0.05340
     Eigenvalues ---    0.05348   0.05611   0.05681   0.05734   0.06056
     Eigenvalues ---    0.06204   0.06338   0.06570   0.06803   0.07195
     Eigenvalues ---    0.07734   0.07854   0.07890   0.08029   0.08250
     Eigenvalues ---    0.08413   0.08601   0.08716   0.08898   0.09408
     Eigenvalues ---    0.11099   0.11191   0.11316   0.11480   0.11572
     Eigenvalues ---    0.11685   0.11826   0.12132   0.12323   0.12548
     Eigenvalues ---    0.12660   0.12747   0.12770   0.13290   0.13349
     Eigenvalues ---    0.13822   0.13963   0.14058   0.14424   0.14576
     Eigenvalues ---    0.14866   0.15203   0.15286   0.16071   0.16810
     Eigenvalues ---    0.16907   0.18618   0.18870   0.18985   0.19299
     Eigenvalues ---    0.19520   0.19680   0.19807   0.19974   0.20199
     Eigenvalues ---    0.20392   0.21085   0.21428   0.21454   0.22124
     Eigenvalues ---    0.22354   0.22492   0.22895   0.23151   0.23475
     Eigenvalues ---    0.23819   0.24149   0.24309   0.25149   0.25230
     Eigenvalues ---    0.26292   0.26797   0.27395   0.27755   0.28237
     Eigenvalues ---    0.28384   0.28709   0.29888   0.30030   0.30472
     Eigenvalues ---    0.30765   0.31051   0.31757   0.31826   0.31977
     Eigenvalues ---    0.32590   0.33516   0.33873   0.33935   0.34001
     Eigenvalues ---    0.34274   0.34291   0.34322   0.34450   0.34545
     Eigenvalues ---    0.34705   0.34886   0.35008   0.35131   0.35261
     Eigenvalues ---    0.35350   0.35511   0.35594   0.35877   0.36018
     Eigenvalues ---    0.36178   0.36358   0.36938   0.36972   0.37191
     Eigenvalues ---    0.37319   0.38043   0.38755   0.39706   0.41097
     Eigenvalues ---    0.41295   0.42476   0.43200   0.43730   0.43892
     Eigenvalues ---    0.44682   0.44819   0.45106   0.45275   0.45497
     Eigenvalues ---    0.45735   0.47011   0.47245   0.47647   0.48013
     Eigenvalues ---    0.48313   0.48652   0.49070   0.49289   0.49672
     Eigenvalues ---    0.49885   0.49955   0.50243   0.50304   0.51479
     Eigenvalues ---    0.53444   0.53738   0.54642   0.55493   0.62729
     Eigenvalues ---    0.65066   0.67236   0.79843   0.80748   0.83795
     Eigenvalues ---    0.84184   0.84967   0.86384   0.86811   1.00468
     Eigenvalues ---    1.65079   2.98515   6.56132  12.11793
 RFO step:  Lambda=-3.53578481D-02 EMin=-5.47012417D-03
 Linear search not attempted -- first point.
 Maximum step size (   0.300) exceeded in Quadratic search.
    -- Step size scaled by   0.945
 Iteration  1 RMS(Cart)=  0.14850818 RMS(Int)=  0.01251763
 Iteration  2 RMS(Cart)=  0.09673397 RMS(Int)=  0.00174952
 Iteration  3 RMS(Cart)=  0.00341349 RMS(Int)=  0.00164067
 Iteration  4 RMS(Cart)=  0.00001082 RMS(Int)=  0.00164066
 Iteration  5 RMS(Cart)=  0.00000006 RMS(Int)=  0.00164066
 Variable       Old X    -DE/DX   Delta X   Delta X   Delta X     New X
                                 (Linear)    (Quad)   (Total)
    R1        2.78928   0.02620   0.00000   0.06959   0.06959   2.85887
    R2        1.93184   0.00261   0.00000   0.00367   0.00367   1.93551
    R3        1.94227   0.00662   0.00000   0.02723   0.02723   1.96950
    R4        1.95471   0.01310   0.00000   0.02743   0.02743   1.98214
    R5        2.90658   0.00857   0.00000   0.00869   0.00869   2.91527
    R6        2.88112   0.00347   0.00000   0.00829   0.00829   2.88941
    R7        2.06499  -0.00032   0.00000  -0.00403  -0.00403   2.06096
    R8        2.32864  -0.00497   0.00000  -0.00984  -0.00984   2.31880
    R9        2.56173   0.01181   0.00000   0.01531   0.01531   2.57704
   R10        2.85954   0.01544   0.00000   0.03475   0.03475   2.89430
   R11        2.02658   0.00411   0.00000   0.03170   0.03170   2.05828
   R12        2.06471   0.00100   0.00000   0.00552   0.00552   2.07023
   R13        2.56471   0.00245   0.00000  -0.00076  -0.00076   2.56394
[...]
 846,0.00126743,-0.00564820,0.00177473,-0.00194970,0.00233879,0.0003652
 6,0.00078685,0.00371119,0.00091162,-0.00237471,-0.00207844,-0.00007214
 ,-0.00004210,0.00002211,-0.00011989,-0.00000104,0.00010091,-0.00011044
 ,0.00014715,0.00020991,-0.00015903,0.00035145,0.00018381,0.00009412,-0
 .00023669,-0.00013854,-0.00065799,-0.00027026,-0.00012854,0.00017690,0
 .00045013,0.00003917,0.00038186,-0.00041814,0.00036341,-0.00004008,0.0
 0016179,-0.00063856,0.00015297,0.00013366,0.00015082,-0.00001932,-0.00
 036855,-0.00019877,0.00068878,0.00068270,0.00065870,-0.00048284,-0.000
 33313,-0.00169361,0.01603348,-0.01258011,0.00510988,-0.16689895,0.1069
 2244,-0.11738621,0.00351901,0.00349833,0.00025713,-0.00015115,0.000104
 87,-0.00017608,0.00088976,0.00025382,-0.00011525,-0.00002541,-0.000063
 53,-0.00000742,-0.00003139,-0.00003609,-0.00012239,-0.00005283,0.00005
 285,-0.00002220,0.00002397,0.00005002,-0.00004933,-0.00000706,-0.00001
 451,-0.00001710,-0.00053282,-0.00068189,-0.00052851,0.00000429,0.00128
 777,0.00052283,-0.00064325,-0.00003493,0.00004253,-0.00482869,-0.00114
 138,-0.00479777,0.15027431,-0.09631386,0.11751141,-0.00014005,-0.00002
 100,0.00001500,0.00013155,-0.00003453,0.00005753,-0.00001979,-0.000023
 97,-0.00007231,-0.00013603,-0.00005112,0.00002764,0.00001666,0.0000191
 1,0.00001101,0.00000274,-0.00000489,0.00009661,-0.00007611,0.00000986,
 -0.00005090,-0.00003051,0.00001367,-0.00009974,0.00003087,-0.00000407,
 -0.00000516,-0.00000989,-0.00000711,-0.00000557,0.00003861,-0.00006248
 ,-0.00000217,-0.00002418,0.00002260,0.00005176,0.00001415,-0.00001287,
 0.00000212,0.00004683,-0.00003831,0.00002779,0.00014063,0.00002815,-0.
 00006617,0.00003979,0.00001517,0.00001945,-0.00063632,0.00015991,0.000
 26862,0.00037624,-0.00067761,0.00009376,-0.00074317,0.00397545,-0.0058
 1567,-0.00071623,-0.00132638,0.00574948,0.00034996,0.00014103,0.000287
 12,-0.00019817,-0.00028506,0.00186730,-0.00031737,-0.00010063,0.000001
 85,0.00094540,0.00132212,-0.00013109,-0.00034943,0.00049009,0.00002703
 ,-0.00063108,-0.00002982,-0.00133331,-0.00041667,-0.00058638,-0.000059
 40,0.00027693,-0.00017880,0.00017371,-0.00019664,0.00002731,-0.0001049
 6,-0.00002574,-0.00012874,-0.00007125,-0.00021472,-0.00002543,-0.00023
 713,0.00016402,0.00003145,-0.00013023,-0.00008967,-0.00001055,0.000042
 52,0.00016588,0.00000061,-0.00005776,-0.00000005,0.00003408,0.00003175
 ,0.00012491,0.00002790,0.00005339,0.00162232,-0.00220748,0.00126991,-0
 .00008193,0.00045822,-0.00077667,0.00037987,0.00046013,-0.00000647,-0.
 00027011,-0.00030933,0.00024826,-0.00002437,-0.00010392,0.00019707,-0.
 00027432,0.00033026,-0.00022681,0.00015415,-0.00023244,0.00007986,0.00
 022836,-0.00031756,0.00015740,-0.00039497,0.00032533,0.00003496,0.0000
 9315,-0.00008398,0.00015244,-0.00006489,-0.00000556,-0.00004050,0.0001
 0592,-0.00005122,0.00000955,-0.00000250,0.00003461,0.00001204,-0.00000
 772,0.00002397,-0.00002025,-0.00021511,-0.00043293,-0.00013265,0.00006
 325,0.00018029,-0.00000573,0.00017057,-0.00011473,0.00007988,-0.000030
 74,0.00004615,-0.00012007,0.00000774,0.00001130,0.00007161,-0.00033161
 ,0.00011302,0.00011277,0.00062884,0.00018845,-0.00090796,-0.00390509,0
 .00312890,-0.00052557,0.01074618,0.03110345,0.00375251,-0.00062748,-0.
 00035853,-0.00003655,-0.08127438,-0.05381012,-0.00216689,-0.00014321,0
 .00002753,0.00001780,0.00014438,0.00033200,0.00025092,-0.00000765,-0.0
 0001845,0.00000765,0.00000581,-0.00002333,-0.00004441,-0.00001080,0.00
 001229,-0.00000686,0.00000090,-0.00002567,-0.00000377,0.00005545,0.000
 08938,-0.00006508,0.00001973,0.00002453,-0.00000852,-0.00013679,0.0001
 0926,-0.00003248,-0.00037579,0.00010794,0.00023674,-0.00259105,0.00083
 180,0.00135810,-0.00000475,-0.00051842,-0.00042307,0.07517866,0.000006
 90,-0.00020948,-0.00011383,-0.00005232,0.00015562,-0.00002035,-0.00003
 643,0.00005816,-0.00038966,-0.00000556,-0.00012698,0.00019769,-0.00000
 805,-0.00006390,0.00008806,0.00007086,0.00015680,0.00001833,0.00000216
 ,-0.00011958,-0.00001966,-0.00002229,-0.00007180,-0.00000071,0.0000002
 3,-0.00000718,0.00000604,-0.00000058,-0.00002244,0.00000186,-0.0000659
 3,0.00009452,0.00003210,0.00003630,-0.00002107,-0.00004603,-0.00001717
 ,0.00000792,-0.00000300,-0.00008024,0.00004763,0.00001445,-0.00005460,
 0.00003443,0.00003638,0.00003282,0.00022750,0.00033870,0.00004887,-0.0
 0038387,0.00037801,0.00021641,0.00068262,0.00024668,-0.00122185,0.0047
 5465,-0.00515096,-0.00097488,-0.00434614,0.00424455,-0.00007052,-0.000
 09044,0.00004420,0.00080053,0.00005253,-0.00115674,-0.00001859,-0.0002
 6761,0.00002278,0.00035049,-0.00053966,-0.00001404,0.00009258,-0.00086
 359,-0.00000048,0.00099317,-0.00021864,0.00070370,0.00006999,0.0000203
 5,-0.00002772,-0.00023101,0.00026324,0.00022771,-0.00008506,-0.0000677
 7,-0.00002596,0.00006795,-0.00011996,-0.00004751,-0.00002707,-0.000001
 85,0.00011605,-0.00007048,-0.00004177,0.00007094,0.00024821,-0.0008612
 2,-0.00011240,-0.00013103,0.00001694,0.00003498,0.00005438,0.00000480,
 0.00005319,-0.00010133,-0.00005019,-0.00004548,0.00212079,-0.00353891,
 0.00118350,-0.00014859,0.00011992,-0.00071824,0.00042336,0.00085079,0.
 00075324,-0.00009160,-0.00035768,-0.00030046,-0.00004911,-0.00012336,0
 .00008197,0.00003426,0.00019613,0.00069483,-0.00010357,-0.00001235,-0.
 00021910,-0.00012982,-0.00034839,-0.00096034,-0.00006568,0.00068821,0.
 00074259,0.00003749,-0.00004784,0.00007993,-0.00005631,0.00000170,-0.0
 0004111,0.00011780,-0.00005298,-0.00001907,0.00005144,-0.00000158,0.00
 003154,-0.00000341,0.00004228,0.00001782,-0.00020592,-0.00081492,-0.00
 060185,0.00000161,0.00019799,-0.00001449,-0.00006634,-0.00077055,0.000
 99252,0.00044435,0.00034757,-0.00137589,0.00001708,0.00004136,0.000177
 20,-0.00012827,-0.00013447,0.00015679,0.00090556,-0.00051308,0.0010635
 2,0.00162901,0.00512981,-0.00488596,0.00878621,-0.02310561,0.00160069,
 -0.00562477,0.00095586,0.00094698,-0.05666526,-0.41562317,-0.05034446,
 0.00035387,0.00021246,-0.00073561,0.00019645,0.00037167,0.00089277,-0.
 00000315,-0.00000079,-0.00001188,0.00001245,-0.00000315,-0.00009987,-0
 .00001082,-0.00000663,-0.00002784,-0.00001487,-0.00003274,-0.00002775,
 -0.00000602,0.00010170,-0.00008887,-0.00027190,0.00040171,-0.00004043,
 -0.00016668,0.00004739,0.00001746,-0.00150059,-0.00035650,0.00079837,0
 .00068940,0.00119691,-0.00064425,0.00041327,-0.00028926,0.00074156,0.0
 4922697,0.43946489,-0.00016129,-0.00011660,0.00002498,0.00010568,0.000
 05736,0.00002923,0.00004866,0.00008400,-0.00070694,-0.00007809,-0.0000
 6592,0.00038693,-0.00000772,-0.00006959,0.00006993,0.00013768,0.000182
 15,0.00003809,-0.00015302,-0.00008498,-0.00006287,-0.00010042,-0.00007
 384,-0.00003073,0.00004237,0.00000239,-0.00003235,-0.00000357,-0.00001
 990,-0.00000703,0.00001042,0.00000439,0.00001647,0.00000591,0.00000958
 ,0.00001439,0.00002959,-0.00000689,-0.00000002,0.00005104,-0.00000573,
 0.00004363,0.00015392,0.00006277,-0.00009966,0.00005964,0.00009384,0.0
 0009668,-0.00058867,-0.00003822,0.00054936,0.00079812,0.00012595,-0.00
 013822,-0.00228841,0.00514803,-0.01046456,0.00037574,-0.00099259,0.006
 02490,0.00013038,-0.00023829,-0.00002542,0.00016547,-0.00035338,0.0001
 5346,0.00047368,0.00099981,0.00000779,0.00057801,-0.00039533,0.0000978
 7,-0.00000231,-0.00018153,-0.00050382,0.00087399,0.00023918,-0.0000049
 0,-0.00033811,-0.00109420,-0.00007852,0.00027676,0.00005230,0.00006571
 ,-0.00033848,-0.00005382,-0.00002500,0.00004123,-0.00011963,-0.0000252
 2,-0.00016934,0.00001267,-0.00003153,0.00004992,0.00000615,-0.00004485
 ,0.00000821,0.00005474,0.00023064,-0.00005005,0.00001555,-0.00005078,-
 0.00034661,0.00033906,-0.00027333,-0.00013318,0.00002384,-0.00002374,0
 .00245243,-0.00351219,0.00151492,-0.00023280,0.00049307,-0.00119422,0.
 00040636,0.00050123,-0.00002259,-0.00028909,-0.00044141,0.00043531,-0.
 00008546,-0.00015031,0.00021047,-0.00039886,0.00044583,-0.00000957,0.0
 0022102,-0.00025682,-0.00001188,0.00039021,-0.00038000,-0.00024712,-0.
 00056808,0.00038071,0.00045066,0.00009028,-0.00009566,0.00018858,-0.00
 007297,-0.00000072,-0.00005463,0.00014981,-0.00008091,0.00000071,-0.00
 002829,0.00001464,0.00003708,-0.00004494,0.00003110,-0.00001766,-0.000
 13009,-0.00053509,0.00005558,0.00013282,0.00037294,-0.00005232,0.00028
 525,-0.00018979,0.00012689,-0.00032293,-0.00001161,-0.00040089,-0.0000
 4234,0.00004598,0.00010032,-0.00017634,0.00026825,0.00015155,0.0008743
 5,0.00107823,0.00005206,-0.00382036,0.00159669,0.00454747,-0.00329013,
 0.01462195,-0.00533206,0.00124074,-0.00077693,-0.00376495,0.00005967,-
 0.07761952,-0.01610174,-0.00014218,0.00001823,-0.00011005,-0.00000111,
 0.00031907,0.00006478,-0.00002647,-0.00003069,0.00001894,-0.00000115,-
 0.00004237,-0.00004920,-0.00001359,0.00001567,-0.00001760,-0.00000460,
 0.00000138,-0.00000868,0.00006911,0.00009354,-0.00011355,-0.00004581,-
 0.00013259,0.00001464,0.00007586,-0.00021528,0.00005530,0.00004710,-0.
 00057181,0.00058478,0.00201551,-0.00040428,0.00167740,-0.00025518,0.00
 033854,0.00024973,0.00272937,0.05159625,0.02224338,-0.00015195,0.00011
 851,0.00009259,0.00016405,-0.00012465,0.00005468,0.00007190,0.00001214
 ,0.00011407,-0.00011627,0.00000260,-0.00005560,-0.00000117,0.00005802,
 -0.00003113,0.00000135,-0.00006350,0.00012183,-0.00012522,0.00006986,-
 0.00006778,-0.00003187,0.00004659,-0.00013043,0.00003739,0.00000299,-0
 .00001147,-0.00001214,0.00001157,-0.00001192,0.00009425,-0.00012061,-0
 .00000840,-0.00004264,0.00003864,0.00007885,0.00003025,-0.00002192,0.0
 0000453,0.00011989,-0.00008080,0.00005736,0.00018451,0.00000818,-0.000
 09896,0.00002663,-0.00014260,-0.00021481,-0.00049281,0.00034878,-0.000
 08014,0.00024260,-0.00044274,0.00000112,0.00045570,-0.00029817,-0.0010
 3589,-0.00033306,0.00062220,0.00098681,0.00019501,0.00000760,0.0002159
 5,-0.00024759,0.00002264,0.00045311,0.00045350,0.00102123,0.00152148,-
 0.00069136,-0.00003837,-0.00036804,-0.00078601,-0.00169282,0.00061865,
 0.00042800,0.00121203,0.00009999,-0.00034214,0.00039017,-0.00189243,0.
 00047544,-0.00028515,-0.00003724,-0.00014015,0.00004443,-0.00001947,-0
 .00006251,-0.00006358,-0.00008253,-0.00010312,-0.00001888,-0.00013268,
 0.00009944,-0.00005833,-0.00019780,0.00001428,-0.00021865,-0.00004109,
 -0.00017512,0.00006018,0.00002566,0.00000505,-0.00016953,0.00007892,-0
 .00002645,0.00000339,0.00001121,-0.00004645,0.00036444,0.00039874,-0.0
 0002954,0.00002393,-0.00013514,-0.00001962,-0.00033204,-0.00067214,-0.
 00016915,-0.00000151,0.00055583,-0.00000827,0.00001640,0.00005994,-0.0
 0021631,0.00008565,-0.00048405,0.00017071,-0.00011550,0.00014328,0.000
 25710,0.00006886,0.00052593,-0.00014407,-0.00012098,-0.00017504,0.0000
 4399,-0.00000920,0.00003626,-0.00000282,-0.00000164,-0.00000638,-0.000
 00092,-0.00000814,0.00001396,-0.00004894,0.00000887,-0.00000933,-0.000
 01776,-0.00000865,-0.00002536,0.00002821,0.00030302,0.00048648,0.00007
 289,0.00008269,-0.00003541,0.00020634,0.00041125,-0.00066065,-0.000769
 04,-0.00035400,0.00097510,-0.00007949,-0.00006669,-0.00013907,0.000308
 08,0.00000974,-0.00015841,-0.00087901,0.00092210,-0.00019107,0.0017546
 3,-0.00473387,0.00112558,-0.02589165,-0.00541021,0.00525399,0.00240211
 ,0.00268781,-0.00195565,-0.38276215,-0.11842667,0.06861368,-0.00044466
 ,-0.00014020,0.00055564,-0.00017611,-0.00005091,-0.00060209,-0.0000245
 3,-0.00000898,0.00002415,-0.00000577,-0.00002336,0.00007948,-0.0000049
 9,0.00002655,0.00001893,-0.00001222,0.00004423,0.00002710,-0.00002759,
 -0.00012896,0.00010484,0.00022667,-0.00031346,-0.00003735,0.00024134,-
 0.00025484,0.00000074,0.00143943,0.00177896,-0.00177289,-0.00004889,-0
 .00013587,-0.00020887,-0.00041583,0.00031192,0.00111144,0.00327665,0.0
 0003443,-0.00090428,0.40259995,0.00000919,-0.00016457,-0.00012249,-0.0
 0005632,0.00009760,-0.00003527,0.00003479,0.00009216,-0.00025086,0.000
 02289,-0.00004376,0.00011731,-0.00001838,-0.00004229,0.00006637,0.0000
 5881,0.00012029,0.00004150,0.00001126,-0.00009586,-0.00002238,-0.00000
 931,-0.00004849,-0.00001824,-0.00000488,-0.00000729,0.00001094,0.00000
 025,-0.00001100,0.00000086,-0.00005716,0.00010252,0.00003453,0.0000326
 2,-0.00002621,-0.00005594,-0.00001882,0.00000402,-0.00000231,-0.000076
 92,0.00003665,0.00003228,-0.00002019,0.00001681,0.00002751,0.00004435,
 0.00019668,0.00031022,0.00017340,-0.00026366,0.00015791,-0.00005297,0.
 00029132,-0.00011592,-0.00024959,-0.00046141,0.00050747,0.00001604,-0.
 00043566,-0.00156506,-0.00021399,-0.00008188,-0.00013769,-0.00030749,-
 0.00052072,-0.00035362,0.00030782,0.00018875,-0.00036780,-0.00049462,-
 0.00046996,-0.00006700,0.00083352,0.00007129,-0.00040452,-0.00025019,-
 0.00068221,0.00041202,0.00059503,0.00021958,0.00050757,-0.00014401,0.0
 0034388,-0.00005254,0.00005228,-0.00002971,0.00001326,0.00004976,0.000
 04345,0.00006295,0.00007393,0.00003074,0.00011233,-0.00012575,0.000063
 29,0.00015382,0.00001346,0.00020659,0.00002598,-0.00041012,0.00003715,
 0.00010115,-0.00006349,0.00009226,-0.00006014,-0.00015817,0.00007787,-
 0.00008325,-0.00008274,0.00016580,-0.00013688,-0.00000567,0.00002985,0
 .00000223,0.00003796,0.00018989,0.00027848,0.00000618,-0.00006356,-0.0
 0016471,0.00001374,-0.00002025,0.00000413,-0.00001447,0.00005261,-0.00
 010937,0.00001449,-0.00006933,0.00005367,0.00003782,-0.00006547,0.0002
 1335,0.00002616,-0.00005757,-0.00005805,-0.00002655,-0.00000730,-0.000
 00725,-0.00001135,-0.00000079,0.00000401,0.00000288,0.00000872,0.00000
 656,0.00001406,0.00002008,-0.00000067,0.00001577,0.00000474,-0.0000011
 2,-0.00011057,-0.00014107,-0.00018367,0.00004061,0.00021759,-0.0000666
 4,0.00015492,-0.00093239,0.00111865,-0.00056048,0.00056660,-0.00148730
 ,-0.00005803,-0.00004070,0.00002409,0.00004786,0.00001566,0.00005990,-
 0.00018831,-0.00030639,-0.00059890,-0.00101963,-0.00119008,-0.00072692
 ,0.02492255,0.01527839,-0.00769493,0.00385716,-0.00327151,0.00250991,-
 0.12169762,-0.11963309,0.02555579,0.00029190,0.00030233,-0.00079851,0.
 00004552,0.00002551,-0.00001502,-0.00004521,-0.00000039,-0.00000754,0.
 00001178,-0.00001392,-0.00001346,-0.00003557,0.00001906,-0.00000779,-0
 .00004452,-0.00006767,0.00000583,-0.00002547,0.00002522,-0.00000858,0.
 00006486,-0.00007290,0.00005166,-0.00020005,0.00021521,0.00001988,0.00
 192601,-0.00116965,0.00222648,0.00021164,-0.00026698,-0.00007756,0.000
 84282,0.00080563,-0.00042371,-0.03126089,-0.00231692,0.00961138,0.1232
 0342,0.11281682,0.00001339,0.00008573,0.00014862,0.00001275,-0.0000051
 9,-0.00000105,0.00002715,0.00006462,-0.00052319,0.00009866,0.00011171,
 0.00028877,-0.00001829,-0.00007215,-0.00001506,0.00013113,0.00014028,-
 0.00006820,-0.00012597,-0.00003708,-0.00001701,-0.00007130,-0.00006665
 ,0.00007809,0.00001837,0.00001647,-0.00003350,0.00001134,-0.00000045,0
 .00000232,0.00003309,-0.00000846,-0.00001322,0.00000356,0.00000614,0.0
 0000540,0.00003500,0.00000395,0.00000626,0.00009354,0.00001132,0.00001
 573,-0.00002238,0.00001590,-0.00002991,-0.00005034,-0.00013962,-0.0002
 7076,-0.00016245,0.00001623,0.00026946,0.00005789,-0.00023902,-0.00003
 596,-0.00051624,-0.00050035,-0.00011893,0.00022289,-0.00018489,-0.0006
 7593,0.00003594,-0.00003667,-0.00013797,-0.00081507,-0.00102347,0.0000
 3137,-0.00043652,0.00074851,-0.00082863,0.00007759,0.00003879,-0.00024
 278,0.00061587,0.00015686,0.00134766,0.00103968,0.00072519,-0.00007625
 ,0.00013840,-0.00119217,-0.00020049,0.00017013,-0.00008342,-0.00065179
 ,-0.00002478,0.00003684,0.00000756,0.00001581,0.00003830,0.00001720,-0
 .00001101,-0.00001539,-0.00001407,0.00011642,-0.00008269,-0.00012400,-
 0.00002986,0.00004019,-0.00005259,-0.00000402,-0.00000896,0.00002201,-
 0.00007623,0.00017270,-0.00007904,-0.00043873,0.00018776,-0.00018373,0
 .00015304,0.00022119,0.00003645,-0.00005142,-0.00001320,-0.00006937,-0
 .00009565,-0.00008294,-0.00023635,0.00004944,-0.00001508,0.00013077,-0
 .00001780,0.00000182,-0.00000818,-0.00008104,0.00006875,0.00005903,0.0
 0006958,-0.00003993,-0.00001029,0.00010813,-0.00005264,-0.00000402,-0.
 00003903,0.00002493,0.00012772,-0.00000729,-0.00000138,0.00000191,0.00
 000937,0.00000111,-0.00000737,0.00000580,-0.00001290,-0.00000250,-0.00
 001790,-0.00000040,0.00001603,-0.00002187,-0.00000046,-0.00000272,0.00
 023730,-0.00006245,0.00003453,-0.00001437,0.00000179,0.00011631,-0.000
 34047,0.00095054,-0.00156599,0.00074588,-0.00177002,0.00112858,-0.0000
 0957,0.00009492,0.00008524,0.00009591,-0.00015997,-0.00004895,-0.00036
 580,-0.00032697,-0.00047742,-0.00067978,-0.00128073,-0.00245451,-0.009
 16813,-0.00290964,-0.00457246,0.00018515,0.00139438,0.00509319,0.08835
 982,0.03150015,-0.02377011,-0.00031776,-0.00039761,0.00094155,-0.00026
 744,0.00015103,0.00010665,0.00005900,-0.00002431,0.00000698,-0.0000047
 8,-0.00000085,-0.00001321,0.00003566,-0.00003049,-0.00004749,-0.000022
 04,0.00003343,0.00005968,0.00000430,-0.00004457,0.00002245,0.00020109,
 -0.00016165,-0.00006405,-0.00011877,0.00010347,-0.00001767,-0.00109140
 ,0.00212571,0.00087565,-0.00025744,-0.00010758,-0.00115104,0.00035295,
 0.00115401,0.00161099,-0.00589115,-0.00111390,-0.00049241,-0.07195689,
 -0.02813837,0.02671606\\-0.00000404,0.00000322,-0.00000473,-0.00000948
 ,-0.00000032,0.00000019,0.00000354,0.00000020,-0.00000681,-0.00000091,
 -0.00000182,0.00000625,0.00000086,-0.00000471,0.00000432,0.00000630,-0
 .00000545,0.00000810,0.00000553,0.00000287,-0.00000133,-0.00000082,0.0
 0000398,-0.00000389,0.00000088,-0.00000106,0.00000027,0.00000138,0.000
 00308,-0.00000021,0.00000156,-0.00000170,-0.00000312,0.00000149,0.0000
 0353,-0.00000227,0.00000151,0.00000173,0.00000035,-0.00000318,0.000001
 97,-0.00000140,0.00000594,0.00000139,0.00000365,0.00000259,-0.00000265
 ,-0.00000080,0.00000589,0.00000407,0.00001389,-0.00000735,-0.00000192,
 -0.00001106,-0.00000004,-0.00000227,0.00000419,-0.00000024,-0.00000037
 ,-0.00000205,0.00000106,0.00000283,0.00000162,0.00000065,0.00000071,-0
 .00000022,-0.00000052,-0.00000055,0.00000075,0.00000180,0.00000066,-0.
 00000053,0.00000089,0.00000103,0.00000035,0.00000016,-0.00000036,-0.00
 000063,-0.00000023,-0.00000101,0.00000027,0.00000014,0.00000197,-0.000
 00277,0.00000017,0.00000065,-0.00000109,0.00000056,0.00000002,-0.00000
 079,0.00000083,0.00000090,-0.00000010,0.00000044,-0.00000047,-0.000000
 42,0.00000032,-0.00000051,-0.00000045,-0.00000101,0.00000045,0.0000003
 2,-0.00000005,-0.00000013,-0.00000011,-0.00000047,0.00000021,0.0000002
 4,-0.00000617,-0.00000243,-0.00000838,0.00000672,-0.00000178,-0.000004
 42,-0.00000256,0.00000482,-0.00000282,-0.00000093,-0.00000168,0.000005
 52,0.00000239,0.00000162,-0.00000124,-0.00000360,0.00000058,-0.0000017
 6,0.00000175,-0.00000280,-0.00000018,-0.00000131,0.00000123,0.00000231
 ,0.00000610,-0.00000637,-0.00000106,0.00000057,-0.00000341,0.,-0.00000
 012,-0.00000059,-0.00000020,0.00000025,-0.00000103,-0.00000027,-0.0000
 0034,-0.00000118,-0.00000050,0.00000003,-0.00000086,-0.00000009,0.0000
 1630,0.00000214,0.00000273,-0.00000611,0.00000088,-0.00000782,-0.00000
 207,-0.00000487,0.00001173,-0.00000648,0.00000588,-0.00000708,-0.00000
 113,-0.00000485,0.00000017,0.00000757,-0.00000053,0.00000247,-0.000007
 75,-0.00000097,-0.00000500,0.00000141,-0.00000402,0.00000009,0.0000093
 3,-0.00000173,-0.00000526,-0.00000499,-0.00000611,-0.00000290,-0.00000
 371,0.00000582,0.00000894,-0.00000632,0.00000566,0.00000649,-0.0000059
 4,-0.00000087,0.00000420,0.00000030,0.00000200,-0.00000016,-0.00000062
 ,-0.00000015,-0.00000077,-0.00000045,-0.00000014,0.00000102,-0.0000001
 4,0.00000148,0.00000091,-0.00000168,-0.00000079,-0.00000036,0.00000014
 ,-0.00000204,0.00000071,0.00000100,0.00000184,-0.00000020,-0.00000161,
 0.00000138,-0.00000089,-0.00000334,0.00000181,0.00000164,0.00000127,0.
 00000007,0.00000568,-0.00000265,0.00000189,-0.00000179,-0.00000123,-0.
 00000007,-0.00000146\\\@
 The archive entry for this job was punched.


 PICNIC:  A SNACK IN THE GRASS.
 Job cpu time:       0 days  7 hours 26 minutes 47.8 seconds.
 Elapsed time:       0 days  0 hours 58 minutes 26.5 seconds.
 File lengths (MBytes):  RWF=   3960 Int=      0 D2E=      0 Chk=     48 Scr=     16
 Normal termination of Gaussian 16 at Tue May 31 20:40:26 2022.
