 Entering Gaussian System, Link 0=/opt/software/Gaussian/g16-AVX2-C.01/g16/g16
 Input=opt_freq-conf-291.com
 Output=opt_freq-conf-291.log
 Initial command:
 /opt/software/Gaussian/g16-AVX2-C.01/g16/l1.exe "/mnt/gs18/scratch/users/kengmith/Gau-126562.inp" -scrdir="/mnt/gs18/scratch/users/kengmith/"
 Entering Link 1 = /opt/software/Gaussian/g16-AVX2-C.01/g16/l1.exe PID=    126572.
  
 Copyright (c) 1988-2019, Gaussian, Inc.  All Rights Reserved.
  
 This is part of the Gaussian(R) 16 program.  It is based on
 the Gaussian(R) 09 system (copyright 2009, Gaussian, Inc.),
 the Gaussian(R) 03 system (copyright 2003, Gaussian, Inc.),
 the Gaussian(R) 98 system (copyright 1998, Gaussian, Inc.),
 the Gaussian(R) 94 system (copyright 1995, Gaussian, Inc.),
 the Gaussian 92(TM) system (copyright 1992, Gaussian, Inc.),
 the Gaussian 90(TM) system (copyright 1990, Gaussian, Inc.),
 the Gaussian 88(TM) system (copyright 1988, Gaussian, Inc.),
 the Gaussian 86(TM) system (copyright 1986, Carnegie Mellon
 University), and the Gaussian 82(TM) system (copyright 1983,
 Carnegie Mellon University). Gaussian is a federally registered
 trademark of Gaussian, Inc.
  
 This software contains proprietary and confidential information,
 including trade secrets, belonging to Gaussian, Inc.
  
 This software is provided under written license and may be
 used, copied, transmitted, or stored only in accord with that
 written license.
  
 The following legend is applicable only to US Government
 contracts under FAR:
  
                    RESTRICTED RIGHTS LEGEND
  
 Use, reproduction and disclosure by the US Government is
 subject to restrictions as set forth in subparagraphs (a)
 and (c) of the Commercial Computer Software - Restricted
 Rights clause in FAR 52.227-19.
  
 Gaussian, Inc.
 340 Quinnipiac St., Bldg. 40, Wallingford CT 06492
  
  
 ---------------------------------------------------------------
 Warning -- This program may not be used in any manner that
 competes with the business of Gaussian, Inc. or will provide
 assistance to any competitor of Gaussian, Inc.  The licensee
 of this program is prohibited from giving any competitor of
 Gaussian, Inc. access to this program.  By using this program,
 the user acknowledges that Gaussian, Inc. is engaged in the
 business of creating and licensing software in the field of
 computational chemistry and represents and warrants to the
 licensee that it is not a competitor of Gaussian, Inc. and that
 it will not use this program in any manner prohibited above.
 ---------------------------------------------------------------
  

 Cite this work as:
 Gaussian 16, Revision C.01,
 M. J. Frisch, G. W. Trucks, H. B. Schlegel, G. E. Scuseria, 
 M. A. Robb, J. R. Cheeseman, G. Scalmani, V. Barone, 
 G. A. Petersson, H. Nakatsuji, X. Li, M. Caricato, A. V. Marenich, 
 J. Bloino, B. G. Janesko, R. Gomperts, B. Mennucci, H. P. Hratchian, 
 J. V. Ortiz, A. F. Izmaylov, J. L. Sonnenberg, D. Williams-Young, 
 F. Ding, F. Lipparini, F. Egidi, J. Goings, B. Peng, A. Petrone, 
 T. Henderson, D. Ranasinghe, V. G. Zakrzewski, J. Gao, N. Rega, 
 G. Zheng, W. Liang, M. Hada, M. Ehara, K. Toyota, R. Fukuda, 
 J. Hasegawa, M. Ishida, T. Nakajima, Y. Honda, O. Kitao, H. Nakai, 
 T. Vreven, K. Throssell, J. A. Montgomery, Jr., J. E. Peralta, 
 F. Ogliaro, M. J. Bearpark, J. J. Heyd, E. N. Brothers, K. N. Kudin, 
 V. N. Staroverov, T. A. Keith, R. Kobayashi, J. Normand, 
 K. Raghavachari, A. P. Rendell, J. C. Burant, S. S. Iyengar, 
 J. Tomasi, M. Cossi, J. M. Millam, M. Klene, C. Adamo, R. Cammi, 
 J. W. Ochterski, R. L. Martin, K. Morokuma, O. Farkas, 
 J. B. Foresman, and D. J. Fox, Gaussian, Inc., Wallingford CT, 2019.
 
 ******************************************
 Gaussian 16:  ES64L-G16RevC.01  3-Jul-2019
                31-May-2022 
 ******************************************
 %mem=12gb
 %nproc=8
 Will use up to    8 processors via shared memory.
 %chk=conf-291.chk
 ----------------------------------------------------------------------
 # B3LYP/6-31G* empiricaldispersion=gd3 opt=calcfc freq=noraman nosymm 
 integral(ultrafinegrid)
 ----------------------------------------------------------------------
 1/10=4,18=20,19=15,26=4,38=1/1,3;
 2/9=110,12=2,15=1,17=6,18=5,40=1/2;
 3/5=1,6=6,7=1,11=2,25=1,30=1,71=2,74=-5,75=-5,124=31,140=1/1,2,3;
 4//1;
 5/5=2,38=5/2;
 8/6=4,10=90,11=11/1;
 11/6=1,8=1,9=11,15=111,16=1,31=1/1,2,10;
 10/6=1,13=1,31=1/2;
 6/7=2,8=2,9=2,10=2,28=1/1;
 7/10=1,25=1,30=1/1,2,3,16;
 1/10=4,18=20,19=15,26=4/3(2);
 2/9=110,15=1/2;
 99//99;
 2/9=110,15=1/2;
 3/5=1,6=6,7=1,11=2,25=1,30=1,71=1,74=-5,75=-5,124=31/1,2,3;
 4/5=5,16=3,69=1/1;
 5/5=2,38=5/2;
 7/30=1/1,2,3,16;
 1/18=20,19=15,26=4/3(-5);
 2/9=110,15=1/2;
 6/7=2,8=2,9=2,10=2,19=2,28=1/1;
 99/9=1/99;
 ------------------------------------------------------------
 Candidate Structure: Conf:291 OPT and FREQ calc in gas phase
 ------------------------------------------------------------
 Symbolic Z-matrix:
 Charge =  1 Multiplicity = 1
 N                    -8.92041   1.02782  -8.3762 
 C                    -7.56062   0.96925  -8.94809 
 C                    -7.28483  -0.44893  -9.48603 
 O                    -7.80513  -0.79193  -10.55426 
 C                    -6.5089    1.4619   -7.96121 
 C                    -6.72045   2.92699  -7.65592 
 N                    -6.83812   3.20402  -6.33289 
 O                    -6.75154   3.77104  -8.53641 
 H                    -8.85976   0.99967  -7.34398 
 H                    -7.53284   1.61845  -9.82833 
 H                    -6.50032   0.89076  -7.04723 
 H                    -5.52962   1.37886  -8.4399 
 H                    -7.06372   4.15325  -6.08808 
 H                    -7.11321   2.45042  -5.71716 
 H                    -9.35549   1.91855  -8.62548 
 H                    -9.52899   0.26072  -8.68859 
 N                    -6.48239  -1.26014  -8.75116 
 C                    -5.9259   -2.46177  -9.33748 
 C                    -6.08407  -3.66284  -8.39198 
 O                    -5.11117  -4.23306  -7.90884 
 C                    -4.45787  -2.26432  -9.7351 
 C                    -4.28193  -1.12601  -10.69818 
 C                    -4.6806   -1.24957  -12.0294 
 C                    -3.75744   0.09174  -10.26874 
 C                    -4.55994  -0.18024  -12.91427 
 C                    -3.65153   1.17006  -11.14184 
 C                    -4.04775   1.03659  -12.47022 
 H                    -6.27977  -1.03548  -7.79106 
 H                    -6.49548  -2.65179  -10.25034 
 H                    -3.87289  -2.08488  -8.83259 
 H                    -4.09921  -3.19825  -10.16836 
 H                    -5.10026  -2.19587  -12.36054 
 H                    -3.43563   0.19922  -9.23794 
 H                    -4.87102  -0.29994  -13.94587 
 H                    -3.25218   2.11125  -10.78511 
 H                    -3.95604   1.8736   -13.15262 
 N                    -7.33904  -4.06049  -8.08884 
 C                    -8.55636  -3.52286  -8.63569 
 C                    -9.22813  -2.49606  -7.7187 
 O                    -10.06818  -1.73319  -8.18469 
 C                    -9.55681  -4.61562  -9.02899 
 C                    -9.94946  -5.52496  -7.87288 
 N                    -11.26287  -5.85479  -7.81824 
 O                    -9.1264   -5.95304  -7.07968 
 H                    -7.41283  -4.87555  -7.49271 
 H                    -8.31597  -2.95025  -9.52885 
 H                    -9.08889  -5.25218  -9.78339 
 H                    -10.43886  -4.15521  -9.4772 
 H                    -11.56281  -6.47917  -7.0901 
 H                    -11.9203  -5.52344  -8.49691 
 N                    -8.88229  -2.5138   -6.40953 
 C                    -9.11117  -1.31215  -5.64842 
 C                    -7.89657  -0.35866  -5.76101 
 O                    -6.77926  -0.84774  -5.95028 
 C                    -9.56013  -1.55374  -4.20928 
 C                    -8.90588  -2.68225  -3.412 
 C                    -7.56369  -2.39233  -2.75201 
 N                    -6.40643  -2.34801  -3.65701 
 C                    -5.90084  -3.40934  -4.29401 
 N                    -6.35891  -4.6571   -4.0161 
 N                    -4.92949  -3.25321  -5.2 
 O                    -8.20464   0.83824  -5.63224 
 H                    -8.05205  -3.02285  -6.17691 
 H                    -9.91597  -0.78396  -6.15723 
 H                    -9.48338  -0.60311  -3.67051 
 H                    -10.63042  -1.78285  -4.27771 
 H                    -9.59649  -2.9399   -2.601 
 H                    -8.81149  -3.57586  -4.02754 
 H                    -7.58986  -1.42261  -2.24953 
 H                    -7.36721  -3.13607  -1.96923 
 H                    -6.30775  -1.49266  -4.19794 
 H                    -5.71348  -5.41547  -4.19556 
 H                    -6.90465  -4.75876  -3.17252 
 H                    -4.90984  -3.89656  -5.98686 
 H                    -4.68994  -2.30206  -5.45065 
 

 GradGradGradGradGradGradGradGradGradGradGradGradGradGradGradGradGradGrad
 Berny optimization.
 Initialization pass.
                           ----------------------------
                           !    Initial Parameters    !
                           ! (Angstroms and Degrees)  !
 --------------------------                            --------------------------
 ! Name  Definition              Value          Derivative Info.                !
 --------------------------------------------------------------------------------
 ! R1    R(1,2)                  1.4763         calculate D2E/DX2 analytically  !
 ! R2    R(1,9)                  1.0344         calculate D2E/DX2 analytically  !
 ! R3    R(1,15)                 1.0222         calculate D2E/DX2 analytically  !
 ! R4    R(1,16)                 1.0278         calculate D2E/DX2 analytically  !
 ! R5    R(2,3)                  1.5416         calculate D2E/DX2 analytically  !
 ! R6    R(2,5)                  1.5241         calculate D2E/DX2 analytically  !
 ! R7    R(2,10)                 1.0941         calculate D2E/DX2 analytically  !
 ! R8    R(3,4)                  1.2367         calculate D2E/DX2 analytically  !
 ! R9    R(3,17)                 1.3572         calculate D2E/DX2 analytically  !
 ! R10   R(5,6)                  1.5114         calculate D2E/DX2 analytically  !
 ! R11   R(5,11)                 1.0778         calculate D2E/DX2 analytically  !
 ! R12   R(5,12)                 1.0932         calculate D2E/DX2 analytically  !
 ! R13   R(6,7)                  1.3568         calculate D2E/DX2 analytically  !
 ! R14   R(6,8)                  1.2201         calculate D2E/DX2 analytically  !
 ! R15   R(7,13)                 1.0059         calculate D2E/DX2 analytically  !
 ! R16   R(7,14)                 1.0113         calculate D2E/DX2 analytically  !
 ! R17   R(17,18)                1.4482         calculate D2E/DX2 analytically  !
 ! R18   R(17,28)                1.0066         calculate D2E/DX2 analytically  !
 ! R19   R(18,19)                1.5367         calculate D2E/DX2 analytically  !
 ! R20   R(18,21)                1.5337         calculate D2E/DX2 analytically  !
 ! R21   R(18,29)                1.0926         calculate D2E/DX2 analytically  !
 ! R22   R(19,20)                1.2268         calculate D2E/DX2 analytically  !
 ! R23   R(19,37)                1.3509         calculate D2E/DX2 analytically  !
 ! R24   R(21,22)                1.5014         calculate D2E/DX2 analytically  !
 ! R25   R(21,30)                1.0904         calculate D2E/DX2 analytically  !
 ! R26   R(21,31)                1.0902         calculate D2E/DX2 analytically  !
 ! R27   R(22,23)                1.3951         calculate D2E/DX2 analytically  !
 ! R28   R(22,24)                1.3937         calculate D2E/DX2 analytically  !
 ! R29   R(23,25)                1.3932         calculate D2E/DX2 analytically  !
 ! R30   R(23,32)                1.0869         calculate D2E/DX2 analytically  !
 ! R31   R(24,26)                1.3915         calculate D2E/DX2 analytically  !
 ! R32   R(24,33)                1.0852         calculate D2E/DX2 analytically  !
 ! R33   R(25,27)                1.3929         calculate D2E/DX2 analytically  !
 ! R34   R(25,34)                1.0841         calculate D2E/DX2 analytically  !
 ! R35   R(26,27)                1.3926         calculate D2E/DX2 analytically  !
 ! R36   R(26,35)                1.0829         calculate D2E/DX2 analytically  !
 ! R37   R(27,36)                1.0838         calculate D2E/DX2 analytically  !
 ! R38   R(37,38)                1.4387         calculate D2E/DX2 analytically  !
 ! R39   R(37,45)                1.0125         calculate D2E/DX2 analytically  !
 ! R40   R(38,39)                1.5318         calculate D2E/DX2 analytically  !
 ! R41   R(38,41)                1.5329         calculate D2E/DX2 analytically  !
 ! R42   R(38,46)                1.0878         calculate D2E/DX2 analytically  !
 ! R43   R(39,40)                1.2267         calculate D2E/DX2 analytically  !
 ! R44   R(39,51)                1.3542         calculate D2E/DX2 analytically  !
 ! R45   R(41,42)                1.5224         calculate D2E/DX2 analytically  !
 ! R46   R(41,47)                1.0924         calculate D2E/DX2 analytically  !
 ! R47   R(41,48)                1.0913         calculate D2E/DX2 analytically  !
 ! R48   R(42,43)                1.3553         calculate D2E/DX2 analytically  !
 ! R49   R(42,44)                1.2206         calculate D2E/DX2 analytically  !
 ! R50   R(43,49)                1.005          calculate D2E/DX2 analytically  !
 ! R51   R(43,50)                1.0013         calculate D2E/DX2 analytically  !
 ! R52   R(51,52)                1.4407         calculate D2E/DX2 analytically  !
 ! R53   R(51,63)                1.0013         calculate D2E/DX2 analytically  !
 ! R54   R(52,53)                1.5482         calculate D2E/DX2 analytically  !
 ! R55   R(52,55)                1.5268         calculate D2E/DX2 analytically  !
 ! R56   R(52,64)                1.0888         calculate D2E/DX2 analytically  !
 ! R57   R(53,54)                1.2343         calculate D2E/DX2 analytically  !
 ! R58   R(53,62)                1.2426         calculate D2E/DX2 analytically  !
 ! R59   R(55,56)                1.5288         calculate D2E/DX2 analytically  !
 ! R60   R(55,65)                1.0954         calculate D2E/DX2 analytically  !
 ! R61   R(55,66)                1.0967         calculate D2E/DX2 analytically  !
 ! R62   R(56,57)                1.5235         calculate D2E/DX2 analytically  !
 ! R63   R(56,67)                1.0959         calculate D2E/DX2 analytically  !
 ! R64   R(56,68)                1.0892         calculate D2E/DX2 analytically  !
 ! R65   R(57,58)                1.4698         calculate D2E/DX2 analytically  !
 ! R66   R(57,69)                1.0925         calculate D2E/DX2 analytically  !
 ! R67   R(57,70)                1.0975         calculate D2E/DX2 analytically  !
 ! R68   R(58,59)                1.3371         calculate D2E/DX2 analytically  !
 ! R69   R(58,71)                1.0168         calculate D2E/DX2 analytically  !
 ! R70   R(59,60)                1.3579         calculate D2E/DX2 analytically  !
 ! R71   R(59,61)                1.3374         calculate D2E/DX2 analytically  !
 ! R72   R(60,72)                1.0119         calculate D2E/DX2 analytically  !
 ! R73   R(60,73)                1.0099         calculate D2E/DX2 analytically  !
 ! R74   R(61,74)                1.0166         calculate D2E/DX2 analytically  !
 ! R75   R(61,75)                1.0124         calculate D2E/DX2 analytically  !
 ! A1    A(2,1,9)              109.359          calculate D2E/DX2 analytically  !
 ! A2    A(2,1,15)             109.399          calculate D2E/DX2 analytically  !
 ! A3    A(2,1,16)             113.455          calculate D2E/DX2 analytically  !
 ! A4    A(9,1,15)             106.9801         calculate D2E/DX2 analytically  !
 ! A5    A(9,1,16)             108.5236         calculate D2E/DX2 analytically  !
 ! A6    A(15,1,16)            108.9184         calculate D2E/DX2 analytically  !
 ! A7    A(1,2,3)              109.6598         calculate D2E/DX2 analytically  !
 ! A8    A(1,2,5)              111.8356         calculate D2E/DX2 analytically  !
 ! A9    A(1,2,10)             108.1497         calculate D2E/DX2 analytically  !
 ! A10   A(3,2,5)              113.5697         calculate D2E/DX2 analytically  !
 ! A11   A(3,2,10)             105.1037         calculate D2E/DX2 analytically  !
 ! A12   A(5,2,10)             108.1581         calculate D2E/DX2 analytically  !
 ! A13   A(2,3,4)              118.7689         calculate D2E/DX2 analytically  !
 ! A14   A(2,3,17)             117.8182         calculate D2E/DX2 analytically  !
 ! A15   A(4,3,17)             123.4122         calculate D2E/DX2 analytically  !
 ! A16   A(2,5,6)              110.3369         calculate D2E/DX2 analytically  !
 ! A17   A(2,5,11)             112.539          calculate D2E/DX2 analytically  !
 ! A18   A(2,5,12)             108.0638         calculate D2E/DX2 analytically  !
 ! A19   A(6,5,11)             110.09           calculate D2E/DX2 analytically  !
 ! A20   A(6,5,12)             106.7064         calculate D2E/DX2 analytically  !
 ! A21   A(11,5,12)            108.9023         calculate D2E/DX2 analytically  !
 ! A22   A(5,6,7)              114.0169         calculate D2E/DX2 analytically  !
 ! A23   A(5,6,8)              121.8959         calculate D2E/DX2 analytically  !
 ! A24   A(7,6,8)              124.0708         calculate D2E/DX2 analytically  !
 ! A25   A(6,7,13)             116.7064         calculate D2E/DX2 analytically  !
 ! A26   A(6,7,14)             117.7187         calculate D2E/DX2 analytically  !
 ! A27   A(13,7,14)            119.6047         calculate D2E/DX2 analytically  !
 ! A28   A(3,17,18)            120.2593         calculate D2E/DX2 analytically  !
 ! A29   A(3,17,28)            120.1353         calculate D2E/DX2 analytically  !
 ! A30   A(18,17,28)           119.6011         calculate D2E/DX2 analytically  !
 ! A31   A(17,18,19)           111.0909         calculate D2E/DX2 analytically  !
 ! A32   A(17,18,21)           111.4657         calculate D2E/DX2 analytically  !
 ! A33   A(17,18,29)           106.3931         calculate D2E/DX2 analytically  !
 ! A34   A(19,18,21)           111.0179         calculate D2E/DX2 analytically  !
 ! A35   A(19,18,29)           108.9327         calculate D2E/DX2 analytically  !
 ! A36   A(21,18,29)           107.7438         calculate D2E/DX2 analytically  !
 ! A37   A(18,19,20)           121.5967         calculate D2E/DX2 analytically  !
 ! A38   A(18,19,37)           117.6291         calculate D2E/DX2 analytically  !
 ! A39   A(20,19,37)           120.7648         calculate D2E/DX2 analytically  !
 ! A40   A(18,21,22)           112.091          calculate D2E/DX2 analytically  !
 ! A41   A(18,21,30)           108.6705         calculate D2E/DX2 analytically  !
 ! A42   A(18,21,31)           107.9173         calculate D2E/DX2 analytically  !
 ! A43   A(22,21,30)           110.0779         calculate D2E/DX2 analytically  !
 ! A44   A(22,21,31)           110.8548         calculate D2E/DX2 analytically  !
 ! A45   A(30,21,31)           107.0622         calculate D2E/DX2 analytically  !
 ! A46   A(21,22,23)           120.7597         calculate D2E/DX2 analytically  !
 ! A47   A(21,22,24)           120.59           calculate D2E/DX2 analytically  !
 ! A48   A(23,22,24)           118.6162         calculate D2E/DX2 analytically  !
 ! A49   A(22,23,25)           120.8848         calculate D2E/DX2 analytically  !
 ! A50   A(22,23,32)           118.5668         calculate D2E/DX2 analytically  !
 ! A51   A(25,23,32)           120.5439         calculate D2E/DX2 analytically  !
 ! A52   A(22,24,26)           120.8237         calculate D2E/DX2 analytically  !
 ! A53   A(22,24,33)           119.3943         calculate D2E/DX2 analytically  !
 ! A54   A(26,24,33)           119.7804         calculate D2E/DX2 analytically  !
 ! A55   A(23,25,27)           119.9919         calculate D2E/DX2 analytically  !
 ! A56   A(23,25,34)           119.6544         calculate D2E/DX2 analytically  !
 ! A57   A(27,25,34)           120.3529         calculate D2E/DX2 analytically  !
 ! A58   A(24,26,27)           120.1714         calculate D2E/DX2 analytically  !
 ! A59   A(24,26,35)           119.664          calculate D2E/DX2 analytically  !
 ! A60   A(27,26,35)           120.1629         calculate D2E/DX2 analytically  !
 ! A61   A(25,27,26)           119.5003         calculate D2E/DX2 analytically  !
 ! A62   A(25,27,36)           120.334          calculate D2E/DX2 analytically  !
 ! A63   A(26,27,36)           120.1656         calculate D2E/DX2 analytically  !
 ! A64   A(19,37,38)           126.2087         calculate D2E/DX2 analytically  !
 ! A65   A(19,37,45)           115.899          calculate D2E/DX2 analytically  !
 ! A66   A(38,37,45)           117.5765         calculate D2E/DX2 analytically  !
 ! A67   A(37,38,39)           113.204          calculate D2E/DX2 analytically  !
 ! A68   A(37,38,41)           112.5416         calculate D2E/DX2 analytically  !
 ! A69   A(37,38,46)           108.7712         calculate D2E/DX2 analytically  !
 ! A70   A(39,38,41)           110.1961         calculate D2E/DX2 analytically  !
 ! A71   A(39,38,46)           103.6252         calculate D2E/DX2 analytically  !
 ! A72   A(41,38,46)           107.987          calculate D2E/DX2 analytically  !
 ! A73   A(38,39,40)           119.3256         calculate D2E/DX2 analytically  !
 ! A74   A(38,39,51)           117.2548         calculate D2E/DX2 analytically  !
 ! A75   A(40,39,51)           123.386          calculate D2E/DX2 analytically  !
 ! A76   A(38,41,42)           113.5343         calculate D2E/DX2 analytically  !
 ! A77   A(38,41,47)           108.2429         calculate D2E/DX2 analytically  !
 ! A78   A(38,41,48)           109.399          calculate D2E/DX2 analytically  !
 ! A79   A(42,41,47)           106.6701         calculate D2E/DX2 analytically  !
 ! A80   A(42,41,48)           110.8206         calculate D2E/DX2 analytically  !
 ! A81   A(47,41,48)           107.9648         calculate D2E/DX2 analytically  !
 ! A82   A(41,42,43)           115.2098         calculate D2E/DX2 analytically  !
 ! A83   A(41,42,44)           121.9425         calculate D2E/DX2 analytically  !
 ! A84   A(43,42,44)           122.8143         calculate D2E/DX2 analytically  !
 ! A85   A(42,43,49)           118.0114         calculate D2E/DX2 analytically  !
 ! A86   A(42,43,50)           121.8991         calculate D2E/DX2 analytically  !
 ! A87   A(49,43,50)           120.0466         calculate D2E/DX2 analytically  !
 ! A88   A(39,51,52)           117.337          calculate D2E/DX2 analytically  !
 ! A89   A(39,51,63)           116.2969         calculate D2E/DX2 analytically  !
 ! A90   A(52,51,63)           115.6609         calculate D2E/DX2 analytically  !
 ! A91   A(51,52,53)           110.5249         calculate D2E/DX2 analytically  !
 ! A92   A(51,52,55)           114.3745         calculate D2E/DX2 analytically  !
 ! A93   A(51,52,64)           105.9714         calculate D2E/DX2 analytically  !
 ! A94   A(53,52,55)           113.3712         calculate D2E/DX2 analytically  !
 ! A95   A(53,52,64)           104.3079         calculate D2E/DX2 analytically  !
 ! A96   A(55,52,64)           107.4501         calculate D2E/DX2 analytically  !
 ! A97   A(52,53,54)           118.5084         calculate D2E/DX2 analytically  !
 ! A98   A(52,53,62)           113.027          calculate D2E/DX2 analytically  !
 ! A99   A(54,53,62)           128.4624         calculate D2E/DX2 analytically  !
 ! A100  A(52,55,56)           118.8507         calculate D2E/DX2 analytically  !
 ! A101  A(52,55,65)           107.7998         calculate D2E/DX2 analytically  !
 ! A102  A(52,55,66)           105.1428         calculate D2E/DX2 analytically  !
 ! A103  A(56,55,65)           110.7398         calculate D2E/DX2 analytically  !
 ! A104  A(56,55,66)           107.2165         calculate D2E/DX2 analytically  !
 ! A105  A(65,55,66)           106.2834         calculate D2E/DX2 analytically  !
 ! A106  A(55,56,57)           117.5465         calculate D2E/DX2 analytically  !
 ! A107  A(55,56,67)           106.8452         calculate D2E/DX2 analytically  !
 ! A108  A(55,56,68)           110.3638         calculate D2E/DX2 analytically  !
 ! A109  A(57,56,67)           106.2197         calculate D2E/DX2 analytically  !
 ! A110  A(57,56,68)           108.9411         calculate D2E/DX2 analytically  !
 ! A111  A(67,56,68)           106.2562         calculate D2E/DX2 analytically  !
 ! A112  A(56,57,58)           115.6363         calculate D2E/DX2 analytically  !
 ! A113  A(56,57,69)           110.3071         calculate D2E/DX2 analytically  !
 ! A114  A(56,57,70)           109.739          calculate D2E/DX2 analytically  !
 ! A115  A(58,57,69)           105.9799         calculate D2E/DX2 analytically  !
 ! A116  A(58,57,70)           108.5815         calculate D2E/DX2 analytically  !
 ! A117  A(69,57,70)           106.1262         calculate D2E/DX2 analytically  !
 ! A118  A(57,58,59)           124.5505         calculate D2E/DX2 analytically  !
 ! A119  A(57,58,71)           115.425          calculate D2E/DX2 analytically  !
 ! A120  A(59,58,71)           112.1835         calculate D2E/DX2 analytically  !
 ! A121  A(58,59,60)           120.2861         calculate D2E/DX2 analytically  !
 ! A122  A(58,59,61)           120.3109         calculate D2E/DX2 analytically  !
 ! A123  A(60,59,61)           119.3991         calculate D2E/DX2 analytically  !
 ! A124  A(59,60,72)           115.9258         calculate D2E/DX2 analytically  !
 ! A125  A(59,60,73)           116.4718         calculate D2E/DX2 analytically  !
 ! A126  A(72,60,73)           114.6713         calculate D2E/DX2 analytically  !
 ! A127  A(59,61,74)           117.6778         calculate D2E/DX2 analytically  !
 ! A128  A(59,61,75)           116.695          calculate D2E/DX2 analytically  !
 ! A129  A(74,61,75)           113.4765         calculate D2E/DX2 analytically  !
 ! D1    D(9,1,2,3)            103.0861         calculate D2E/DX2 analytically  !
 ! D2    D(9,1,2,5)            -23.8259         calculate D2E/DX2 analytically  !
 ! D3    D(9,1,2,10)          -142.8159         calculate D2E/DX2 analytically  !
 ! D4    D(15,1,2,3)          -140.0485         calculate D2E/DX2 analytically  !
 ! D5    D(15,1,2,5)            93.0395         calculate D2E/DX2 analytically  !
 ! D6    D(15,1,2,10)          -25.9505         calculate D2E/DX2 analytically  !
 ! D7    D(16,1,2,3)           -18.2132         calculate D2E/DX2 analytically  !
 ! D8    D(16,1,2,5)          -145.1251         calculate D2E/DX2 analytically  !
 ! D9    D(16,1,2,10)           95.8848         calculate D2E/DX2 analytically  !
 ! D10   D(1,2,3,4)             75.7054         calculate D2E/DX2 analytically  !
 ! D11   D(1,2,3,17)          -104.0035         calculate D2E/DX2 analytically  !
 ! D12   D(5,2,3,4)           -158.366          calculate D2E/DX2 analytically  !
 ! D13   D(5,2,3,17)            21.9251         calculate D2E/DX2 analytically  !
 ! D14   D(10,2,3,4)           -40.3373         calculate D2E/DX2 analytically  !
 ! D15   D(10,2,3,17)          139.9538         calculate D2E/DX2 analytically  !
 ! D16   D(1,2,5,6)            -64.4874         calculate D2E/DX2 analytically  !
 ! D17   D(1,2,5,11)            58.9103         calculate D2E/DX2 analytically  !
 ! D18   D(1,2,5,12)           179.1942         calculate D2E/DX2 analytically  !
 ! D19   D(3,2,5,6)            170.7462         calculate D2E/DX2 analytically  !
 ! D20   D(3,2,5,11)           -65.8562         calculate D2E/DX2 analytically  !
 ! D21   D(3,2,5,12)            54.4278         calculate D2E/DX2 analytically  !
 ! D22   D(10,2,5,6)            54.4977         calculate D2E/DX2 analytically  !
 ! D23   D(10,2,5,11)          177.8954         calculate D2E/DX2 analytically  !
 ! D24   D(10,2,5,12)          -61.8207         calculate D2E/DX2 analytically  !
 ! D25   D(2,3,17,18)         -165.064          calculate D2E/DX2 analytically  !
 ! D26   D(2,3,17,28)           15.6918         calculate D2E/DX2 analytically  !
 ! D27   D(4,3,17,18)           15.2417         calculate D2E/DX2 analytically  !
 ! D28   D(4,3,17,28)         -164.0025         calculate D2E/DX2 analytically  !
 ! D29   D(2,5,6,7)            125.3966         calculate D2E/DX2 analytically  !
 ! D30   D(2,5,6,8)            -56.0237         calculate D2E/DX2 analytically  !
 ! D31   D(11,5,6,7)             0.5877         calculate D2E/DX2 analytically  !
 ! D32   D(11,5,6,8)           179.1674         calculate D2E/DX2 analytically  !
 ! D33   D(12,5,6,7)          -117.4414         calculate D2E/DX2 analytically  !
 ! D34   D(12,5,6,8)            61.1383         calculate D2E/DX2 analytically  !
 ! D35   D(5,6,7,13)          -174.5877         calculate D2E/DX2 analytically  !
 ! D36   D(5,6,7,14)           -21.8359         calculate D2E/DX2 analytically  !
 ! D37   D(8,6,7,13)             6.868          calculate D2E/DX2 analytically  !
 ! D38   D(8,6,7,14)           159.6199         calculate D2E/DX2 analytically  !
 ! D39   D(3,17,18,19)        -133.8301         calculate D2E/DX2 analytically  !
 ! D40   D(3,17,18,21)         101.7869         calculate D2E/DX2 analytically  !
 ! D41   D(3,17,18,29)         -15.4088         calculate D2E/DX2 analytically  !
 ! D42   D(28,17,18,19)         45.4181         calculate D2E/DX2 analytically  !
 ! D43   D(28,17,18,21)        -78.9648         calculate D2E/DX2 analytically  !
 ! D44   D(28,17,18,29)        163.8394         calculate D2E/DX2 analytically  !
 ! D45   D(17,18,19,20)       -115.522          calculate D2E/DX2 analytically  !
 ! D46   D(17,18,19,37)         63.3748         calculate D2E/DX2 analytically  !
 ! D47   D(21,18,19,20)          9.1141         calculate D2E/DX2 analytically  !
 ! D48   D(21,18,19,37)       -171.9891         calculate D2E/DX2 analytically  !
 ! D49   D(29,18,19,20)        127.6004         calculate D2E/DX2 analytically  !
 ! D50   D(29,18,19,37)        -53.5027         calculate D2E/DX2 analytically  !
 ! D51   D(17,18,21,22)        -57.6066         calculate D2E/DX2 analytically  !
 ! D52   D(17,18,21,30)         64.2789         calculate D2E/DX2 analytically  !
 ! D53   D(17,18,21,31)       -179.9519         calculate D2E/DX2 analytically  !
 ! D54   D(19,18,21,22)        177.9694         calculate D2E/DX2 analytically  !
 ! D55   D(19,18,21,30)        -60.145          calculate D2E/DX2 analytically  !
 ! D56   D(19,18,21,31)         55.6242         calculate D2E/DX2 analytically  !
 ! D57   D(29,18,21,22)         58.7676         calculate D2E/DX2 analytically  !
 ! D58   D(29,18,21,30)       -179.3468         calculate D2E/DX2 analytically  !
 ! D59   D(29,18,21,31)        -63.5776         calculate D2E/DX2 analytically  !
 ! D60   D(18,19,37,38)          4.3843         calculate D2E/DX2 analytically  !
 ! D61   D(18,19,37,45)        177.738          calculate D2E/DX2 analytically  !
 ! D62   D(20,19,37,38)       -176.7092         calculate D2E/DX2 analytically  !
 ! D63   D(20,19,37,45)         -3.3555         calculate D2E/DX2 analytically  !
 ! D64   D(18,21,22,23)        -73.2186         calculate D2E/DX2 analytically  !
 ! D65   D(18,21,22,24)        104.6281         calculate D2E/DX2 analytically  !
 ! D66   D(30,21,22,23)        165.7041         calculate D2E/DX2 analytically  !
 ! D67   D(30,21,22,24)        -16.4492         calculate D2E/DX2 analytically  !
 ! D68   D(31,21,22,23)         47.4397         calculate D2E/DX2 analytically  !
 ! D69   D(31,21,22,24)       -134.7136         calculate D2E/DX2 analytically  !
 ! D70   D(21,22,23,25)        177.8298         calculate D2E/DX2 analytically  !
 ! D71   D(21,22,23,32)         -1.4072         calculate D2E/DX2 analytically  !
 ! D72   D(24,22,23,25)         -0.0587         calculate D2E/DX2 analytically  !
 ! D73   D(24,22,23,32)       -179.2957         calculate D2E/DX2 analytically  !
 ! D74   D(21,22,24,26)       -176.9112         calculate D2E/DX2 analytically  !
 ! D75   D(21,22,24,33)          2.6164         calculate D2E/DX2 analytically  !
 ! D76   D(23,22,24,26)          0.9809         calculate D2E/DX2 analytically  !
 ! D77   D(23,22,24,33)       -179.4914         calculate D2E/DX2 analytically  !
 ! D78   D(22,23,25,27)         -0.6351         calculate D2E/DX2 analytically  !
 ! D79   D(22,23,25,34)        179.6711         calculate D2E/DX2 analytically  !
 ! D80   D(32,23,25,27)        178.5868         calculate D2E/DX2 analytically  !
 ! D81   D(32,23,25,34)         -1.107          calculate D2E/DX2 analytically  !
 ! D82   D(22,24,26,27)         -1.2121         calculate D2E/DX2 analytically  !
 ! D83   D(22,24,26,35)        179.2672         calculate D2E/DX2 analytically  !
 ! D84   D(33,24,26,27)        179.2621         calculate D2E/DX2 analytically  !
 ! D85   D(33,24,26,35)         -0.2586         calculate D2E/DX2 analytically  !
 ! D86   D(23,25,27,26)          0.411          calculate D2E/DX2 analytically  !
 ! D87   D(23,25,27,36)       -179.6959         calculate D2E/DX2 analytically  !
 ! D88   D(34,25,27,26)       -179.8974         calculate D2E/DX2 analytically  !
 ! D89   D(34,25,27,36)         -0.0042         calculate D2E/DX2 analytically  !
 ! D90   D(24,26,27,25)          0.5014         calculate D2E/DX2 analytically  !
 ! D91   D(24,26,27,36)       -179.392          calculate D2E/DX2 analytically  !
 ! D92   D(35,26,27,25)       -179.9804         calculate D2E/DX2 analytically  !
 ! D93   D(35,26,27,36)          0.1263         calculate D2E/DX2 analytically  !
 ! D94   D(19,37,38,39)        -98.6595         calculate D2E/DX2 analytically  !
 ! D95   D(19,37,38,41)        135.5643         calculate D2E/DX2 analytically  !
 ! D96   D(19,37,38,46)         15.9477         calculate D2E/DX2 analytically  !
 ! D97   D(45,37,38,39)         88.086          calculate D2E/DX2 analytically  !
 ! D98   D(45,37,38,41)        -37.6902         calculate D2E/DX2 analytically  !
 ! D99   D(45,37,38,46)       -157.3068         calculate D2E/DX2 analytically  !
 ! D100  D(37,38,39,40)        162.2582         calculate D2E/DX2 analytically  !
 ! D101  D(37,38,39,51)        -19.7797         calculate D2E/DX2 analytically  !
 ! D102  D(41,38,39,40)        -70.7206         calculate D2E/DX2 analytically  !
 ! D103  D(41,38,39,51)        107.2414         calculate D2E/DX2 analytically  !
 ! D104  D(46,38,39,40)         44.6025         calculate D2E/DX2 analytically  !
 ! D105  D(46,38,39,51)       -137.4355         calculate D2E/DX2 analytically  !
 ! D106  D(37,38,41,42)         58.1622         calculate D2E/DX2 analytically  !
 ! D107  D(37,38,41,47)        -60.0669         calculate D2E/DX2 analytically  !
 ! D108  D(37,38,41,48)       -177.478          calculate D2E/DX2 analytically  !
 ! D109  D(39,38,41,42)        -69.227          calculate D2E/DX2 analytically  !
 ! D110  D(39,38,41,47)        172.5438         calculate D2E/DX2 analytically  !
 ! D111  D(39,38,41,48)         55.1328         calculate D2E/DX2 analytically  !
 ! D112  D(46,38,41,42)        178.2329         calculate D2E/DX2 analytically  !
 ! D113  D(46,38,41,47)         60.0037         calculate D2E/DX2 analytically  !
 ! D114  D(46,38,41,48)        -57.4073         calculate D2E/DX2 analytically  !
 ! D115  D(38,39,51,52)        158.492          calculate D2E/DX2 analytically  !
 ! D116  D(38,39,51,63)         15.4363         calculate D2E/DX2 analytically  !
 ! D117  D(40,39,51,52)        -23.636          calculate D2E/DX2 analytically  !
 ! D118  D(40,39,51,63)       -166.6917         calculate D2E/DX2 analytically  !
 ! D119  D(38,41,42,43)        138.9508         calculate D2E/DX2 analytically  !
 ! D120  D(38,41,42,44)        -43.0994         calculate D2E/DX2 analytically  !
 ! D121  D(47,41,42,43)       -101.9159         calculate D2E/DX2 analytically  !
 ! D122  D(47,41,42,44)         76.0339         calculate D2E/DX2 analytically  !
 ! D123  D(48,41,42,43)         15.3635         calculate D2E/DX2 analytically  !
 ! D124  D(48,41,42,44)       -166.6867         calculate D2E/DX2 analytically  !
 ! D125  D(41,42,43,49)        177.9283         calculate D2E/DX2 analytically  !
 ! D126  D(41,42,43,50)          0.3115         calculate D2E/DX2 analytically  !
 ! D127  D(44,42,43,49)         -0.0016         calculate D2E/DX2 analytically  !
 ! D128  D(44,42,43,50)       -177.6184         calculate D2E/DX2 analytically  !
 ! D129  D(39,51,52,53)        -87.3109         calculate D2E/DX2 analytically  !
 ! D130  D(39,51,52,55)        143.2952         calculate D2E/DX2 analytically  !
 ! D131  D(39,51,52,64)         25.1237         calculate D2E/DX2 analytically  !
 ! D132  D(63,51,52,53)         55.9769         calculate D2E/DX2 analytically  !
 ! D133  D(63,51,52,55)        -73.417          calculate D2E/DX2 analytically  !
 ! D134  D(63,51,52,64)        168.4115         calculate D2E/DX2 analytically  !
 ! D135  D(51,52,53,54)        -28.5829         calculate D2E/DX2 analytically  !
 ! D136  D(51,52,53,62)        151.9112         calculate D2E/DX2 analytically  !
 ! D137  D(55,52,53,54)        101.3466         calculate D2E/DX2 analytically  !
 ! D138  D(55,52,53,62)        -78.1593         calculate D2E/DX2 analytically  !
 ! D139  D(64,52,53,54)       -142.0796         calculate D2E/DX2 analytically  !
 ! D140  D(64,52,53,62)         38.4145         calculate D2E/DX2 analytically  !
 ! D141  D(51,52,55,56)         40.4286         calculate D2E/DX2 analytically  !
 ! D142  D(51,52,55,65)        167.4067         calculate D2E/DX2 analytically  !
 ! D143  D(51,52,55,66)        -79.5165         calculate D2E/DX2 analytically  !
 ! D144  D(53,52,55,56)        -87.5322         calculate D2E/DX2 analytically  !
 ! D145  D(53,52,55,65)         39.4458         calculate D2E/DX2 analytically  !
 ! D146  D(53,52,55,66)        152.5226         calculate D2E/DX2 analytically  !
 ! D147  D(64,52,55,56)        157.7563         calculate D2E/DX2 analytically  !
 ! D148  D(64,52,55,65)        -75.2656         calculate D2E/DX2 analytically  !
 ! D149  D(64,52,55,66)         37.8111         calculate D2E/DX2 analytically  !
 ! D150  D(52,55,56,57)         82.3044         calculate D2E/DX2 analytically  !
 ! D151  D(52,55,56,67)       -158.5462         calculate D2E/DX2 analytically  !
 ! D152  D(52,55,56,68)        -43.4356         calculate D2E/DX2 analytically  !
 ! D153  D(65,55,56,57)        -43.2731         calculate D2E/DX2 analytically  !
 ! D154  D(65,55,56,67)         75.8763         calculate D2E/DX2 analytically  !
 ! D155  D(65,55,56,68)       -169.0131         calculate D2E/DX2 analytically  !
 ! D156  D(66,55,56,57)       -158.8178         calculate D2E/DX2 analytically  !
 ! D157  D(66,55,56,67)        -39.6685         calculate D2E/DX2 analytically  !
 ! D158  D(66,55,56,68)         75.4421         calculate D2E/DX2 analytically  !
 ! D159  D(55,56,57,58)        -75.0285         calculate D2E/DX2 analytically  !
 ! D160  D(55,56,57,69)         45.1825         calculate D2E/DX2 analytically  !
 ! D161  D(55,56,57,70)        161.7615         calculate D2E/DX2 analytically  !
 ! D162  D(67,56,57,58)        165.4915         calculate D2E/DX2 analytically  !
 ! D163  D(67,56,57,69)        -74.2975         calculate D2E/DX2 analytically  !
 ! D164  D(67,56,57,70)         42.2815         calculate D2E/DX2 analytically  !
 ! D165  D(68,56,57,58)         51.4086         calculate D2E/DX2 analytically  !
 ! D166  D(68,56,57,69)        171.6196         calculate D2E/DX2 analytically  !
 ! D167  D(68,56,57,70)        -71.8014         calculate D2E/DX2 analytically  !
 ! D168  D(56,57,58,59)        -68.7044         calculate D2E/DX2 analytically  !
 ! D169  D(56,57,58,71)         77.903          calculate D2E/DX2 analytically  !
 ! D170  D(69,57,58,59)        168.7585         calculate D2E/DX2 analytically  !
 ! D171  D(69,57,58,71)        -44.6341         calculate D2E/DX2 analytically  !
 ! D172  D(70,57,58,59)         55.1129         calculate D2E/DX2 analytically  !
 ! D173  D(70,57,58,71)       -158.2797         calculate D2E/DX2 analytically  !
 ! D174  D(57,58,59,60)         -7.3726         calculate D2E/DX2 analytically  !
 ! D175  D(57,58,59,61)        173.3536         calculate D2E/DX2 analytically  !
 ! D176  D(71,58,59,60)       -154.9063         calculate D2E/DX2 analytically  !
 ! D177  D(71,58,59,61)         25.8198         calculate D2E/DX2 analytically  !
 ! D178  D(58,59,60,72)       -154.3502         calculate D2E/DX2 analytically  !
 ! D179  D(58,59,60,73)        -14.8367         calculate D2E/DX2 analytically  !
 ! D180  D(61,59,60,72)         24.9303         calculate D2E/DX2 analytically  !
 ! D181  D(61,59,60,73)        164.4438         calculate D2E/DX2 analytically  !
 ! D182  D(58,59,61,74)       -147.386          calculate D2E/DX2 analytically  !
 ! D183  D(58,59,61,75)         -7.2772         calculate D2E/DX2 analytically  !
 ! D184  D(60,59,61,74)         33.3337         calculate D2E/DX2 analytically  !
 ! D185  D(60,59,61,75)        173.4425         calculate D2E/DX2 analytically  !
 --------------------------------------------------------------------------------
 Trust Radius=3.00D-01 FncErr=1.00D-07 GrdErr=1.00D-06 EigMax=2.50D+02 EigMin=1.00D-04
 Number of steps in this run=    399 maximum allowed number of steps=    450.
 GradGradGradGradGradGradGradGradGradGradGradGradGradGradGradGradGradGrad

 Symmetry turned off by external request.
 Stoichiometry    C23H36N9O7(1+)
 Framework group  C1[X(C23H36N9O7)]
 Deg. of freedom   219
 Full point group                 C1      NOp   1
                          Input orientation:                          
 ---------------------------------------------------------------------
 Center     Atomic      Atomic             Coordinates (Angstroms)
 Number     Number       Type             X           Y           Z
 ---------------------------------------------------------------------
      1          7           0       -8.920408    1.027824   -8.376201
      2          6           0       -7.560618    0.969255   -8.948091
      3          6           0       -7.284835   -0.448926   -9.486035
      4          8           0       -7.805128   -0.791925  -10.554259
      5          6           0       -6.508898    1.461903   -7.961208
      6          6           0       -6.720451    2.926986   -7.655919
      7          7           0       -6.838119    3.204016   -6.332886
      8          8           0       -6.751542    3.771036   -8.536406
      9          1           0       -8.859764    0.999669   -7.343983
     10          1           0       -7.532840    1.618451   -9.828326
     11          1           0       -6.500325    0.890761   -7.047230
     12          1           0       -5.529618    1.378861   -8.439898
     13          1           0       -7.063718    4.153254   -6.088080
     14          1           0       -7.113209    2.450423   -5.717159
     15          1           0       -9.355485    1.918547   -8.625484
     16          1           0       -9.528991    0.260716   -8.688588
     17          7           0       -6.482388   -1.260137   -8.751164
     18          6           0       -5.925897   -2.461771   -9.337475
     19          6           0       -6.084075   -3.662836   -8.391975
     20          8           0       -5.111170   -4.233055   -7.908837
     21          6           0       -4.457872   -2.264319   -9.735095
     22          6           0       -4.281929   -1.126013  -10.698179
     23          6           0       -4.680603   -1.249574  -12.029395
     24          6           0       -3.757437    0.091739  -10.268739
     25          6           0       -4.559937   -0.180237  -12.914270
     26          6           0       -3.651530    1.170055  -11.141842
     27          6           0       -4.047745    1.036594  -12.470216
     28          1           0       -6.279769   -1.035484   -7.791061
     29          1           0       -6.495480   -2.651791  -10.250343
     30          1           0       -3.872887   -2.084881   -8.832585
     31          1           0       -4.099207   -3.198246  -10.168355
     32          1           0       -5.100263   -2.195868  -12.360543
     33          1           0       -3.435630    0.199221   -9.237945
     34          1           0       -4.871018   -0.299939  -13.945869
     35          1           0       -3.252184    2.111251  -10.785111
     36          1           0       -3.956036    1.873597  -13.152621
     37          7           0       -7.339039   -4.060491   -8.088840
     38          6           0       -8.556364   -3.522864   -8.635686
     39          6           0       -9.228127   -2.496063   -7.718699
     40          8           0      -10.068177   -1.733189   -8.184693
     41          6           0       -9.556810   -4.615620   -9.028990
     42          6           0       -9.949462   -5.524957   -7.872883
     43          7           0      -11.262865   -5.854789   -7.818237
     44          8           0       -9.126399   -5.953043   -7.079682
     45          1           0       -7.412833   -4.875548   -7.492711
     46          1           0       -8.315974   -2.950253   -9.528851
     47          1           0       -9.088888   -5.252182   -9.783394
     48          1           0      -10.438858   -4.155208   -9.477200
     49          1           0      -11.562813   -6.479166   -7.090099
     50          1           0      -11.920300   -5.523445   -8.496914
     51          7           0       -8.882286   -2.513800   -6.409528
     52          6           0       -9.111166   -1.312148   -5.648424
     53          6           0       -7.896570   -0.358664   -5.761015
     54          8           0       -6.779259   -0.847740   -5.950279
     55          6           0       -9.560134   -1.553738   -4.209279
     56          6           0       -8.905877   -2.682247   -3.412000
     57          6           0       -7.563687   -2.392333   -2.752011
     58          7           0       -6.406429   -2.348011   -3.657013
     59          6           0       -5.900845   -3.409335   -4.294006
     60          7           0       -6.358905   -4.657096   -4.016100
     61          7           0       -4.929487   -3.253215   -5.199999
     62          8           0       -8.204643    0.838240   -5.632236
     63          1           0       -8.052051   -3.022854   -6.176906
     64          1           0       -9.915975   -0.783964   -6.157234
     65          1           0       -9.483377   -0.603107   -3.670509
     66          1           0      -10.630421   -1.782851   -4.277711
     67          1           0       -9.596487   -2.939900   -2.600997
     68          1           0       -8.811490   -3.575855   -4.027540
     69          1           0       -7.589858   -1.422610   -2.249528
     70          1           0       -7.367215   -3.136067   -1.969233
     71          1           0       -6.307753   -1.492661   -4.197939
     72          1           0       -5.713481   -5.415465   -4.195561
     73          1           0       -6.904653   -4.758756   -3.172522
     74          1           0       -4.909840   -3.896561   -5.986862
     75          1           0       -4.689939   -2.302057   -5.450650
 ---------------------------------------------------------------------
 Rotational constants (GHZ):           0.1249312           0.0801336           0.0681017
 Standard basis: 6-31G(d) (6D, 7F)
   657 basis functions,  1236 primitive gaussians,   657 cartesian basis functions
   146 alpha electrons      146 beta electrons
       nuclear repulsion energy      5170.4914644205 Hartrees.
 NAtoms=   75 NActive=   75 NUniq=   75 SFac= 1.00D+00 NAtFMM=   60 NAOKFM=T Big=T
 Integral buffers will be    131072 words long.
 Raffenetti 2 integral format.
 Two-electron integral symmetry is turned off.
 Nuclear repulsion after empirical dispersion term =     5170.3706090950 Hartrees.
 One-electron integrals computed using PRISM.
 NBasis=   657 RedAO= T EigKep=  4.49D-04  NBF=   657
 NBsUse=   657 1.00D-06 EigRej= -1.00D+00 NBFU=   657
 ExpMin= 1.61D-01 ExpMax= 5.48D+03 ExpMxC= 8.25D+02 IAcc=3 IRadAn=         5 AccDes= 0.00D+00
 Harris functional with IExCor=  402 and IRadAn=       5 diagonalized for initial guess.
 HarFok:  IExCor=  402 AccDes= 0.00D+00 IRadAn=         5 IDoV= 1 UseB2=F ITyADJ=14
 ICtDFT=  3500011 ScaDFX=  1.000000  1.000000  1.000000  1.000000
 FoFCou: FMM=F IPFlag=           0 FMFlag=      100000 FMFlg1=        2001
         NFxFlg=           0 DoJE=T BraDBF=F KetDBF=T FulRan=T
         wScrn=  0.000000 ICntrl=       500 IOpCl=  0 I1Cent=   200000004 NGrid=           0
         NMat0=    1 NMatS0=      1 NMatT0=    0 NMatD0=    1 NMtDS0=    0 NMtDT0=    0
 Symmetry not used in FoFCou.
 Requested convergence on RMS density matrix=1.00D-08 within 128 cycles.
 Requested convergence on MAX density matrix=1.00D-06.
 Requested convergence on             energy=1.00D-06.
 No special actions if energy rises.
 Integral accuracy reduced to 1.0D-05 until final iterations.
 Initial convergence to 1.0D-05 achieved.  Increase integral accuracy.
 SCF Done:  E(RB3LYP) =  -1917.48998815     A.U. after   15 cycles
            NFock= 15  Conv=0.76D-08     -V/T= 2.0087
 DoSCS=F DFT=T ScalE2(SS,OS)=  1.000000  1.000000
 Range of M.O.s used for correlation:     1   657
 NBasis=   657 NAE=   146 NBE=   146 NFC=     0 NFV=     0
 NROrb=    657 NOA=   146 NOB=   146 NVA=   511 NVB=   511
 Symmetrizing basis deriv contribution to polar:
 IMax=3 JMax=2 DiffMx= 0.00D+00
 G2DrvN: will do    76 centers at a time, making    1 passes.
 Calling FoFCou, ICntrl=  3107 FMM=T I1Cent=   0 AccDes= 0.00D+00.
 End of G2Drv F.D. properties file   721 does not exist.
 End of G2Drv F.D. properties file   722 does not exist.
 End of G2Drv F.D. properties file   788 does not exist.
          IDoAtm=11111111111111111111111111111111111111111111111111
          IDoAtm=1111111111111111111111111
          Differentiating once with respect to nuclear coordinates.
 CalDSu exits because no D1Ps are significant.
          There are   228 degrees of freedom in the 1st order CPHF.  IDoFFX=6 NUNeed=     0.
    222 vectors produced by pass  0 Test12= 7.46D-14 1.00D-09 XBig12= 1.86D-01 1.15D-01.
 AX will form    72 AO Fock derivatives at one time.
    222 vectors produced by pass  1 Test12= 7.46D-14 1.00D-09 XBig12= 2.39D-02 2.91D-02.
    222 vectors produced by pass  2 Test12= 7.46D-14 1.00D-09 XBig12= 1.59D-04 1.16D-03.
    222 vectors produced by pass  3 Test12= 7.46D-14 1.00D-09 XBig12= 5.92D-07 5.94D-05.
    222 vectors produced by pass  4 Test12= 7.46D-14 1.00D-09 XBig12= 8.58D-10 1.70D-06.
    176 vectors produced by pass  5 Test12= 7.46D-14 1.00D-09 XBig12= 8.12D-13 6.92D-08.
     10 vectors produced by pass  6 Test12= 7.46D-14 1.00D-09 XBig12= 7.21D-16 2.50D-09.
 InvSVY:  IOpt=1 It=  1 EMax= 8.88D-16
 Solved reduced A of dimension  1296 with   228 vectors.
 End of Minotr F.D. properties file   721 does not exist.
 End of Minotr F.D. properties file   722 does not exist.
 End of Minotr F.D. properties file   788 does not exist.

 **********************************************************************

            Population analysis using the SCF Density.

 **********************************************************************

 Alpha  occ. eigenvalues --  -19.23643 -19.23224 -19.23198 -19.22680 -19.22330
 Alpha  occ. eigenvalues --  -19.22149 -19.19178 -14.56649 -14.52019 -14.51175
 Alpha  occ. eigenvalues --  -14.50224 -14.47226 -14.47046 -14.47040 -14.46070
 Alpha  occ. eigenvalues --  -14.42580 -10.47547 -10.40314 -10.40312 -10.40268
 Alpha  occ. eigenvalues --  -10.39812 -10.39747 -10.36796 -10.36670 -10.36286
 Alpha  occ. eigenvalues --  -10.34821 -10.33624 -10.32813 -10.31113 -10.30826
 Alpha  occ. eigenvalues --  -10.30184 -10.28733 -10.27586 -10.26741 -10.25966
 Alpha  occ. eigenvalues --  -10.25791 -10.25728 -10.25683 -10.25505  -1.17913
 Alpha  occ. eigenvalues --   -1.16513  -1.16047  -1.15413  -1.14811  -1.14387
 Alpha  occ. eigenvalues --   -1.12288  -1.11196  -1.08677  -1.05763  -1.05532
 Alpha  occ. eigenvalues --   -1.04651  -1.04202  -1.03274  -1.01174  -0.98250
 Alpha  occ. eigenvalues --   -0.93070  -0.92221  -0.90652  -0.89511  -0.87304
 Alpha  occ. eigenvalues --   -0.86533  -0.82382  -0.81416  -0.81111  -0.79241
 Alpha  occ. eigenvalues --   -0.79078  -0.77196  -0.75496  -0.73774  -0.72372
 Alpha  occ. eigenvalues --   -0.72048  -0.70939  -0.70470  -0.70281  -0.69563
 Alpha  occ. eigenvalues --   -0.69279  -0.68797  -0.67611  -0.67270  -0.66561
 Alpha  occ. eigenvalues --   -0.65821  -0.64660  -0.64524  -0.63997  -0.63358
 Alpha  occ. eigenvalues --   -0.62925  -0.61953  -0.61646  -0.60886  -0.59998
 Alpha  occ. eigenvalues --   -0.59260  -0.58780  -0.58475  -0.57970  -0.57559
 Alpha  occ. eigenvalues --   -0.57114  -0.56691  -0.56391  -0.55635  -0.55103
 Alpha  occ. eigenvalues --   -0.54734  -0.53888  -0.53734  -0.52959  -0.52747
 Alpha  occ. eigenvalues --   -0.52724  -0.52646  -0.52347  -0.51888  -0.51263
 Alpha  occ. eigenvalues --   -0.50871  -0.50647  -0.50090  -0.49461  -0.48954
 Alpha  occ. eigenvalues --   -0.48730  -0.48444  -0.48431  -0.47720  -0.47469
 Alpha  occ. eigenvalues --   -0.47261  -0.46585  -0.46088  -0.45793  -0.45229
 Alpha  occ. eigenvalues --   -0.45187  -0.43128  -0.42878  -0.41182  -0.40943
 Alpha  occ. eigenvalues --   -0.40846  -0.40455  -0.39512  -0.39364  -0.37871
 Alpha  occ. eigenvalues --   -0.37425  -0.37278  -0.36592  -0.36200  -0.35968
 Alpha  occ. eigenvalues --   -0.35265  -0.35122  -0.34320  -0.32918  -0.31955
 Alpha  occ. eigenvalues --   -0.31384
 Alpha virt. eigenvalues --   -0.13200  -0.11179  -0.10371  -0.09978  -0.08637
 Alpha virt. eigenvalues --   -0.07804  -0.07725  -0.07236  -0.07145  -0.05858
 Alpha virt. eigenvalues --   -0.05020  -0.03489  -0.02341  -0.02170  -0.01879
 Alpha virt. eigenvalues --   -0.01363   0.00211   0.00628   0.01060   0.01689
 Alpha virt. eigenvalues --    0.01915   0.02620   0.02687   0.03254   0.03637
 Alpha virt. eigenvalues --    0.04432   0.04548   0.04966   0.05084   0.05507
 Alpha virt. eigenvalues --    0.05703   0.05879   0.06272   0.06609   0.07342
 Alpha virt. eigenvalues --    0.07605   0.07870   0.08224   0.08636   0.08733
 Alpha virt. eigenvalues --    0.09360   0.09610   0.09886   0.10163   0.10551
 Alpha virt. eigenvalues --    0.10642   0.11535   0.11651   0.12225   0.12770
 Alpha virt. eigenvalues --    0.12797   0.13041   0.13654   0.14158   0.14296
 Alpha virt. eigenvalues --    0.15108   0.15733   0.16078   0.16507   0.16982
 Alpha virt. eigenvalues --    0.18034   0.18226   0.18835   0.19857   0.20254
 Alpha virt. eigenvalues --    0.21773   0.23226   0.23963   0.24141   0.24320
 Alpha virt. eigenvalues --    0.25131   0.25403   0.26146   0.26324   0.27437
 Alpha virt. eigenvalues --    0.28050   0.28602   0.29030   0.30401   0.31627
 Alpha virt. eigenvalues --    0.32203   0.33522   0.35645   0.36364   0.36926
 Alpha virt. eigenvalues --    0.37966   0.38190   0.38956   0.39414   0.40764
 Alpha virt. eigenvalues --    0.40994   0.41493   0.42304   0.42632   0.42969
 Alpha virt. eigenvalues --    0.43798   0.43956   0.45109   0.46087   0.46340
 Alpha virt. eigenvalues --    0.46787   0.47585   0.47827   0.48075   0.48268
 Alpha virt. eigenvalues --    0.48640   0.48906   0.49294   0.49798   0.50041
 Alpha virt. eigenvalues --    0.50850   0.50974   0.51431   0.52131   0.52430
 Alpha virt. eigenvalues --    0.52816   0.53347   0.53655   0.54135   0.54303
 Alpha virt. eigenvalues --    0.54667   0.54944   0.55132   0.55215   0.55698
 Alpha virt. eigenvalues --    0.55838   0.56243   0.56753   0.57403   0.57700
 Alpha virt. eigenvalues --    0.57969   0.58143   0.58912   0.59000   0.59450
 Alpha virt. eigenvalues --    0.60333   0.60582   0.60955   0.61405   0.62114
 Alpha virt. eigenvalues --    0.62643   0.62925   0.63807   0.64199   0.65259
 Alpha virt. eigenvalues --    0.65533   0.65887   0.66392   0.66956   0.67682
 Alpha virt. eigenvalues --    0.68633   0.68798   0.69112   0.69446   0.70542
 Alpha virt. eigenvalues --    0.70998   0.71352   0.71562   0.72579   0.73464
 Alpha virt. eigenvalues --    0.73961   0.74086   0.74391   0.74791   0.75047
 Alpha virt. eigenvalues --    0.75392   0.75872   0.76002   0.76525   0.76591
 Alpha virt. eigenvalues --    0.76886   0.77398   0.77828   0.78052   0.78442
 Alpha virt. eigenvalues --    0.78763   0.78947   0.79193   0.79554   0.80048
 Alpha virt. eigenvalues --    0.80352   0.80920   0.81258   0.81657   0.81936
 Alpha virt. eigenvalues --    0.82215   0.82615   0.83747   0.83933   0.84457
 Alpha virt. eigenvalues --    0.85048   0.85322   0.85870   0.85914   0.86581
 Alpha virt. eigenvalues --    0.86692   0.87235   0.87617   0.88704   0.89046
 Alpha virt. eigenvalues --    0.89283   0.90085   0.90934   0.91319   0.92205
 Alpha virt. eigenvalues --    0.92649   0.92853   0.93253   0.94164   0.94431
 Alpha virt. eigenvalues --    0.95123   0.95637   0.95806   0.96603   0.97419
 Alpha virt. eigenvalues --    0.98409   0.98956   0.99831   1.00196   1.01221
 Alpha virt. eigenvalues --    1.01765   1.02356   1.03781   1.04308   1.05284
 Alpha virt. eigenvalues --    1.05599   1.06247   1.07016   1.07310   1.07643
 Alpha virt. eigenvalues --    1.08207   1.08785   1.09771   1.10448   1.11114
 Alpha virt. eigenvalues --    1.11582   1.12398   1.13351   1.14397   1.14760
 Alpha virt. eigenvalues --    1.14988   1.16111   1.16919   1.17608   1.18014
 Alpha virt. eigenvalues --    1.18812   1.19582   1.21508   1.22269   1.22844
 Alpha virt. eigenvalues --    1.24141   1.24265   1.25799   1.26477   1.27379
 Alpha virt. eigenvalues --    1.28139   1.29051   1.30169   1.30642   1.31127
 Alpha virt. eigenvalues --    1.32317   1.32624   1.33151   1.34126   1.34734
 Alpha virt. eigenvalues --    1.35415   1.36501   1.37770   1.38560   1.39494
 Alpha virt. eigenvalues --    1.39765   1.40235   1.41098   1.41718   1.42524
 Alpha virt. eigenvalues --    1.43379   1.43938   1.44437   1.44656   1.45252
 Alpha virt. eigenvalues --    1.46972   1.48105   1.49637   1.50303   1.51531
 Alpha virt. eigenvalues --    1.51822   1.52779   1.53321   1.54731   1.55132
 Alpha virt. eigenvalues --    1.56024   1.57570   1.57674   1.59551   1.59807
 Alpha virt. eigenvalues --    1.61017   1.61777   1.62216   1.62865   1.63617
 Alpha virt. eigenvalues --    1.63917   1.65237   1.65959   1.66233   1.66714
 Alpha virt. eigenvalues --    1.67736   1.67892   1.68977   1.69497   1.70416
 Alpha virt. eigenvalues --    1.70788   1.71713   1.72421   1.72721   1.72942
 Alpha virt. eigenvalues --    1.73138   1.73728   1.74243   1.74844   1.75317
 Alpha virt. eigenvalues --    1.75811   1.76289   1.76995   1.77553   1.78092
 Alpha virt. eigenvalues --    1.78423   1.79029   1.79238   1.79843   1.80563
 Alpha virt. eigenvalues --    1.81098   1.81996   1.82270   1.83137   1.83705
 Alpha virt. eigenvalues --    1.84359   1.84782   1.85665   1.86228   1.86666
 Alpha virt. eigenvalues --    1.87143   1.87538   1.88161   1.89412   1.90182
 Alpha virt. eigenvalues --    1.90739   1.91776   1.92038   1.92921   1.93151
 Alpha virt. eigenvalues --    1.93920   1.94122   1.94785   1.96007   1.96925
 Alpha virt. eigenvalues --    1.97759   1.98510   1.98939   1.99170   2.00338
 Alpha virt. eigenvalues --    2.00565   2.01812   2.01930   2.02870   2.03417
 Alpha virt. eigenvalues --    2.03509   2.04263   2.05260   2.05366   2.06397
 Alpha virt. eigenvalues --    2.06986   2.07866   2.08509   2.09159   2.09738
 Alpha virt. eigenvalues --    2.10439   2.11310   2.12123   2.12812   2.13317
 Alpha virt. eigenvalues --    2.13872   2.15444   2.16889   2.17288   2.18043
 Alpha virt. eigenvalues --    2.18961   2.20144   2.20816   2.21216   2.21610
 Alpha virt. eigenvalues --    2.22648   2.22846   2.24387   2.24647   2.26168
 Alpha virt. eigenvalues --    2.26895   2.27704   2.28683   2.29835   2.30318
 Alpha virt. eigenvalues --    2.31430   2.32063   2.32395   2.34750   2.35011
 Alpha virt. eigenvalues --    2.35763   2.36046   2.37145   2.38769   2.40381
 Alpha virt. eigenvalues --    2.40897   2.41819   2.42777   2.43284   2.43662
 Alpha virt. eigenvalues --    2.44590   2.46034   2.47083   2.47733   2.48757
 Alpha virt. eigenvalues --    2.49124   2.50221   2.50972   2.51313   2.52479
 Alpha virt. eigenvalues --    2.52824   2.53474   2.53694   2.55564   2.55935
 Alpha virt. eigenvalues --    2.57676   2.57999   2.58808   2.59110   2.59504
 Alpha virt. eigenvalues --    2.60278   2.61720   2.62772   2.63752   2.64042
 Alpha virt. eigenvalues --    2.66147   2.67691   2.68449   2.68914   2.69468
 Alpha virt. eigenvalues --    2.70959   2.71966   2.74708   2.76607   2.78253
 Alpha virt. eigenvalues --    2.79133   2.83307   2.84831   2.86754   2.87542
 Alpha virt. eigenvalues --    2.88948   2.90310   2.90851   2.91730   2.92152
 Alpha virt. eigenvalues --    2.93241   2.93934   2.95158   2.96087   2.98542
 Alpha virt. eigenvalues --    2.99169   3.00277   3.03553   3.05750   3.10547
 Alpha virt. eigenvalues --    3.11800   3.35683   3.69132   3.70951   3.73708
 Alpha virt. eigenvalues --    3.77520   3.80580   3.84819   3.86643   3.93549
 Alpha virt. eigenvalues --    3.95682   3.99826   4.01149   4.02398   4.03397
 Alpha virt. eigenvalues --    4.05353   4.07450   4.08544   4.11211   4.12552
 Alpha virt. eigenvalues --    4.14998   4.16627   4.18679   4.22760   4.23861
 Alpha virt. eigenvalues --    4.25356   4.28334   4.30367   4.34911   4.37968
 Alpha virt. eigenvalues --    4.40190   4.41721   4.43436   4.44751   4.47101
 Alpha virt. eigenvalues --    4.50708   4.60446   4.63057   4.65671   4.68792
 Alpha virt. eigenvalues --    4.71179
          Condensed to atoms (all electrons):
 Mulliken charges:
               1
     1  N   -0.792968
     2  C   -0.104266
     3  C    0.604255
     4  O   -0.511328
     5  C   -0.432587
     6  C    0.551939
     7  N   -0.745437
     8  O   -0.504419
     9  H    0.435848
    10  H    0.249938
    11  H    0.211959
    12  H    0.210751
    13  H    0.343801
    14  H    0.371801
    15  H    0.417419
    16  H    0.442717
    17  N   -0.628228
    18  C   -0.095652
    19  C    0.617018
    20  O   -0.540537
    21  C   -0.342294
    22  C    0.170356
    23  C   -0.164465
    24  C   -0.199067
    25  C   -0.126956
    26  C   -0.131136
    27  C   -0.128141
    28  H    0.390783
    29  H    0.213864
    30  H    0.146136
    31  H    0.179830
    32  H    0.127750
    33  H    0.118469
    34  H    0.146896
    35  H    0.146777
    36  H    0.148891
    37  N   -0.623414
    38  C   -0.078628
    39  C    0.623474
    40  O   -0.562439
    41  C   -0.375318
    42  C    0.608378
    43  N   -0.735301
    44  O   -0.526612
    45  H    0.367290
    46  H    0.219489
    47  H    0.206699
    48  H    0.185217
    49  H    0.358799
    50  H    0.358450
    51  N   -0.569608
    52  C   -0.071613
    53  C    0.588912
    54  O   -0.618593
    55  C   -0.285298
    56  C   -0.296920
    57  C   -0.198869
    58  N   -0.565603
    59  C    0.711426
    60  N   -0.725687
    61  N   -0.745655
    62  O   -0.572262
    63  H    0.345574
    64  H    0.174729
    65  H    0.173379
    66  H    0.174409
    67  H    0.178619
    68  H    0.166959
    69  H    0.201192
    70  H    0.178503
    71  H    0.385429
    72  H    0.384726
    73  H    0.377381
    74  H    0.405015
    75  H    0.378052
 Sum of Mulliken charges =   1.00000
 Mulliken charges with hydrogens summed into heavy atoms:
               1
     1  N    0.503017
     2  C    0.145672
     3  C    0.604255
     4  O   -0.511328
     5  C   -0.009877
     6  C    0.551939
     7  N   -0.029835
     8  O   -0.504419
    17  N   -0.237445
    18  C    0.118213
    19  C    0.617018
    20  O   -0.540537
    21  C   -0.016327
    22  C    0.170356
    23  C   -0.036715
    24  C   -0.080599
    25  C    0.019941
    26  C    0.015641
    27  C    0.020749
    37  N   -0.256125
    38  C    0.140861
    39  C    0.623474
    40  O   -0.562439
    41  C    0.016599
    42  C    0.608378
    43  N   -0.018052
    44  O   -0.526612
    51  N   -0.224034
    52  C    0.103116
    53  C    0.588912
    54  O   -0.618593
    55  C    0.062490
    56  C    0.048657
    57  C    0.180827
    58  N   -0.180174
    59  C    0.711426
    60  N    0.036420
    61  N    0.037413
    62  O   -0.572262
 APT charges:
               1
     1  N   -2.293550
     2  C   -1.029377
     3  C   -2.229778
     4  O    2.682887
     5  C    0.961692
     6  C   -1.787357
     7  N   -1.357359
     8  O    1.866239
     9  H   -0.426539
    10  H    1.398170
    11  H   -0.462635
    12  H   -0.079564
    13  H    0.988522
    14  H   -0.105547
    15  H    1.714270
    16  H    1.604248
    17  N    0.431649
    18  C   -2.433008
    19  C    1.549246
    20  O   -1.782264
    21  C    0.146106
    22  C   -1.489463
    23  C   -0.207083
    24  C   -1.025385
    25  C    0.063502
    26  C   -0.840213
    27  C   -0.157836
    28  H   -0.819275
    29  H    1.830983
    30  H   -0.998921
    31  H    0.954851
    32  H    1.258473
    33  H   -1.162421
    34  H    2.359435
    35  H   -0.227991
    36  H    1.572805
    37  N    0.437549
    38  C   -0.851660
    39  C   -0.647236
    40  O    1.453269
    41  C   -3.073522
    42  C    2.042951
    43  N   -1.632803
    44  O   -2.886178
    45  H    0.229022
    46  H    0.789912
    47  H    1.043347
    48  H    1.634574
    49  H    0.716115
    50  H    2.423784
    51  N   -0.071496
    52  C   -1.555061
    53  C    1.078586
    54  O   -1.343667
    55  C   -1.549071
    56  C   -1.883363
    57  C    0.339344
    58  N   -0.773651
    59  C   -0.012861
    60  N   -0.267336
    61  N   -1.547207
    62  O   -0.431019
    63  H   -0.656029
    64  H    1.320505
    65  H   -0.124861
    66  H    1.684356
    67  H    0.893996
    68  H    0.739952
    69  H   -0.061685
    70  H    0.182650
    71  H    0.409941
    72  H    0.559935
    73  H    0.660300
    74  H    1.278741
    75  H   -0.017634
 Sum of APT charges =   1.00000
 APT charges with hydrogens summed into heavy atoms:
               1
     1  N    0.598429
     2  C    0.368793
     3  C   -2.229778
     4  O    2.682887
     5  C    0.419494
     6  C   -1.787357
     7  N   -0.474384
     8  O    1.866239
    17  N   -0.387626
    18  C   -0.602025
    19  C    1.549246
    20  O   -1.782264
    21  C    0.102036
    22  C   -1.489463
    23  C    1.051390
    24  C   -2.187806
    25  C    2.422937
    26  C   -1.068204
    27  C    1.414969
    37  N    0.666571
    38  C   -0.061749
    39  C   -0.647236
    40  O    1.453269
    41  C   -0.395601
    42  C    2.042951
    43  N    1.507096
    44  O   -2.886178
    51  N   -0.727525
    52  C   -0.234555
    53  C    1.078586
    54  O   -1.343667
    55  C    0.010423
    56  C   -0.249415
    57  C    0.460310
    58  N   -0.363711
    59  C   -0.012861
    60  N    0.952899
    61  N   -0.286101
    62  O   -0.431019
 Electronic spatial extent (au):  <R**2>=         135089.2859
 Charge=              1.0000 electrons
 Dipole moment (field-independent basis, Debye):
    X=            -39.6345    Y=            -13.3436    Z=            -27.4500  Tot=             50.0245
 Quadrupole moment (field-independent basis, Debye-Ang):
   XX=            130.4919   YY=           -162.3602   ZZ=            -23.1375
   XY=            112.2555   XZ=            240.2608   YZ=             71.8552
 Traceless Quadrupole moment (field-independent basis, Debye-Ang):
   XX=            148.8272   YY=           -144.0249   ZZ=             -4.8022
   XY=            112.2555   XZ=            240.2608   YZ=             71.8552
 Octapole moment (field-independent basis, Debye-Ang**2):
  XXX=           1354.2913  YYY=            719.2814  ZZZ=           3438.4385  XYY=            998.7591
  XXY=           -699.4213  XXZ=           -554.2915  XZZ=           -194.0828  YZZ=           -170.2748
  YYZ=           1407.4966  XYZ=           -684.3886
 Hexadecapole moment (field-independent basis, Debye-Ang**3):
 XXXX=         -38337.2595 YYYY=         -10069.9668 ZZZZ=         -71773.8177 XXXY=           2440.0547
 XXXZ=         -12115.4171 YYYX=          -5406.9040 YYYZ=          -4987.0680 ZZZX=         -20565.0877
 ZZZY=          -2639.7617 XXYY=          -7844.1511 XXZZ=          -9820.3326 YYZZ=         -14433.9616
 XXYZ=           4646.3687 YYXZ=          -8127.4596 ZZXY=           2537.9580
 N-N= 5.170370609095D+03 E-N=-1.478116095661D+04  KE= 1.900879597356D+03
  Exact polarizability:       0.000       0.000       0.000       0.000       0.000       0.000
 Approx polarizability:     414.234      -2.335     471.766      27.898     -25.756     482.347
 Calling FoFJK, ICntrl=    100127 FMM=F ISym2X=0 I1Cent= 0 IOpClX= 0 NMat=1 NMatS=1 NMatT=0.
 -------------------------------------------------------------------
 Center     Atomic                   Forces (Hartrees/Bohr)
 Number     Number              X              Y              Z
 -------------------------------------------------------------------
      1        7          -0.015965698    0.010115697    0.002013003
      2        6           0.032199677   -0.008764240   -0.012453074
      3        6          -0.010823794   -0.006523812   -0.015588263
      4        8           0.004994935    0.005784447    0.012494604
      5        6           0.001788773    0.005935665   -0.005460835
      6        6           0.001930341    0.008180495    0.008878126
      7        7           0.001884747   -0.000588472   -0.003196293
      8        8          -0.003271776    0.004369434   -0.010620575
      9        1          -0.002009324   -0.000296997    0.010678332
     10        1          -0.002054109   -0.001463597    0.000751871
     11        1           0.004824465   -0.003637293   -0.000128188
     12        1          -0.000708785   -0.001476741   -0.002838886
     13        1          -0.000817881    0.005123754    0.002337779
     14        1          -0.001604479   -0.001709410    0.004948722
     15        1          -0.002929740    0.001847989    0.000338472
     16        1          -0.001810060   -0.006603229   -0.001493881
     17        7          -0.007493718    0.001621031   -0.008720546
     18        6           0.004274155   -0.007609607   -0.003889146
     19        6          -0.003754358    0.006157572   -0.004077309
     20        8           0.011821333   -0.003111874    0.010371090
     21        6           0.002358559   -0.000247386    0.001970054
     22        6           0.000018457    0.000935813   -0.000547408
     23        6          -0.001559359   -0.001894262   -0.001556563
     24        6          -0.001010371    0.002092504    0.002762863
     25        6          -0.001592467   -0.002797239   -0.000966116
     26        6           0.001600237    0.003032890   -0.000160606
     27        6          -0.000051285    0.001195364   -0.000371173
     28        1           0.004759797    0.003237571    0.007776487
     29        1          -0.000770777    0.000078643   -0.000482977
     30        1           0.002383218   -0.001545859    0.002811947
     31        1           0.001489406   -0.003479132   -0.000097642
     32        1           0.000003379   -0.000154170   -0.002537820
     33        1           0.001284754    0.000331298    0.002041338
     34        1          -0.000390261    0.000140949   -0.001495811
     35        1           0.001182780    0.002349553    0.000503033
     36        1           0.000040087    0.001173511   -0.001042799
     37        7           0.003389281   -0.000911055    0.000735024
     38        6          -0.006891896    0.004243927    0.000562094
     39        6           0.003679379   -0.011963839    0.000507926
     40        8          -0.005802088    0.013282735   -0.007787720
     41        6          -0.002053444   -0.003814860   -0.002277713
     42        6          -0.010663670    0.002732719   -0.009829647
     43        7           0.008994047    0.002709680    0.002143073
     44        8           0.011984387   -0.003048629    0.014422352
     45        1          -0.004334051   -0.006666223    0.000656048
     46        1          -0.003308892   -0.000209933   -0.003394468
     47        1           0.000759512   -0.001135150   -0.002904954
     48        1           0.000924535    0.003351490   -0.001691307
     49        1          -0.003607567   -0.004479219    0.002541624
     50        1          -0.006568999    0.001141701   -0.002942828
     51        7          -0.006553201    0.002157016   -0.003216961
     52        6           0.003150895    0.008341806   -0.002574066
     53        6          -0.039515802   -0.014711918    0.018473714
     54        8           0.043320870   -0.015892164   -0.002177529
     55        6          -0.009221834    0.000781466    0.001557445
     56        6          -0.002953592   -0.001310625    0.001199567
     57        6           0.005617252    0.002147305    0.006011520
     58        7          -0.000751404   -0.003060740   -0.003460993
     59        6          -0.006659850    0.000382491    0.009346422
     60        7           0.007973138    0.004988319   -0.001329444
     61        7          -0.001831496    0.001521215    0.000322700
     62        8          -0.004477799    0.026449756   -0.000459847
     63        1           0.007990335   -0.005766277   -0.000719019
     64        1          -0.003335574   -0.001773414    0.002226703
     65        1          -0.000441086    0.000719279    0.000819327
     66        1           0.000414518   -0.001077452    0.003194645
     67        1           0.000324288   -0.000978379    0.000686374
     68        1          -0.002971009   -0.004718068   -0.003065787
     69        1           0.001012769    0.000382188    0.001304889
     70        1           0.001645260    0.001119905    0.000219400
     71        1           0.000397012    0.003966515   -0.001367084
     72        1          -0.001148041   -0.003017969   -0.000934972
     73        1          -0.002056200   -0.003591922   -0.000960769
     74        1           0.004247129   -0.004930829   -0.007564603
     75        1          -0.000897965    0.000838292   -0.001222943
 -------------------------------------------------------------------
 Cartesian Forces:  Max     0.043320870 RMS     0.006975776
 FormGI is forming the generalized inverse of G from B-inverse, IUseBI=4.

 GradGradGradGradGradGradGradGradGradGradGradGradGradGradGradGradGradGrad
 Berny optimization.
 Internal  Forces:  Max     0.063361096 RMS     0.011149282
 Search for a local minimum.
 Step number   1 out of a maximum of  399
 All quantities printed in internal units (Hartrees-Bohrs-Radians)
 Mixed Optimization -- RFO/linear search
 Second derivative matrix not updated -- analytic derivatives used.
 ITU=  0
     Eigenvalues ---   -0.00537  -0.00442  -0.00096  -0.00056   0.00107
     Eigenvalues ---    0.00140   0.00157   0.00233   0.00285   0.00389
     Eigenvalues ---    0.00400   0.00421   0.00474   0.00519   0.00643
     Eigenvalues ---    0.00909   0.00958   0.01044   0.01133   0.01185
     Eigenvalues ---    0.01365   0.01486   0.01510   0.01664   0.01732
     Eigenvalues ---    0.01744   0.01781   0.01798   0.01896   0.02040
     Eigenvalues ---    0.02135   0.02398   0.02414   0.02467   0.02491
     Eigenvalues ---    0.02495   0.02662   0.02738   0.02792   0.02863
     Eigenvalues ---    0.03039   0.03525   0.03543   0.03733   0.03887
     Eigenvalues ---    0.04042   0.04046   0.04090   0.04154   0.04201
     Eigenvalues ---    0.04224   0.04315   0.04399   0.04409   0.04456
     Eigenvalues ---    0.04601   0.04732   0.04829   0.05043   0.05087
     Eigenvalues ---    0.05265   0.05338   0.05511   0.05732   0.05791
     Eigenvalues ---    0.06071   0.06220   0.06498   0.06598   0.06699
     Eigenvalues ---    0.07047   0.07465   0.07767   0.08191   0.08223
     Eigenvalues ---    0.08418   0.08443   0.08530   0.09051   0.09508
     Eigenvalues ---    0.11022   0.11309   0.11336   0.11411   0.11602
     Eigenvalues ---    0.11726   0.11942   0.12193   0.12276   0.12386
     Eigenvalues ---    0.12604   0.12641   0.12692   0.12785   0.13008
     Eigenvalues ---    0.13203   0.13439   0.13677   0.13827   0.14235
     Eigenvalues ---    0.14551   0.14697   0.14847   0.15236   0.16017
     Eigenvalues ---    0.16460   0.16861   0.18451   0.18720   0.18875
     Eigenvalues ---    0.19027   0.19461   0.19654   0.19776   0.19906
     Eigenvalues ---    0.20313   0.20379   0.20588   0.20739   0.21568
     Eigenvalues ---    0.22017   0.22172   0.22446   0.22770   0.22852
     Eigenvalues ---    0.23270   0.23409   0.23728   0.23850   0.24205
     Eigenvalues ---    0.24877   0.25443   0.26569   0.27028   0.27272
     Eigenvalues ---    0.27712   0.28488   0.28827   0.29098   0.29737
     Eigenvalues ---    0.30307   0.30575   0.30696   0.31059   0.31669
     Eigenvalues ---    0.33030   0.33215   0.33532   0.33665   0.33750
     Eigenvalues ---    0.34001   0.34167   0.34225   0.34391   0.34478
     Eigenvalues ---    0.34584   0.34674   0.34741   0.35049   0.35148
     Eigenvalues ---    0.35267   0.35341   0.35518   0.35814   0.35983
     Eigenvalues ---    0.36095   0.36202   0.36378   0.36593   0.36701
     Eigenvalues ---    0.36881   0.36935   0.37253   0.37847   0.38710
     Eigenvalues ---    0.39669   0.41243   0.41430   0.42665   0.43051
     Eigenvalues ---    0.43516   0.43719   0.43926   0.44552   0.45297
     Eigenvalues ---    0.45663   0.46174   0.46647   0.46947   0.47115
     Eigenvalues ---    0.47769   0.48047   0.48408   0.48538   0.48659
     Eigenvalues ---    0.49371   0.49448   0.49845   0.50123   0.50387
     Eigenvalues ---    0.50711   0.51280   0.51511   0.52515   0.54998
     Eigenvalues ---    0.64335   0.65732   0.67259   0.77909   0.80726
     Eigenvalues ---    0.83642   0.85612   0.86375   0.86452   0.87638
     Eigenvalues ---    1.15235   2.37871   3.31951   9.74153
 RFO step:  Lambda=-3.47138918D-02 EMin=-5.36691314D-03
 Linear search not attempted -- first point.
 Iteration  1 RMS(Cart)=  0.38468244 RMS(Int)=  0.01759960
 Iteration  2 RMS(Cart)=  0.11513484 RMS(Int)=  0.00202116
 Iteration  3 RMS(Cart)=  0.00416578 RMS(Int)=  0.00041094
 Iteration  4 RMS(Cart)=  0.00001020 RMS(Int)=  0.00041091
 Iteration  5 RMS(Cart)=  0.00000000 RMS(Int)=  0.00041091
 Variable       Old X    -DE/DX   Delta X   Delta X   Delta X     New X
                                 (Linear)    (Quad)   (Total)
    R1        2.78984   0.02559   0.00000   0.07533   0.07533   2.86517
    R2        1.95470   0.01055   0.00000   0.00834   0.00834   1.96304
    R3        1.93161   0.00277   0.00000   0.00461   0.00461   1.93622
    R4        1.94230   0.00645   0.00000   0.03361   0.03361   1.97591
    R5        2.91329   0.00592   0.00000   0.00552   0.00552   2.91881
    R6        2.88005   0.00407   0.00000   0.00730   0.00730   2.88736
    R7        2.06754  -0.00153   0.00000  -0.00748  -0.00748   2.06006
    R8        2.33705  -0.01450   0.00000  -0.01890  -0.01890   2.31814
    R9        2.56476   0.00789   0.00000   0.00972   0.00972   2.57447
   R10        2.85619   0.01564   0.00000   0.03516   0.03516   2.89135
   R11        2.03673   0.00186   0.00000   0.02421   0.02421   2.06094
   R12        2.06580   0.00072   0.00000   0.00335   0.00335   2.06915
   R13        2.56405   0.00461   0.00000   0.00051   0.00051   2.56457
   R14        2.30565   0.01077   0.00000   0.01194   0.01194   2.31759
   R15        1.90092   0.00559   0.00000   0.01154   0.01154   1.91245
[...]
 5873,0.00006587,0.00007526,-0.00012721,-0.00009055,-0.00018026,-0.0002
 2321,-0.00008437,0.00014209,0.00046503,0.00012419,-0.00002296,0.000085
 58,0.00000503,0.00004375,-0.00031872,-0.00037691,-0.00002427,-0.000038
 71,0.00078529,0.00042500,0.00019102,-0.00014218,-0.00345962,0.00118795
 ,-0.00018157,-0.00116766,-0.00401551,-0.01628990,0.00454640,0.00576883
 ,0.07264064,-0.00653501,-0.05741430,0.00047971,-0.00370942,0.00024047,
 0.00002218,0.00000050,-0.00016036,-0.00004522,0.00084915,-0.00009874,0
 .00004973,-0.00004026,-0.00007415,-0.00000467,-0.00003757,-0.00003685,
 -0.00001994,0.00017409,-0.00006990,0.00005171,-0.00000645,-0.00003645,
 -0.00000231,-0.00010896,0.00019328,-0.00010477,0.00115621,-0.00013286,
 0.00106793,0.00064328,-0.00283558,0.00017276,-0.00007058,0.00026056,0.
 02346928,0.01663968,0.00268678,-0.08368106,-0.00944158,0.05581415,0.00
 002047,-0.00021598,0.00014115,0.00008475,0.00004984,-0.00007265,-0.000
 25264,0.00024389,-0.00036033,0.00006022,-0.00007614,0.00027242,0.00003
 185,-0.00001758,0.00000046,0.00014299,0.00015239,-0.00007982,-0.000092
 80,-0.00012325,0.00003732,-0.00011904,-0.00009702,0.00006925,-0.000129
 69,0.00014443,-0.00018488,-0.00000686,-0.00000983,0.00000742,0.0000389
 3,0.00000749,-0.00002754,0.00002621,-0.00001458,-0.00000047,0.00000091
 ,0.00001011,0.00000568,0.00003373,-0.00000749,-0.00000769,0.00001175,0
 .00013353,-0.00003008,0.00001718,0.00017824,-0.00003433,-0.00018895,-0
 .00046551,0.00040224,0.00030996,0.00028819,-0.00054631,-0.00493064,0.0
 0096533,-0.00338229,0.00045990,0.00007066,0.00284005,0.00014138,0.0000
 3320,0.00056645,-0.00021917,-0.00004619,-0.00016688,0.00000286,0.00007
 182,0.00003994,-0.00003374,0.00001135,0.00015152,-0.00003185,0.0000070
 9,-0.00005490,-0.00002419,-0.00000886,-0.00001874,-0.00001866,0.000014
 10,-0.00000522,0.00006124,0.00026651,-0.00025023,-0.00014570,-0.000133
 94,-0.00001282,0.00047912,-0.00040543,-0.00010985,0.00005526,0.0000398
 7,0.00020290,0.00001964,-0.00001972,-0.00003847,0.00005529,-0.00005040
 ,-0.00003195,0.00001034,0.00000541,-0.00000936,0.00001400,-0.00001407,
 0.00000180,0.00000846,-0.00000206,-0.00001050,0.00120630,0.00058012,0.
 00017793,-0.00059777,0.00019170,-0.00025368,-0.00030946,0.00027889,-0.
 00042618,0.00035915,-0.00051335,0.00019802,0.00002318,-0.00009810,0.00
 002044,-0.00052086,-0.00005903,0.00000036,0.00028910,0.00008641,-0.000
 08197,0.00042842,0.00011384,0.00002395,-0.00021286,-0.00039706,-0.0000
 2899,0.00011249,-0.00002480,0.00001382,-0.00002806,0.00000037,-0.00001
 755,0.00005032,0.00001803,-0.00002223,-0.00001945,-0.00003620,0.000019
 87,-0.00003471,-0.00001412,-0.00001181,0.00038503,0.00006452,0.0000494
 8,-0.00007942,0.00011165,0.00028929,-0.00019076,0.00030230,0.00017933,
 0.00011751,-0.00016520,-0.00013195,-0.00005209,0.00001330,-0.00000347,
 0.00034178,0.00022685,-0.00032370,0.00161268,-0.00019867,0.00247090,-0
 .00102827,-0.00486143,-0.00008550,-0.01590646,0.00986690,0.02702951,-0
 .00006852,0.00313610,-0.00153495,-0.06911015,0.01206115,0.12623417,0.0
 0013348,-0.00038952,0.00006931,-0.00064784,-0.00011840,0.00032452,0.00
 003161,-0.00002879,-0.00002274,-0.00001321,-0.00000780,-0.00001934,0.0
 0001617,0.00001309,-0.00000482,0.00015699,-0.00001323,0.00001691,-0.00
 003242,-0.00000493,-0.00001734,-0.00050409,-0.00023664,0.00020466,-0.0
 0008106,-0.00006394,0.00006012,-0.00045207,-0.00038703,-0.00066366,0.0
 0102962,-0.00249290,0.00045553,-0.00060486,0.00045726,-0.00058084,0.08
 756970,-0.00006438,-0.00002522,-0.00005871,0.00003731,0.00002437,0.000
 02177,0.00009495,-0.00010069,0.00007608,-0.00007838,-0.00010003,-0.000
 10590,0.00001973,0.00001268,0.00000138,0.00003413,-0.00003346,-0.00001
 199,-0.00001663,0.00000532,-0.00000986,-0.00004204,0.00001687,0.000007
 67,0.00009029,-0.00004899,0.00011852,0.00000044,-0.00000890,-0.0000049
 5,0.00001004,-0.00001340,0.00000119,0.00001412,-0.00000410,-0.00000107
 ,0.00000126,-0.00000775,0.00000792,0.00001496,-0.00001796,0.00000573,0
 .00000785,0.00000492,-0.00000419,0.00003157,0.00006282,-0.00000240,-0.
 00019981,-0.00024756,0.00009209,0.00047504,0.00015250,0.00012551,-0.00
 465313,0.00321387,-0.00134109,0.00340740,-0.00452251,0.00280950,0.0006
 1662,0.00029028,0.00132226,-0.00019428,-0.00025725,-0.00039029,0.00006
 377,0.00018759,0.00002115,0.00004854,0.00001710,0.00014773,-0.00003233
 ,-0.00000012,-0.00007361,-0.00002094,-0.00003333,-0.00004266,-0.000009
 60,0.00002141,-0.00001759,0.00030063,-0.00016696,0.00022913,-0.0001789
 9,-0.00009781,-0.00004655,-0.00059239,-0.00064783,0.00003000,0.0000069
 1,-0.00000485,-0.00039199,-0.00000337,-0.00001549,-0.00001716,-0.00005
 131,-0.00005944,-0.00003376,0.00000481,0.00002104,-0.00001837,0.000004
 05,0.00000828,0.00000386,0.00000108,0.00000940,-0.00001404,0.00311644,
 0.00028040,0.00015563,-0.00060159,0.00024092,-0.00047331,0.00035448,0.
 00037561,0.00075299,-0.00000074,-0.00031186,-0.00024620,0.00008774,-0.
 00012744,-0.00000520,-0.00021409,-0.00004038,0.00016039,0.00012422,-0.
 00000657,-0.00010134,0.00019453,-0.00000275,-0.00024647,-0.00023314,-0
 .00018381,0.00035566,0.00011939,-0.00002070,0.00000188,-0.00005932,-0.
 00002098,-0.00002560,0.00007165,0.00004985,-0.00001959,0.00000343,0.00
 002549,0.00003320,-0.00001385,0.00001654,0.00001539,-0.00017123,-0.000
 24122,-0.00046218,-0.00005970,0.00005208,0.00017346,0.00027179,0.00008
 717,-0.00110657,0.00106736,-0.00052243,0.00017531,-0.00001111,-0.00012
 313,-0.00000875,-0.00032096,-0.00031705,0.00064865,-0.00046233,0.00174
 876,-0.00125020,-0.00574701,-0.00205241,0.00269819,0.00003822,0.014210
 22,0.02075104,0.00044031,-0.00325297,0.00047808,0.01236771,-0.09753176
 ,-0.10114188,-0.00042668,0.00001913,0.00039504,0.00014253,0.00024984,0
 .00025716,0.00001373,-0.00000304,-0.00000640,0.00002730,-0.00002045,-0
 .00002286,-0.00001575,0.00004069,-0.00002336,-0.00027564,0.00007407,-0
 .00013324,-0.00003130,0.00001588,-0.00002078,-0.00012376,-0.00002314,0
 .00007821,0.00005703,-0.00003995,-0.00004175,-0.00003872,-0.00088438,0
 .00059631,-0.00314651,-0.00185623,0.00049873,0.00040622,-0.00013484,-0
 .00023694,-0.01933918,0.09127930,-0.00011725,-0.00005474,-0.00034106,-
 0.00012568,0.00004733,0.00022922,-0.00049351,0.00041395,-0.00056791,0.
 00030320,-0.00028711,0.00024892,0.00015033,-0.00010405,-0.00002221,-0.
 00015398,0.00021957,0.00007063,0.00000871,-0.00011409,-0.00003245,0.00
 011467,-0.00013786,-0.00009206,0.00036616,-0.00015657,0.00054180,0.000
 03286,-0.00003885,-0.00003983,-0.00004715,0.00001867,0.00006225,-0.000
 02477,0.00003659,-0.00002188,0.00000386,0.00001909,0.00001975,-0.00002
 261,0.00006338,0.00001954,-0.00001253,0.00002529,0.00000829,-0.0000057
 4,0.00009823,0.00002423,0.00048729,-0.00080031,0.00007374,-0.00036027,
 0.00115054,0.00091808,-0.01276602,0.00442000,-0.00574062,0.00715240,-0
 .00312617,0.00356271,0.00002052,-0.00045699,-0.00074356,0.00014142,0.0
 0051100,0.00008253,-0.00008702,-0.00029982,0.00008670,0.00001671,-0.00
 015251,0.00025167,0.00001767,0.00002983,0.00000730,0.00000227,-0.00001
 452,-0.00004122,0.00001467,-0.00009573,0.00002459,-0.00011952,0.000352
 54,0.00071897,-0.00003370,-0.00033037,-0.00006640,0.00043792,0.0011455
 2,-0.00023177,0.00015578,0.00000643,-0.00010291,0.00000564,0.00000988,
 -0.00008094,0.00001265,0.00004910,0.00000419,-0.00000276,-0.00003285,0
 .00003059,-0.00002091,-0.00005929,0.00001068,-0.00001324,-0.00002606,0
 .00000897,0.00648757,0.00084035,-0.00029200,-0.00137502,0.00048177,-0.
 00110256,0.00060537,0.00058517,0.00167920,0.00010142,-0.00057623,-0.00
 062009,0.00012418,-0.00028089,-0.00007721,-0.00024521,-0.00026849,0.00
 061862,0.00016055,0.00007767,-0.00027422,0.00013542,0.00026535,-0.0009
 2144,-0.00033446,-0.00059091,0.00098130,0.00017725,-0.00009462,0.00000
 864,-0.00012057,-0.00002896,-0.00005128,0.00016264,0.00012190,-0.00005
 912,0.00002839,0.00000946,0.00005687,-0.00004836,0.00000422,0.00004301
 ,-0.00014884,-0.00043877,-0.00131070,-0.00008799,0.00022184,0.00038580
 ,0.00146483,-0.00097264,0.00301584,-0.00217740,0.00161035,-0.00156212,
 -0.00006233,-0.00013646,-0.00004417,0.00029080,-0.00003743,0.00004186,
 0.00126791,-0.00019711,0.00103239,-0.00153235,0.00090384,0.00391696,0.
 00653908,0.00447410,-0.01053405,-0.00300689,-0.00331523,-0.00138334,0.
 14403383,-0.10566898,-0.35302829,0.00001414,0.00060629,-0.00213155,0.0
 0004459,0.00005130,0.00085910,-0.00001107,-0.00001455,-0.00001496,0.00
 007464,-0.00003652,-0.00009801,-0.00004471,0.00006134,-0.00004244,-0.0
 0010011,0.00003185,-0.00000064,-0.00003830,0.00000188,-0.00001902,-0.0
 0041273,-0.00014321,0.00020320,-0.00016653,-0.00004439,0.00005221,-0.0
 0037470,-0.00128161,-0.00059771,0.00002876,-0.00004722,0.00295524,0.00
 028496,0.00002451,-0.00018232,-0.14488038,0.10056332,0.35867775,0.0003
 2635,-0.00034845,0.00064617,0.00018840,0.00002525,-0.00025996,-0.00018
 814,0.00014148,-0.00035891,0.00003725,0.00007518,0.00033210,-0.0000322
 0,-0.00000171,0.00002309,0.00027894,0.00022715,-0.00015074,-0.00015720
 ,-0.00017951,0.00006521,-0.00020547,-0.00014987,0.00014619,-0.00083257
 ,0.00047116,-0.00105090,-0.00004056,0.00000689,0.00005120,0.00009840,0
 .00001855,-0.00007304,0.00003132,-0.00003668,0.00001252,0.00000310,0.0
 0001981,0.00000411,0.00004570,-0.00000954,-0.00000982,0.00002016,0.000
 24239,-0.00004534,-0.00004271,0.00008989,-0.00004263,-0.00020265,-0.00
 004013,0.00059921,0.00034957,-0.00014932,-0.00017478,0.00019737,-0.000
 11185,-0.00022061,-0.00002482,0.00026511,0.00029532,0.00004168,0.00005
 384,0.00022126,-0.00005058,0.00003519,-0.00011141,-0.00002790,0.000003
 31,0.00001548,-0.00000957,0.00000156,0.00024364,-0.00003634,0.00001095
 ,-0.00004360,-0.00003752,0.00000970,-0.00004262,-0.00001969,0.00002800
 ,-0.00000117,0.00020298,-0.00015038,-0.00097911,-0.00005852,0.00000682
 ,0.00003399,0.00017948,0.00000681,-0.00010140,-0.00002525,0.00000634,0
 .00000835,0.00001571,-0.00001659,-0.00003374,0.00005596,-0.00004190,-0
 .00000772,0.00000922,-0.00000135,-0.00000924,0.00001571,-0.00002330,0.
 00000962,0.00001065,-0.00000157,-0.00001515,-0.00014934,0.00009935,0.0
 0019060,0.00010951,-0.00017173,-0.00003222,-0.00059733,0.00014989,-0.0
 0108865,0.00039128,-0.00020793,0.00045002,-0.00007970,0.00000990,0.000
 01319,-0.00006123,-0.00013148,0.00007965,0.00003616,0.00010133,-0.0000
 2441,-0.00001173,0.00018268,-0.00002385,0.00001494,-0.00008195,0.00006
 567,-0.00001633,0.00004655,0.00001884,0.00002048,0.00003945,-0.0000028
 1,-0.00000988,-0.00002035,-0.00002253,-0.00000316,-0.00004923,-0.00000
 630,-0.00002660,-0.00003628,-0.00001326,0.00076705,0.00043931,0.000679
 33,-0.00050710,-0.00005018,0.00029209,-0.00521304,0.00286352,-0.007222
 74,0.00439201,-0.00246812,0.00191727,0.00001713,-0.00002624,0.00017590
 ,-0.00007251,-0.00019265,0.00009961,-0.00086605,0.00047188,-0.00066865
 ,-0.00024918,0.00106494,-0.00142076,-0.00476991,-0.03087040,-0.0135614
 9,-0.00301079,-0.00187539,0.00434835,-0.03364069,-0.03246313,0.0246562
 7,0.00016714,-0.00190410,0.00362180,-0.00019046,-0.00049643,0.00001137
 ,0.00010567,0.00006681,-0.00000819,-0.00015644,0.00001106,0.00013013,0
 .00009009,0.00008244,-0.00005173,-0.00003225,0.00007454,-0.00006846,-0
 .00001090,0.00000232,0.00001972,0.00023483,0.00006450,-0.00010302,0.00
 023321,0.00020901,-0.00012455,-0.00100147,-0.00147373,0.00324711,-0.00
 079888,0.00062042,0.00012886,0.00133509,-0.00209458,0.00096181,0.00073
 832,0.01324062,-0.00189644,0.04270580,-0.00039462,0.00015206,-0.000586
 02,-0.00011306,0.00003067,0.00018342,0.00004796,0.00008568,0.00013528,
 -0.00002013,-0.00018199,-0.00017533,0.00008496,-0.00001216,0.00000057,
 -0.00010494,-0.00013203,0.00009293,0.00004024,0.00007583,-0.00008289,0
 .00005290,0.00007737,-0.00009525,0.00083890,-0.00037295,0.00099715,0.0
 0002646,-0.00001836,-0.00004400,-0.00005685,-0.00000653,0.00007881,-0.
 00001678,0.00002520,-0.00001890,0.00001055,-0.00002076,0.00002577,-0.0
 0000958,0.00000093,0.00003665,0.00001411,-0.00010991,0.00001910,0.0000
 9481,0.00012699,-0.00000940,0.00006511,-0.00037524,-0.00026338,-0.0001
 1872,0.00031232,0.00001495,-0.00161188,0.00079879,-0.00085240,0.001079
 34,-0.00050964,0.00185659,0.00007195,-0.00010185,0.00002733,0.00001479
 ,0.00012165,-0.00004640,-0.00000057,-0.00005198,0.00001969,0.00008825,
 -0.00005280,0.00016269,0.00000952,0.00000770,-0.00000466,-0.00000269,-
 0.00003794,-0.00005801,0.00000553,-0.00002883,-0.00000063,-0.00002450,
 0.00039322,0.00083469,-0.00000920,-0.00007273,-0.00004505,-0.00000762,
 0.00015870,0.00001060,0.00002104,-0.00001704,-0.00008348,-0.00001354,0
 .00000094,-0.00002098,-0.00007930,0.00002634,0.00000222,-0.00000675,-0
 .00000231,-0.00000145,-0.00001944,-0.00001611,0.00001641,-0.00000993,0
 .00000504,-0.00000667,0.00083514,0.00002642,0.00006889,-0.00028557,0.0
 0021544,-0.00017556,0.00024878,0.00002904,0.00048100,-0.00007108,-0.00
 026571,-0.00015134,0.00009540,-0.00005786,0.00002539,-0.00038162,0.000
 15302,-0.00023207,0.00020147,-0.00003432,0.00001062,0.00037964,-0.0001
 1947,0.00028010,-0.00012865,-0.00005242,-0.00010649,0.00006545,-0.0000
 3657,-0.00001223,-0.00003408,-0.00003660,-0.00000570,0.00003456,0.0000
 2021,0.00001378,-0.00002908,0.00000727,0.00000247,-0.00000376,0.000025
 34,-0.00000713,-0.00073101,-0.00044647,-0.00044938,0.00009017,-0.00006
 590,-0.00052157,0.00520235,-0.00209135,0.00632563,-0.00571401,-0.00026
 966,-0.00168927,-0.00007418,0.00012823,-0.00018061,0.00004447,0.000369
 48,-0.00034394,-0.00087895,-0.00069817,0.00071925,0.00373952,-0.000995
 83,-0.00367083,-0.00556272,-0.01695597,0.00119956,-0.00059769,0.003865
 61,0.00082749,-0.05067910,-0.40430011,-0.11037790,-0.00128777,0.001776
 60,-0.00310400,-0.00025024,0.00022793,-0.00019870,-0.00010548,-0.00010
 847,0.00003943,0.00013445,0.00002372,-0.00014561,-0.00005249,-0.000139
 25,0.00008874,0.00022076,-0.00013376,0.00011041,0.00003113,-0.00005003
 ,0.00002016,0.00021612,0.00008723,-0.00016511,0.00011672,-0.00000215,-
 0.00001693,-0.00021513,0.00409233,-0.00033838,0.00037543,-0.00030973,-
 0.00032138,-0.00012789,0.00009340,-0.00041343,0.00094245,0.00131674,0.
 00090867,0.05429015,0.41443352,-0.00002627,-0.00003136,-0.00007399,-0.
 00004750,0.00000422,0.00004914,-0.00021675,0.00021507,-0.00021742,0.00
 010719,-0.00002340,0.00015696,0.00003144,-0.00003731,-0.00000920,-0.00
 005490,0.00010077,0.00003126,0.00000318,-0.00004619,-0.00000765,0.0000
 4849,-0.00006046,-0.00003508,0.00012059,0.00000570,0.00012999,0.000011
 21,-0.00000453,-0.00000990,-0.00002282,0.00001835,0.00001136,-0.000011
 94,0.00001045,-0.00000522,0.00000179,0.00001025,0.00000597,-0.00001104
 ,0.00002740,0.00000358,-0.00000687,0.00001490,0.00000783,-0.00000696,0
 .00003502,0.00000046,0.00023658,-0.00022347,0.00001713,-0.00014949,-0.
 00003351,-0.00004386,0.00083722,-0.00087752,-0.00006477,-0.00100368,0.
 00015578,-0.00175225,-0.00026706,-0.00000271,-0.00052959,0.00007958,0.
 00014631,0.00011839,-0.00003027,-0.00009454,0.00000096,-0.00006817,-0.
 00004224,-0.00010816,0.00001438,-0.00000211,0.00002620,0.00002697,0.00
 003759,0.00004368,0.00000802,-0.00003725,0.00001756,-0.00033496,0.0003
 0373,-0.00002770,0.00005855,0.00002272,-0.00000099,0.00024617,-0.00005
 147,0.00013712,0.00003374,0.00000292,0.00020748,0.00000439,0.00000676,
 -0.00000513,0.00006564,0.00005602,0.00003251,-0.00000180,-0.00001200,0
 .00001346,-0.00000656,-0.00001663,-0.00000073,-0.00000168,-0.00001119,
 0.00001480,-0.00047424,0.00006035,0.00007973,0.00001738,-0.00000902,0.
 00004600,-0.00014233,-0.00006522,-0.00017046,0.00009071,-0.00006319,0.
 00005015,0.00000703,0.00000544,0.00000854,-0.00025323,0.00004599,-0.00
 008722,0.00016116,0.00001081,-0.00001396,0.00030197,-0.00002684,0.0002
 2497,0.00000029,0.00000410,-0.00012554,-0.00001102,-0.00001446,-0.0000
 0418,0.00000315,-0.00000121,0.00000207,-0.00000086,-0.00000873,0.00000
 757,-0.00001703,-0.00000774,0.00001250,-0.00000774,0.00000121,-0.00000
 807,0.00000697,0.00001395,-0.00008979,-0.00018668,0.00010945,-0.000101
 62,-0.00045705,-0.00055432,0.00438733,-0.00208456,0.00052121,-0.003964
 45,0.00000470,0.00007321,0.00001384,-0.00015681,0.00007143,0.00001585,
 -0.00042015,-0.00028213,-0.00053251,-0.00022162,-0.00045935,-0.0036429
 4,-0.00776635,0.01650148,0.01033913,0.00531728,0.00151805,-0.00015968,
 0.02328540,-0.10248707,-0.08488135,0.00071625,0.00048284,-0.00244799,-
 0.00021426,-0.00011156,-0.00006796,-0.00004271,-0.00003028,-0.00000516
 ,0.00004391,-0.00000465,-0.00004213,0.00000258,-0.00002576,0.00000575,
 0.00003132,-0.00000183,-0.00002384,-0.00001689,-0.00001386,-0.00000313
 ,0.00021050,0.00011744,-0.00011805,-0.00004987,-0.00001251,0.00001664,
 0.00386474,0.00101762,-0.00005315,-0.00019067,0.00055712,-0.00056977,0
 .00075573,-0.00023277,0.00175207,-0.00803027,-0.02565131,0.00093872,-0
 .01374313,0.10938603,0.08107788\\0.00000823,0.00001516,-0.00000751,-0.
 00000795,0.00001677,0.00000804,-0.00001514,0.00000266,-0.00001418,0.00
 000651,-0.00000397,0.00000404,-0.00001306,-0.00000739,0.00000252,0.000
 01645,0.00000710,-0.00001251,-0.00001137,-0.00000174,-0.00001416,-0.00
 000374,-0.00000359,0.00000624,0.00000341,0.00000042,0.00000360,0.00000
 273,-0.00000510,-0.00000201,0.00000197,-0.00000185,0.00001081,0.000006
 90,0.00000183,0.00000820,-0.00000007,-0.00000100,0.00000164,0.00000089
 ,0.00000013,0.00000566,0.00000466,0.00000209,0.00000409,-0.00000076,-0
 .00000851,0.00000482,0.00000459,-0.00000169,0.00000405,-0.00003514,-0.
 00000295,-0.00000930,-0.00001528,0.00000783,-0.00000859,0.00000859,-0.
 00002432,-0.00001795,0.00000107,0.00000224,0.00000803,-0.00000166,0.00
 000168,0.00000327,0.00000152,0.00000197,-0.00000481,0.00000179,-0.0000
 0274,0.00000173,-0.00000147,-0.00000391,-0.00000185,0.00000212,0.00000
 173,-0.00000128,0.00000405,0.00000265,0.00000034,0.00000751,0.00001506
 ,-0.00000005,0.00000964,-0.00000318,-0.00000374,0.00000226,0.00000095,
 0.00000066,0.00000166,-0.00000063,0.00000081,-0.00000032,-0.00000085,0
 .00000024,0.00000052,0.00000013,0.00000085,0.00000042,-0.00000021,-0.0
 0000040,0.00000029,0.00000060,0.00000106,-0.00000004,-0.00000013,-0.00
 000071,0.00000324,-0.00002978,0.00001688,0.00002450,0.00002881,-0.0000
 1357,-0.00001355,-0.00003025,0.00001494,-0.00001624,-0.00000965,-0.000
 00438,-0.00000359,0.00000711,-0.00000487,-0.00001247,0.00000930,-0.000
 00405,0.00000406,-0.00000080,-0.00000047,0.00001067,-0.00000851,0.0000
 0302,-0.00001004,0.00000444,0.00000845,0.00000985,-0.00000582,-0.00000
 404,0.00000131,0.,-0.00000187,-0.00000136,-0.00000261,-0.00000057,-0.0
 0000018,-0.00000048,0.00000350,-0.00000230,0.00000072,-0.00000226,0.00
 001263,0.00002446,-0.00001568,-0.00001488,0.00000569,0.00004486,-0.000
 01078,-0.00000101,-0.00003488,0.00001390,-0.00000561,0.00001691,-0.000
 01517,-0.00000990,-0.00000669,-0.00000490,-0.00003244,-0.00000399,0.00
 000564,0.00004691,0.00001548,-0.00001005,-0.00001265,-0.00000519,0.000
 00969,-0.00000676,0.00000534,0.00000062,-0.00000698,-0.00000270,-0.000
 01149,0.00000912,0.00001320,0.00000211,0.00001127,-0.00001333,0.000008
 79,0.00000515,-0.00000266,0.00000547,0.00000095,-0.00000497,0.00000044
 ,0.00000063,-0.00000211,-0.00000015,0.00000282,0.00000059,0.00000101,-
 0.00000272,0.00000185,0.00000072,-0.00000254,-0.00000331,0.00000010,0.
 00000447,0.00000009,-0.00000197,-0.00000033,0.00000042,0.00000547,0.00
 000741,0.00000131,0.00000582,-0.00000070,-0.00000032,-0.00000424,-0.00
 000338,0.00000105,0.00001183,-0.00000085,-0.00000534,0.00000372,-0.000
 00272,0.00000770\\\@
 The archive entry for this job was punched.


 THE MORE PROGRESS PHYSICAL SCIENCES MAKE, THE MORE THEY TEND TO ENTER
 THE DOMAIN OF MATHEMATICS, WHICH IS A KIND OF CENTRE TO WHICH THEY ALL
 CONVERGE.  WE MAY EVEN JUDGE THE DEGREE OF PERFECTION TO WHICH A 
 SCIENCE HAS ARRIVED BY THE FACILITY WITH WHICH IT MAY BE SUBMITTED
 TO CALCULATION.

                               -- ADOLPHE QUETELET, 1796-1874
 Job cpu time:       0 days  9 hours 14 minutes 29.5 seconds.
 Elapsed time:       0 days  1 hours  9 minutes 21.2 seconds.
 File lengths (MBytes):  RWF=   3960 Int=      0 D2E=      0 Chk=     48 Scr=     16
 Normal termination of Gaussian 16 at Tue May 31 22:27:56 2022.
