 Entering Gaussian System, Link 0=/opt/software/Gaussian/g16-AVX2-C.01/g16/g16
 Input=opt_freq-conf-365.com
 Output=opt_freq-conf-365.log
 Initial command:
 /opt/software/Gaussian/g16-AVX2-C.01/g16/l1.exe "/mnt/gs18/scratch/users/kengmith/Gau-90318.inp" -scrdir="/mnt/gs18/scratch/users/kengmith/"
 Entering Link 1 = /opt/software/Gaussian/g16-AVX2-C.01/g16/l1.exe PID=     90328.
  
 Copyright (c) 1988-2019, Gaussian, Inc.  All Rights Reserved.
  
 This is part of the Gaussian(R) 16 program.  It is based on
 the Gaussian(R) 09 system (copyright 2009, Gaussian, Inc.),
 the Gaussian(R) 03 system (copyright 2003, Gaussian, Inc.),
 the Gaussian(R) 98 system (copyright 1998, Gaussian, Inc.),
 the Gaussian(R) 94 system (copyright 1995, Gaussian, Inc.),
 the Gaussian 92(TM) system (copyright 1992, Gaussian, Inc.),
 the Gaussian 90(TM) system (copyright 1990, Gaussian, Inc.),
 the Gaussian 88(TM) system (copyright 1988, Gaussian, Inc.),
 the Gaussian 86(TM) system (copyright 1986, Carnegie Mellon
 University), and the Gaussian 82(TM) system (copyright 1983,
 Carnegie Mellon University). Gaussian is a federally registered
 trademark of Gaussian, Inc.
  
 This software contains proprietary and confidential information,
 including trade secrets, belonging to Gaussian, Inc.
  
 This software is provided under written license and may be
 used, copied, transmitted, or stored only in accord with that
 written license.
  
 The following legend is applicable only to US Government
 contracts under FAR:
  
                    RESTRICTED RIGHTS LEGEND
  
 Use, reproduction and disclosure by the US Government is
 subject to restrictions as set forth in subparagraphs (a)
 and (c) of the Commercial Computer Software - Restricted
 Rights clause in FAR 52.227-19.
  
 Gaussian, Inc.
 340 Quinnipiac St., Bldg. 40, Wallingford CT 06492
  
  
 ---------------------------------------------------------------
 Warning -- This program may not be used in any manner that
 competes with the business of Gaussian, Inc. or will provide
 assistance to any competitor of Gaussian, Inc.  The licensee
 of this program is prohibited from giving any competitor of
 Gaussian, Inc. access to this program.  By using this program,
 the user acknowledges that Gaussian, Inc. is engaged in the
 business of creating and licensing software in the field of
 computational chemistry and represents and warrants to the
 licensee that it is not a competitor of Gaussian, Inc. and that
 it will not use this program in any manner prohibited above.
 ---------------------------------------------------------------
  

 Cite this work as:
 Gaussian 16, Revision C.01,
 M. J. Frisch, G. W. Trucks, H. B. Schlegel, G. E. Scuseria, 
 M. A. Robb, J. R. Cheeseman, G. Scalmani, V. Barone, 
 G. A. Petersson, H. Nakatsuji, X. Li, M. Caricato, A. V. Marenich, 
 J. Bloino, B. G. Janesko, R. Gomperts, B. Mennucci, H. P. Hratchian, 
 J. V. Ortiz, A. F. Izmaylov, J. L. Sonnenberg, D. Williams-Young, 
 F. Ding, F. Lipparini, F. Egidi, J. Goings, B. Peng, A. Petrone, 
 T. Henderson, D. Ranasinghe, V. G. Zakrzewski, J. Gao, N. Rega, 
 G. Zheng, W. Liang, M. Hada, M. Ehara, K. Toyota, R. Fukuda, 
 J. Hasegawa, M. Ishida, T. Nakajima, Y. Honda, O. Kitao, H. Nakai, 
 T. Vreven, K. Throssell, J. A. Montgomery, Jr., J. E. Peralta, 
 F. Ogliaro, M. J. Bearpark, J. J. Heyd, E. N. Brothers, K. N. Kudin, 
 V. N. Staroverov, T. A. Keith, R. Kobayashi, J. Normand, 
 K. Raghavachari, A. P. Rendell, J. C. Burant, S. S. Iyengar, 
 J. Tomasi, M. Cossi, J. M. Millam, M. Klene, C. Adamo, R. Cammi, 
 J. W. Ochterski, R. L. Martin, K. Morokuma, O. Farkas, 
 J. B. Foresman, and D. J. Fox, Gaussian, Inc., Wallingford CT, 2019.
 
 ******************************************
 Gaussian 16:  ES64L-G16RevC.01  3-Jul-2019
                31-May-2022 
 ******************************************
 %mem=12gb
 %nproc=8
 Will use up to    8 processors via shared memory.
 %chk=conf-365.chk
 ----------------------------------------------------------------------
 # B3LYP/6-31G* empiricaldispersion=gd3 opt=calcfc freq=noraman nosymm 
 integral(ultrafinegrid)
 ----------------------------------------------------------------------
 1/10=4,18=20,19=15,26=4,38=1/1,3;
 2/9=110,12=2,15=1,17=6,18=5,40=1/2;
 3/5=1,6=6,7=1,11=2,25=1,30=1,71=2,74=-5,75=-5,124=31,140=1/1,2,3;
 4//1;
 5/5=2,38=5/2;
 8/6=4,10=90,11=11/1;
 11/6=1,8=1,9=11,15=111,16=1,31=1/1,2,10;
 10/6=1,13=1,31=1/2;
 6/7=2,8=2,9=2,10=2,28=1/1;
 7/10=1,25=1,30=1/1,2,3,16;
 1/10=4,18=20,19=15,26=4/3(2);
 2/9=110,15=1/2;
 99//99;
 2/9=110,15=1/2;
 3/5=1,6=6,7=1,11=2,25=1,30=1,71=1,74=-5,75=-5,124=31/1,2,3;
 4/5=5,16=3,69=1/1;
 5/5=2,38=5/2;
 7/30=1/1,2,3,16;
 1/18=20,19=15,26=4/3(-5);
 2/9=110,15=1/2;
 6/7=2,8=2,9=2,10=2,19=2,28=1/1;
 99/9=1/99;
 ------------------------------------------------------------
 Candidate Structure: Conf:365 OPT and FREQ calc in gas phase
 ------------------------------------------------------------
 Symbolic Z-matrix:
 Charge =  1 Multiplicity = 1
 N                    -9.27926  -2.68738  -5.49943 
 C                    -8.25348  -1.70439  -5.11788 
 C                    -8.25123  -0.55774  -6.14699 
 O                    -9.19274   0.27876  -6.09281 
 C                    -6.87467  -2.29643  -4.89918 
 C                    -6.87311  -3.13339  -3.65018 
 N                    -6.52686  -4.43031  -3.84669 
 O                    -7.14823  -2.65332  -2.56245 
 H                    -8.80514  -3.51552  -5.89269 
 H                    -8.55625  -1.22698  -4.17851 
 H                    -6.53406  -2.87061  -5.72947 
 H                    -6.18473  -1.46104  -4.71612 
 H                    -6.59574  -5.04779  -3.05539 
 H                    -6.55968  -4.79835  -4.78717 
 H                    -9.79237  -2.99253  -4.67049 
 H                    -9.94749  -2.33406  -6.19955 
 N                    -7.2128   -0.50555  -7.0371 
 C                    -6.88337   0.73204  -7.72328 
 C                    -6.76552   0.5194   -9.24033 
 O                    -5.72524   0.74651  -9.85101 
 C                    -5.60664   1.38052  -7.14095 
 C                    -5.46937   1.23774  -5.64113 
 C                    -6.50635   1.57656  -4.77559 
 C                    -4.31731   0.66105  -5.10731 
 C                    -6.42158   1.27786  -3.41586 
 C                    -4.21876   0.38579  -3.74718 
 C                    -5.27977   0.67717  -2.89926 
 H                    -6.61018  -1.30738  -7.1396 
 H                    -7.73357   1.39697  -7.5526 
 H                    -4.7237    0.93329  -7.6009 
 H                    -5.61079   2.42849  -7.44548 
 H                    -7.44447   1.96017  -5.17827 
 H                    -3.5034    0.38875  -5.77175 
 H                    -7.28202   1.47746  -2.78663 
 H                    -3.3266   -0.09609  -3.36377 
 H                    -5.23149   0.41357  -1.84764 
 N                    -7.84584   0.05893  -9.90819 
 C                    -9.14927  -0.31149  -9.41368 
 C                    -9.22913  -1.76739  -8.94586 
 O                    -10.17974  -2.14079  -8.26482 
 C                    -10.22389  -0.07114  -10.49022 
 C                    -9.96636  -0.8387   -11.77835 
 N                    -11.05055  -1.43722  -12.32154 
 O                    -8.86064  -0.87628  -12.30074 
 H                    -7.69416  -0.1043   -10.89562 
 H                    -9.39026   0.27806  -8.5284 
 H                    -10.217    0.98852  -10.75316 
 H                    -11.20835  -0.31433  -10.08749 
 H                    -10.93267  -1.94394  -13.18163 
 H                    -11.95143  -1.38924  -11.88686 
 N                    -8.25049  -2.59504  -9.36968 
 C                    -8.10696  -3.89314  -8.76081 
 C                    -7.15355  -3.82061  -7.54263 
 O                    -6.16736  -3.08109  -7.64512 
 C                    -7.69462  -4.99885  -9.74768 
 C                    -6.95719  -4.56127  -11.02158 
 C                    -5.43554  -4.53553  -10.97699 
 N                    -4.83879  -3.57162  -10.04714 
 C                    -4.75941  -2.24568  -10.26022 
 N                    -5.20535  -1.69651  -11.40203 
 N                    -4.14597  -1.48822  -9.34467 
 O                    -7.47963  -4.55937  -6.59576 
 H                    -7.42592  -2.17871  -9.75504 
 H                    -9.08168  -4.13855  -8.34534 
 H                    -7.13008  -5.7593   -9.2002 
 H                    -8.62917  -5.4787   -10.06054 
 H                    -7.22189  -5.26851  -11.81681 
 H                    -7.31949  -3.58892  -11.35614 
 H                    -5.05453  -5.51278  -10.67748 
 H                    -5.04176  -4.34435  -11.98062 
 H                    -4.93756  -3.80709  -9.06205 
 H                    -5.3972   -0.70227  -11.37228 
 H                    -5.81878  -2.2416   -11.98448 
 H                    -4.32148  -0.49643  -9.42295 
 H                    -4.01812  -1.86558  -8.41612 
 

 GradGradGradGradGradGradGradGradGradGradGradGradGradGradGradGradGradGrad
 Berny optimization.
 Initialization pass.
                           ----------------------------
                           !    Initial Parameters    !
                           ! (Angstroms and Degrees)  !
 --------------------------                            --------------------------
 ! Name  Definition              Value          Derivative Info.                !
 --------------------------------------------------------------------------------
 ! R1    R(1,2)                  1.4711         calculate D2E/DX2 analytically  !
 ! R2    R(1,9)                  1.0321         calculate D2E/DX2 analytically  !
 ! R3    R(1,15)                 1.0215         calculate D2E/DX2 analytically  !
 ! R4    R(1,16)                 1.0303         calculate D2E/DX2 analytically  !
 ! R5    R(2,3)                  1.5407         calculate D2E/DX2 analytically  !
 ! R6    R(2,5)                  1.5164         calculate D2E/DX2 analytically  !
 ! R7    R(2,10)                 1.0964         calculate D2E/DX2 analytically  !
 ! R8    R(3,4)                  1.2606         calculate D2E/DX2 analytically  !
 ! R9    R(3,17)                 1.3687         calculate D2E/DX2 analytically  !
 ! R10   R(5,6)                  1.5035         calculate D2E/DX2 analytically  !
 ! R11   R(5,11)                 1.0654         calculate D2E/DX2 analytically  !
 ! R12   R(5,12)                 1.0988         calculate D2E/DX2 analytically  !
 ! R13   R(6,7)                  1.3567         calculate D2E/DX2 analytically  !
 ! R14   R(6,8)                  1.2204         calculate D2E/DX2 analytically  !
 ! R15   R(7,13)                 1.0061         calculate D2E/DX2 analytically  !
 ! R16   R(7,14)                 1.0105         calculate D2E/DX2 analytically  !
 ! R17   R(17,18)                1.4529         calculate D2E/DX2 analytically  !
 ! R18   R(17,28)                1.0083         calculate D2E/DX2 analytically  !
 ! R19   R(18,19)                1.5364         calculate D2E/DX2 analytically  !
 ! R20   R(18,21)                1.5459         calculate D2E/DX2 analytically  !
 ! R21   R(18,29)                1.0928         calculate D2E/DX2 analytically  !
 ! R22   R(19,20)                1.2275         calculate D2E/DX2 analytically  !
 ! R23   R(19,37)                1.351          calculate D2E/DX2 analytically  !
 ! R24   R(21,22)                1.5128         calculate D2E/DX2 analytically  !
 ! R25   R(21,30)                1.0914         calculate D2E/DX2 analytically  !
 ! R26   R(21,31)                1.0913         calculate D2E/DX2 analytically  !
 ! R27   R(22,23)                1.3926         calculate D2E/DX2 analytically  !
 ! R28   R(22,24)                1.3946         calculate D2E/DX2 analytically  !
 ! R29   R(23,25)                1.3947         calculate D2E/DX2 analytically  !
 ! R30   R(23,32)                1.0906         calculate D2E/DX2 analytically  !
 ! R31   R(24,26)                1.3912         calculate D2E/DX2 analytically  !
 ! R32   R(24,33)                1.0854         calculate D2E/DX2 analytically  !
 ! R33   R(25,27)                1.3898         calculate D2E/DX2 analytically  !
 ! R34   R(25,34)                1.0845         calculate D2E/DX2 analytically  !
 ! R35   R(26,27)                1.3891         calculate D2E/DX2 analytically  !
 ! R36   R(26,35)                1.084          calculate D2E/DX2 analytically  !
 ! R37   R(27,36)                1.0852         calculate D2E/DX2 analytically  !
 ! R38   R(37,38)                1.4425         calculate D2E/DX2 analytically  !
 ! R39   R(37,45)                1.0123         calculate D2E/DX2 analytically  !
 ! R40   R(38,39)                1.5313         calculate D2E/DX2 analytically  !
 ! R41   R(38,41)                1.54           calculate D2E/DX2 analytically  !
 ! R42   R(38,46)                1.0906         calculate D2E/DX2 analytically  !
 ! R43   R(39,40)                1.2276         calculate D2E/DX2 analytically  !
 ! R44   R(39,51)                1.3499         calculate D2E/DX2 analytically  !
 ! R45   R(41,42)                1.5214         calculate D2E/DX2 analytically  !
 ! R46   R(41,47)                1.0918         calculate D2E/DX2 analytically  !
 ! R47   R(41,48)                1.0911         calculate D2E/DX2 analytically  !
 ! R48   R(42,43)                1.3523         calculate D2E/DX2 analytically  !
 ! R49   R(42,44)                1.2235         calculate D2E/DX2 analytically  !
 ! R50   R(43,49)                1.0052         calculate D2E/DX2 analytically  !
 ! R51   R(43,50)                1.0014         calculate D2E/DX2 analytically  !
 ! R52   R(51,52)                1.441          calculate D2E/DX2 analytically  !
 ! R53   R(51,63)                1.0009         calculate D2E/DX2 analytically  !
 ! R54   R(52,53)                1.5486         calculate D2E/DX2 analytically  !
 ! R55   R(52,55)                1.5384         calculate D2E/DX2 analytically  !
 ! R56   R(52,64)                1.0876         calculate D2E/DX2 analytically  !
 ! R57   R(53,54)                1.2369         calculate D2E/DX2 analytically  !
 ! R58   R(53,62)                1.2444         calculate D2E/DX2 analytically  !
 ! R59   R(55,56)                1.5356         calculate D2E/DX2 analytically  !
 ! R60   R(55,65)                1.0939         calculate D2E/DX2 analytically  !
 ! R61   R(55,66)                1.0961         calculate D2E/DX2 analytically  !
 ! R62   R(56,57)                1.5225         calculate D2E/DX2 analytically  !
 ! R63   R(56,67)                1.0967         calculate D2E/DX2 analytically  !
 ! R64   R(56,68)                1.0903         calculate D2E/DX2 analytically  !
 ! R65   R(57,58)                1.4662         calculate D2E/DX2 analytically  !
 ! R66   R(57,69)                1.0908         calculate D2E/DX2 analytically  !
 ! R67   R(57,70)                1.0949         calculate D2E/DX2 analytically  !
 ! R68   R(58,59)                1.3453         calculate D2E/DX2 analytically  !
 ! R69   R(58,71)                1.0177         calculate D2E/DX2 analytically  !
 ! R70   R(59,60)                1.3432         calculate D2E/DX2 analytically  !
 ! R71   R(59,61)                1.3373         calculate D2E/DX2 analytically  !
 ! R72   R(60,72)                1.013          calculate D2E/DX2 analytically  !
 ! R73   R(60,73)                1.0063         calculate D2E/DX2 analytically  !
 ! R74   R(61,74)                1.0102         calculate D2E/DX2 analytically  !
 ! R75   R(61,75)                1.0104         calculate D2E/DX2 analytically  !
 ! A1    A(2,1,9)              108.3409         calculate D2E/DX2 analytically  !
 ! A2    A(2,1,15)             109.8394         calculate D2E/DX2 analytically  !
 ! A3    A(2,1,16)             113.5378         calculate D2E/DX2 analytically  !
 ! A4    A(9,1,15)             107.4717         calculate D2E/DX2 analytically  !
 ! A5    A(9,1,16)             108.3107         calculate D2E/DX2 analytically  !
 ! A6    A(15,1,16)            109.1517         calculate D2E/DX2 analytically  !
 ! A7    A(1,2,3)              108.97           calculate D2E/DX2 analytically  !
 ! A8    A(1,2,5)              114.2395         calculate D2E/DX2 analytically  !
 ! A9    A(1,2,10)             108.7014         calculate D2E/DX2 analytically  !
 ! A10   A(3,2,5)              112.6793         calculate D2E/DX2 analytically  !
 ! A11   A(3,2,10)             104.3959         calculate D2E/DX2 analytically  !
 ! A12   A(5,2,10)             107.3095         calculate D2E/DX2 analytically  !
 ! A13   A(2,3,4)              117.6491         calculate D2E/DX2 analytically  !
 ! A14   A(2,3,17)             117.6363         calculate D2E/DX2 analytically  !
 ! A15   A(4,3,17)             124.7011         calculate D2E/DX2 analytically  !
 ! A16   A(2,5,6)              109.7608         calculate D2E/DX2 analytically  !
 ! A17   A(2,5,11)             112.8742         calculate D2E/DX2 analytically  !
 ! A18   A(2,5,12)             107.3453         calculate D2E/DX2 analytically  !
 ! A19   A(6,5,11)             110.3078         calculate D2E/DX2 analytically  !
 ! A20   A(6,5,12)             106.5094         calculate D2E/DX2 analytically  !
 ! A21   A(11,5,12)            109.8049         calculate D2E/DX2 analytically  !
 ! A22   A(5,6,7)              114.3369         calculate D2E/DX2 analytically  !
 ! A23   A(5,6,8)              121.4139         calculate D2E/DX2 analytically  !
 ! A24   A(7,6,8)              124.2428         calculate D2E/DX2 analytically  !
 ! A25   A(6,7,13)             117.0859         calculate D2E/DX2 analytically  !
 ! A26   A(6,7,14)             118.341          calculate D2E/DX2 analytically  !
 ! A27   A(13,7,14)            120.4167         calculate D2E/DX2 analytically  !
 ! A28   A(3,17,18)            120.773          calculate D2E/DX2 analytically  !
 ! A29   A(3,17,28)            119.291          calculate D2E/DX2 analytically  !
 ! A30   A(18,17,28)           119.5951         calculate D2E/DX2 analytically  !
 ! A31   A(17,18,19)           111.4584         calculate D2E/DX2 analytically  !
 ! A32   A(17,18,21)           111.5108         calculate D2E/DX2 analytically  !
 ! A33   A(17,18,29)           105.5528         calculate D2E/DX2 analytically  !
 ! A34   A(19,18,21)           111.5104         calculate D2E/DX2 analytically  !
 ! A35   A(19,18,29)           107.345          calculate D2E/DX2 analytically  !
 ! A36   A(21,18,29)           109.177          calculate D2E/DX2 analytically  !
 ! A37   A(18,19,20)           122.0486         calculate D2E/DX2 analytically  !
 ! A38   A(18,19,37)           118.2915         calculate D2E/DX2 analytically  !
 ! A39   A(20,19,37)           119.6583         calculate D2E/DX2 analytically  !
 ! A40   A(18,21,22)           114.1301         calculate D2E/DX2 analytically  !
 ! A41   A(18,21,30)           109.7249         calculate D2E/DX2 analytically  !
 ! A42   A(18,21,31)           107.1318         calculate D2E/DX2 analytically  !
 ! A43   A(22,21,30)           107.8013         calculate D2E/DX2 analytically  !
 ! A44   A(22,21,31)           111.5689         calculate D2E/DX2 analytically  !
 ! A45   A(30,21,31)           106.1992         calculate D2E/DX2 analytically  !
 ! A46   A(21,22,23)           121.7125         calculate D2E/DX2 analytically  !
 ! A47   A(21,22,24)           119.5698         calculate D2E/DX2 analytically  !
 ! A48   A(23,22,24)           118.5454         calculate D2E/DX2 analytically  !
 ! A49   A(22,23,25)           120.5687         calculate D2E/DX2 analytically  !
 ! A50   A(22,23,32)           119.7773         calculate D2E/DX2 analytically  !
 ! A51   A(25,23,32)           119.182          calculate D2E/DX2 analytically  !
 ! A52   A(22,24,26)           120.9698         calculate D2E/DX2 analytically  !
 ! A53   A(22,24,33)           119.268          calculate D2E/DX2 analytically  !
 ! A54   A(26,24,33)           119.7181         calculate D2E/DX2 analytically  !
 ! A55   A(23,25,27)           120.3245         calculate D2E/DX2 analytically  !
 ! A56   A(23,25,34)           118.5552         calculate D2E/DX2 analytically  !
 ! A57   A(27,25,34)           121.0459         calculate D2E/DX2 analytically  !
 ! A58   A(24,26,27)           120.0768         calculate D2E/DX2 analytically  !
 ! A59   A(24,26,35)           119.4751         calculate D2E/DX2 analytically  !
 ! A60   A(27,26,35)           120.3947         calculate D2E/DX2 analytically  !
 ! A61   A(25,27,26)           119.4261         calculate D2E/DX2 analytically  !
 ! A62   A(25,27,36)           120.1154         calculate D2E/DX2 analytically  !
 ! A63   A(26,27,36)           120.4359         calculate D2E/DX2 analytically  !
 ! A64   A(19,37,38)           129.8394         calculate D2E/DX2 analytically  !
 ! A65   A(19,37,45)           114.6682         calculate D2E/DX2 analytically  !
 ! A66   A(38,37,45)           115.3662         calculate D2E/DX2 analytically  !
 ! A67   A(37,38,39)           113.329          calculate D2E/DX2 analytically  !
 ! A68   A(37,38,41)           110.5381         calculate D2E/DX2 analytically  !
 ! A69   A(37,38,46)           109.8245         calculate D2E/DX2 analytically  !
 ! A70   A(39,38,41)           108.9999         calculate D2E/DX2 analytically  !
 ! A71   A(39,38,46)           104.7408         calculate D2E/DX2 analytically  !
 ! A72   A(41,38,46)           109.2018         calculate D2E/DX2 analytically  !
 ! A73   A(38,39,40)           119.9388         calculate D2E/DX2 analytically  !
 ! A74   A(38,39,51)           116.6917         calculate D2E/DX2 analytically  !
 ! A75   A(40,39,51)           123.3039         calculate D2E/DX2 analytically  !
 ! A76   A(38,41,42)           113.2662         calculate D2E/DX2 analytically  !
 ! A77   A(38,41,47)           108.3866         calculate D2E/DX2 analytically  !
 ! A78   A(38,41,48)           109.6823         calculate D2E/DX2 analytically  !
 ! A79   A(42,41,47)           106.5393         calculate D2E/DX2 analytically  !
 ! A80   A(42,41,48)           110.6578         calculate D2E/DX2 analytically  !
 ! A81   A(47,41,48)           108.1142         calculate D2E/DX2 analytically  !
 ! A82   A(41,42,43)           115.3189         calculate D2E/DX2 analytically  !
 ! A83   A(41,42,44)           122.0035         calculate D2E/DX2 analytically  !
 ! A84   A(43,42,44)           122.647          calculate D2E/DX2 analytically  !
 ! A85   A(42,43,49)           118.2153         calculate D2E/DX2 analytically  !
 ! A86   A(42,43,50)           121.7139         calculate D2E/DX2 analytically  !
 ! A87   A(49,43,50)           120.07           calculate D2E/DX2 analytically  !
 ! A88   A(39,51,52)           119.4633         calculate D2E/DX2 analytically  !
 ! A89   A(39,51,63)           117.5871         calculate D2E/DX2 analytically  !
 ! A90   A(52,51,63)           117.0875         calculate D2E/DX2 analytically  !
 ! A91   A(51,52,53)           110.5798         calculate D2E/DX2 analytically  !
 ! A92   A(51,52,55)           113.7744         calculate D2E/DX2 analytically  !
 ! A93   A(51,52,64)           105.9861         calculate D2E/DX2 analytically  !
 ! A94   A(53,52,55)           111.9179         calculate D2E/DX2 analytically  !
 ! A95   A(53,52,64)           105.1779         calculate D2E/DX2 analytically  !
 ! A96   A(55,52,64)           108.8502         calculate D2E/DX2 analytically  !
 ! A97   A(52,53,54)           116.9795         calculate D2E/DX2 analytically  !
 ! A98   A(52,53,62)           114.1674         calculate D2E/DX2 analytically  !
 ! A99   A(54,53,62)           128.8209         calculate D2E/DX2 analytically  !
 ! A100  A(52,55,56)           117.1345         calculate D2E/DX2 analytically  !
 ! A101  A(52,55,65)           108.4759         calculate D2E/DX2 analytically  !
 ! A102  A(52,55,66)           105.618          calculate D2E/DX2 analytically  !
 ! A103  A(56,55,65)           111.4344         calculate D2E/DX2 analytically  !
 ! A104  A(56,55,66)           107.3013         calculate D2E/DX2 analytically  !
 ! A105  A(65,55,66)           106.1718         calculate D2E/DX2 analytically  !
 ! A106  A(55,56,57)           117.4172         calculate D2E/DX2 analytically  !
 ! A107  A(55,56,67)           107.57           calculate D2E/DX2 analytically  !
 ! A108  A(55,56,68)           110.4333         calculate D2E/DX2 analytically  !
 ! A109  A(57,56,67)           105.8657         calculate D2E/DX2 analytically  !
 ! A110  A(57,56,68)           109.028          calculate D2E/DX2 analytically  !
 ! A111  A(67,56,68)           105.8094         calculate D2E/DX2 analytically  !
 ! A112  A(56,57,58)           115.8781         calculate D2E/DX2 analytically  !
 ! A113  A(56,57,69)           109.9979         calculate D2E/DX2 analytically  !
 ! A114  A(56,57,70)           109.6051         calculate D2E/DX2 analytically  !
 ! A115  A(58,57,69)           105.8234         calculate D2E/DX2 analytically  !
 ! A116  A(58,57,70)           108.6708         calculate D2E/DX2 analytically  !
 ! A117  A(69,57,70)           106.4081         calculate D2E/DX2 analytically  !
 ! A118  A(57,58,59)           124.856          calculate D2E/DX2 analytically  !
 ! A119  A(57,58,71)           114.9778         calculate D2E/DX2 analytically  !
 ! A120  A(59,58,71)           112.7741         calculate D2E/DX2 analytically  !
 ! A121  A(58,59,60)           121.1994         calculate D2E/DX2 analytically  !
 ! A122  A(58,59,61)           118.4839         calculate D2E/DX2 analytically  !
 ! A123  A(60,59,61)           120.1787         calculate D2E/DX2 analytically  !
 ! A124  A(59,60,72)           116.0515         calculate D2E/DX2 analytically  !
 ! A125  A(59,60,73)           118.2251         calculate D2E/DX2 analytically  !
 ! A126  A(72,60,73)           115.6698         calculate D2E/DX2 analytically  !
 ! A127  A(59,61,74)           115.0457         calculate D2E/DX2 analytically  !
 ! A128  A(59,61,75)           118.4023         calculate D2E/DX2 analytically  !
 ! A129  A(74,61,75)           117.3771         calculate D2E/DX2 analytically  !
 ! D1    D(9,1,2,3)            105.4869         calculate D2E/DX2 analytically  !
 ! D2    D(9,1,2,5)            -21.5197         calculate D2E/DX2 analytically  !
 ! D3    D(9,1,2,10)          -141.3149         calculate D2E/DX2 analytically  !
 ! D4    D(15,1,2,3)          -137.3923         calculate D2E/DX2 analytically  !
 ! D5    D(15,1,2,5)            95.6012         calculate D2E/DX2 analytically  !
 ! D6    D(15,1,2,10)          -24.194          calculate D2E/DX2 analytically  !
 ! D7    D(16,1,2,3)           -14.8728         calculate D2E/DX2 analytically  !
 ! D8    D(16,1,2,5)          -141.8793         calculate D2E/DX2 analytically  !
 ! D9    D(16,1,2,10)           98.3254         calculate D2E/DX2 analytically  !
 ! D10   D(1,2,3,4)             74.9803         calculate D2E/DX2 analytically  !
 ! D11   D(1,2,3,17)          -106.2938         calculate D2E/DX2 analytically  !
 ! D12   D(5,2,3,4)           -157.1291         calculate D2E/DX2 analytically  !
 ! D13   D(5,2,3,17)            21.5968         calculate D2E/DX2 analytically  !
 ! D14   D(10,2,3,4)           -41.0135         calculate D2E/DX2 analytically  !
 ! D15   D(10,2,3,17)          137.7124         calculate D2E/DX2 analytically  !
 ! D16   D(1,2,5,6)            -69.9222         calculate D2E/DX2 analytically  !
 ! D17   D(1,2,5,11)            53.5697         calculate D2E/DX2 analytically  !
 ! D18   D(1,2,5,12)           174.7026         calculate D2E/DX2 analytically  !
 ! D19   D(3,2,5,6)            165.0111         calculate D2E/DX2 analytically  !
 ! D20   D(3,2,5,11)           -71.4971         calculate D2E/DX2 analytically  !
 ! D21   D(3,2,5,12)            49.6359         calculate D2E/DX2 analytically  !
 ! D22   D(10,2,5,6)            50.6509         calculate D2E/DX2 analytically  !
 ! D23   D(10,2,5,11)          174.1427         calculate D2E/DX2 analytically  !
 ! D24   D(10,2,5,12)          -64.7243         calculate D2E/DX2 analytically  !
 ! D25   D(2,3,17,18)         -159.3715         calculate D2E/DX2 analytically  !
 ! D26   D(2,3,17,28)           13.8987         calculate D2E/DX2 analytically  !
 ! D27   D(4,3,17,18)           19.2557         calculate D2E/DX2 analytically  !
 ! D28   D(4,3,17,28)         -167.4741         calculate D2E/DX2 analytically  !
 ! D29   D(2,5,6,7)            121.2692         calculate D2E/DX2 analytically  !
 ! D30   D(2,5,6,8)            -59.6158         calculate D2E/DX2 analytically  !
 ! D31   D(11,5,6,7)            -3.7152         calculate D2E/DX2 analytically  !
 ! D32   D(11,5,6,8)           175.3998         calculate D2E/DX2 analytically  !
 ! D33   D(12,5,6,7)          -122.8256         calculate D2E/DX2 analytically  !
 ! D34   D(12,5,6,8)            56.2894         calculate D2E/DX2 analytically  !
 ! D35   D(5,6,7,13)          -174.4014         calculate D2E/DX2 analytically  !
 ! D36   D(5,6,7,14)           -17.1906         calculate D2E/DX2 analytically  !
 ! D37   D(8,6,7,13)             6.5122         calculate D2E/DX2 analytically  !
 ! D38   D(8,6,7,14)           163.7231         calculate D2E/DX2 analytically  !
 ! D39   D(3,17,18,19)        -129.43           calculate D2E/DX2 analytically  !
 ! D40   D(3,17,18,21)         105.2323         calculate D2E/DX2 analytically  !
 ! D41   D(3,17,18,29)         -13.2047         calculate D2E/DX2 analytically  !
 ! D42   D(28,17,18,19)         57.3201         calculate D2E/DX2 analytically  !
 ! D43   D(28,17,18,21)        -68.0176         calculate D2E/DX2 analytically  !
 ! D44   D(28,17,18,29)        173.5454         calculate D2E/DX2 analytically  !
 ! D45   D(17,18,19,20)       -119.6799         calculate D2E/DX2 analytically  !
 ! D46   D(17,18,19,37)         59.8549         calculate D2E/DX2 analytically  !
 ! D47   D(21,18,19,20)          5.6581         calculate D2E/DX2 analytically  !
 ! D48   D(21,18,19,37)       -174.8071         calculate D2E/DX2 analytically  !
 ! D49   D(29,18,19,20)        125.1956         calculate D2E/DX2 analytically  !
 ! D50   D(29,18,19,37)        -55.2696         calculate D2E/DX2 analytically  !
 ! D51   D(17,18,21,22)        -37.0174         calculate D2E/DX2 analytically  !
 ! D52   D(17,18,21,30)         84.079          calculate D2E/DX2 analytically  !
 ! D53   D(17,18,21,31)       -161.0456         calculate D2E/DX2 analytically  !
 ! D54   D(19,18,21,22)       -162.3262         calculate D2E/DX2 analytically  !
 ! D55   D(19,18,21,30)        -41.2299         calculate D2E/DX2 analytically  !
 ! D56   D(19,18,21,31)         73.6456         calculate D2E/DX2 analytically  !
 ! D57   D(29,18,21,22)         79.2272         calculate D2E/DX2 analytically  !
 ! D58   D(29,18,21,30)       -159.6764         calculate D2E/DX2 analytically  !
 ! D59   D(29,18,21,31)        -44.801          calculate D2E/DX2 analytically  !
 ! D60   D(18,19,37,38)         -1.4511         calculate D2E/DX2 analytically  !
 ! D61   D(18,19,37,45)       -177.1241         calculate D2E/DX2 analytically  !
 ! D62   D(20,19,37,38)        178.0952         calculate D2E/DX2 analytically  !
 ! D63   D(20,19,37,45)          2.4222         calculate D2E/DX2 analytically  !
 ! D64   D(18,21,22,23)        -50.5121         calculate D2E/DX2 analytically  !
 ! D65   D(18,21,22,24)        124.6478         calculate D2E/DX2 analytically  !
 ! D66   D(30,21,22,23)       -172.6696         calculate D2E/DX2 analytically  !
 ! D67   D(30,21,22,24)          2.4903         calculate D2E/DX2 analytically  !
 ! D68   D(31,21,22,23)         71.0992         calculate D2E/DX2 analytically  !
 ! D69   D(31,21,22,24)       -113.7409         calculate D2E/DX2 analytically  !
 ! D70   D(21,22,23,25)        171.7615         calculate D2E/DX2 analytically  !
 ! D71   D(21,22,23,32)         -0.2922         calculate D2E/DX2 analytically  !
 ! D72   D(24,22,23,25)         -3.4464         calculate D2E/DX2 analytically  !
 ! D73   D(24,22,23,32)       -175.5001         calculate D2E/DX2 analytically  !
 ! D74   D(21,22,24,26)       -173.1343         calculate D2E/DX2 analytically  !
 ! D75   D(21,22,24,33)          4.4464         calculate D2E/DX2 analytically  !
 ! D76   D(23,22,24,26)          2.1788         calculate D2E/DX2 analytically  !
 ! D77   D(23,22,24,33)        179.7595         calculate D2E/DX2 analytically  !
 ! D78   D(22,23,25,27)          2.1519         calculate D2E/DX2 analytically  !
 ! D79   D(22,23,25,34)       -174.7433         calculate D2E/DX2 analytically  !
 ! D80   D(32,23,25,27)        174.2524         calculate D2E/DX2 analytically  !
 ! D81   D(32,23,25,34)         -2.6428         calculate D2E/DX2 analytically  !
 ! D82   D(22,24,26,27)          0.412          calculate D2E/DX2 analytically  !
 ! D83   D(22,24,26,35)        177.7647         calculate D2E/DX2 analytically  !
 ! D84   D(33,24,26,27)       -177.1579         calculate D2E/DX2 analytically  !
 ! D85   D(33,24,26,35)          0.1948         calculate D2E/DX2 analytically  !
 ! D86   D(23,25,27,26)          0.4891         calculate D2E/DX2 analytically  !
 ! D87   D(23,25,27,36)       -177.7884         calculate D2E/DX2 analytically  !
 ! D88   D(34,25,27,26)        177.3058         calculate D2E/DX2 analytically  !
 ! D89   D(34,25,27,36)         -0.9717         calculate D2E/DX2 analytically  !
 ! D90   D(24,26,27,25)         -1.7558         calculate D2E/DX2 analytically  !
 ! D91   D(24,26,27,36)        176.5161         calculate D2E/DX2 analytically  !
 ! D92   D(35,26,27,25)       -179.0839         calculate D2E/DX2 analytically  !
 ! D93   D(35,26,27,36)         -0.812          calculate D2E/DX2 analytically  !
 ! D94   D(19,37,38,39)        -86.8317         calculate D2E/DX2 analytically  !
 ! D95   D(19,37,38,41)        150.4718         calculate D2E/DX2 analytically  !
 ! D96   D(19,37,38,46)         29.9141         calculate D2E/DX2 analytically  !
 ! D97   D(45,37,38,39)         88.8166         calculate D2E/DX2 analytically  !
 ! D98   D(45,37,38,41)        -33.8799         calculate D2E/DX2 analytically  !
 ! D99   D(45,37,38,46)       -154.4376         calculate D2E/DX2 analytically  !
 ! D100  D(37,38,39,40)        165.5158         calculate D2E/DX2 analytically  !
 ! D101  D(37,38,39,51)        -17.3317         calculate D2E/DX2 analytically  !
 ! D102  D(41,38,39,40)        -70.9402         calculate D2E/DX2 analytically  !
 ! D103  D(41,38,39,51)        106.2123         calculate D2E/DX2 analytically  !
 ! D104  D(46,38,39,40)         45.8214         calculate D2E/DX2 analytically  !
 ! D105  D(46,38,39,51)       -137.0261         calculate D2E/DX2 analytically  !
 ! D106  D(37,38,41,42)         58.286          calculate D2E/DX2 analytically  !
 ! D107  D(37,38,41,47)        -59.7134         calculate D2E/DX2 analytically  !
 ! D108  D(37,38,41,48)       -177.5445         calculate D2E/DX2 analytically  !
 ! D109  D(39,38,41,42)        -66.9017         calculate D2E/DX2 analytically  !
 ! D110  D(39,38,41,47)        175.099          calculate D2E/DX2 analytically  !
 ! D111  D(39,38,41,48)         57.2679         calculate D2E/DX2 analytically  !
 ! D112  D(46,38,41,42)        179.2147         calculate D2E/DX2 analytically  !
 ! D113  D(46,38,41,47)         61.2153         calculate D2E/DX2 analytically  !
 ! D114  D(46,38,41,48)        -56.6158         calculate D2E/DX2 analytically  !
 ! D115  D(38,39,51,52)        167.5001         calculate D2E/DX2 analytically  !
 ! D116  D(38,39,51,63)         15.2177         calculate D2E/DX2 analytically  !
 ! D117  D(40,39,51,52)        -15.4524         calculate D2E/DX2 analytically  !
 ! D118  D(40,39,51,63)       -167.7348         calculate D2E/DX2 analytically  !
 ! D119  D(38,41,42,43)        136.4883         calculate D2E/DX2 analytically  !
 ! D120  D(38,41,42,44)        -45.4732         calculate D2E/DX2 analytically  !
 ! D121  D(47,41,42,43)       -104.4434         calculate D2E/DX2 analytically  !
 ! D122  D(47,41,42,44)         73.595          calculate D2E/DX2 analytically  !
 ! D123  D(48,41,42,43)         12.8521         calculate D2E/DX2 analytically  !
 ! D124  D(48,41,42,44)       -169.1095         calculate D2E/DX2 analytically  !
 ! D125  D(41,42,43,49)        179.0251         calculate D2E/DX2 analytically  !
 ! D126  D(41,42,43,50)         -1.3051         calculate D2E/DX2 analytically  !
 ! D127  D(44,42,43,49)          1.0007         calculate D2E/DX2 analytically  !
 ! D128  D(44,42,43,50)       -179.3295         calculate D2E/DX2 analytically  !
 ! D129  D(39,51,52,53)        -89.8407         calculate D2E/DX2 analytically  !
 ! D130  D(39,51,52,55)        143.2107         calculate D2E/DX2 analytically  !
 ! D131  D(39,51,52,64)         23.6425         calculate D2E/DX2 analytically  !
 ! D132  D(63,51,52,53)         62.577          calculate D2E/DX2 analytically  !
 ! D133  D(63,51,52,55)        -64.3716         calculate D2E/DX2 analytically  !
 ! D134  D(63,51,52,64)        176.0603         calculate D2E/DX2 analytically  !
 ! D135  D(51,52,53,54)        -38.4186         calculate D2E/DX2 analytically  !
 ! D136  D(51,52,53,62)        143.4636         calculate D2E/DX2 analytically  !
 ! D137  D(55,52,53,54)         89.5509         calculate D2E/DX2 analytically  !
 ! D138  D(55,52,53,62)        -88.5669         calculate D2E/DX2 analytically  !
 ! D139  D(64,52,53,54)       -152.4143         calculate D2E/DX2 analytically  !
 ! D140  D(64,52,53,62)         29.4679         calculate D2E/DX2 analytically  !
 ! D141  D(51,52,55,56)         24.1294         calculate D2E/DX2 analytically  !
 ! D142  D(51,52,55,65)        151.2994         calculate D2E/DX2 analytically  !
 ! D143  D(51,52,55,66)        -95.2277         calculate D2E/DX2 analytically  !
 ! D144  D(53,52,55,56)       -102.1185         calculate D2E/DX2 analytically  !
 ! D145  D(53,52,55,65)         25.0515         calculate D2E/DX2 analytically  !
 ! D146  D(53,52,55,66)        138.5244         calculate D2E/DX2 analytically  !
 ! D147  D(64,52,55,56)        142.0594         calculate D2E/DX2 analytically  !
 ! D148  D(64,52,55,65)        -90.7705         calculate D2E/DX2 analytically  !
 ! D149  D(64,52,55,66)         22.7023         calculate D2E/DX2 analytically  !
 ! D150  D(52,55,56,57)         91.9536         calculate D2E/DX2 analytically  !
 ! D151  D(52,55,56,67)       -148.8832         calculate D2E/DX2 analytically  !
 ! D152  D(52,55,56,68)        -33.8638         calculate D2E/DX2 analytically  !
 ! D153  D(65,55,56,57)        -33.7614         calculate D2E/DX2 analytically  !
 ! D154  D(65,55,56,67)         85.4018         calculate D2E/DX2 analytically  !
 ! D155  D(65,55,56,68)       -159.5788         calculate D2E/DX2 analytically  !
 ! D156  D(66,55,56,57)       -149.59           calculate D2E/DX2 analytically  !
 ! D157  D(66,55,56,67)        -30.4268         calculate D2E/DX2 analytically  !
 ! D158  D(66,55,56,68)         84.5926         calculate D2E/DX2 analytically  !
 ! D159  D(55,56,57,58)        -64.4643         calculate D2E/DX2 analytically  !
 ! D160  D(55,56,57,69)         55.4731         calculate D2E/DX2 analytically  !
 ! D161  D(55,56,57,70)        172.135          calculate D2E/DX2 analytically  !
 ! D162  D(67,56,57,58)        175.4718         calculate D2E/DX2 analytically  !
 ! D163  D(67,56,57,69)        -64.5908         calculate D2E/DX2 analytically  !
 ! D164  D(67,56,57,70)         52.0711         calculate D2E/DX2 analytically  !
 ! D165  D(68,56,57,58)         62.0428         calculate D2E/DX2 analytically  !
 ! D166  D(68,56,57,69)       -178.0199         calculate D2E/DX2 analytically  !
 ! D167  D(68,56,57,70)        -61.3579         calculate D2E/DX2 analytically  !
 ! D168  D(56,57,58,59)        -76.0132         calculate D2E/DX2 analytically  !
 ! D169  D(56,57,58,71)         71.6419         calculate D2E/DX2 analytically  !
 ! D170  D(69,57,58,59)        161.8085         calculate D2E/DX2 analytically  !
 ! D171  D(69,57,58,71)        -50.5364         calculate D2E/DX2 analytically  !
 ! D172  D(70,57,58,59)         47.8747         calculate D2E/DX2 analytically  !
 ! D173  D(70,57,58,71)       -164.4702         calculate D2E/DX2 analytically  !
 ! D174  D(57,58,59,60)         -1.9831         calculate D2E/DX2 analytically  !
 ! D175  D(57,58,59,61)       -177.7196         calculate D2E/DX2 analytically  !
 ! D176  D(71,58,59,60)       -150.2488         calculate D2E/DX2 analytically  !
 ! D177  D(71,58,59,61)         34.0147         calculate D2E/DX2 analytically  !
 ! D178  D(58,59,60,72)        160.4173         calculate D2E/DX2 analytically  !
 ! D179  D(58,59,60,73)         16.3571         calculate D2E/DX2 analytically  !
 ! D180  D(61,59,60,72)        -23.9177         calculate D2E/DX2 analytically  !
 ! D181  D(61,59,60,73)       -167.9779         calculate D2E/DX2 analytically  !
 ! D182  D(58,59,61,74)       -164.6077         calculate D2E/DX2 analytically  !
 ! D183  D(58,59,61,75)        -18.5389         calculate D2E/DX2 analytically  !
 ! D184  D(60,59,61,74)         19.6108         calculate D2E/DX2 analytically  !
 ! D185  D(60,59,61,75)        165.6797         calculate D2E/DX2 analytically  !
 --------------------------------------------------------------------------------
 Trust Radius=3.00D-01 FncErr=1.00D-07 GrdErr=1.00D-06 EigMax=2.50D+02 EigMin=1.00D-04
 Number of steps in this run=    399 maximum allowed number of steps=    450.
 GradGradGradGradGradGradGradGradGradGradGradGradGradGradGradGradGradGrad

 Symmetry turned off by external request.
 Stoichiometry    C23H36N9O7(1+)
 Framework group  C1[X(C23H36N9O7)]
 Deg. of freedom   219
 Full point group                 C1      NOp   1
                          Input orientation:                          
 ---------------------------------------------------------------------
 Center     Atomic      Atomic             Coordinates (Angstroms)
 Number     Number       Type             X           Y           Z
 ---------------------------------------------------------------------
      1          7           0       -9.279256   -2.687376   -5.499433
      2          6           0       -8.253478   -1.704390   -5.117884
      3          6           0       -8.251235   -0.557742   -6.146985
      4          8           0       -9.192741    0.278761   -6.092808
      5          6           0       -6.874671   -2.296428   -4.899180
      6          6           0       -6.873115   -3.133388   -3.650184
      7          7           0       -6.526859   -4.430311   -3.846692
      8          8           0       -7.148234   -2.653316   -2.562452
      9          1           0       -8.805145   -3.515518   -5.892695
     10          1           0       -8.556246   -1.226979   -4.178505
     11          1           0       -6.534058   -2.870610   -5.729474
     12          1           0       -6.184727   -1.461043   -4.716121
     13          1           0       -6.595737   -5.047789   -3.055386
     14          1           0       -6.559677   -4.798351   -4.787172
     15          1           0       -9.792366   -2.992531   -4.670486
     16          1           0       -9.947493   -2.334058   -6.199550
     17          7           0       -7.212798   -0.505550   -7.037101
     18          6           0       -6.883365    0.732044   -7.723285
     19          6           0       -6.765520    0.519399   -9.240334
     20          8           0       -5.725242    0.746509   -9.851012
     21          6           0       -5.606638    1.380523   -7.140954
     22          6           0       -5.469368    1.237740   -5.641131
     23          6           0       -6.506353    1.576558   -4.775586
     24          6           0       -4.317310    0.661050   -5.107309
     25          6           0       -6.421577    1.277863   -3.415863
     26          6           0       -4.218756    0.385787   -3.747184
     27          6           0       -5.279772    0.677165   -2.899264
     28          1           0       -6.610177   -1.307382   -7.139599
     29          1           0       -7.733575    1.396974   -7.552598
     30          1           0       -4.723696    0.933291   -7.600897
     31          1           0       -5.610789    2.428493   -7.445484
     32          1           0       -7.444473    1.960168   -5.178268
     33          1           0       -3.503398    0.388749   -5.771751
     34          1           0       -7.282021    1.477461   -2.786630
     35          1           0       -3.326600   -0.096087   -3.363767
     36          1           0       -5.231494    0.413571   -1.847643
     37          7           0       -7.845839    0.058933   -9.908187
     38          6           0       -9.149270   -0.311486   -9.413681
     39          6           0       -9.229126   -1.767393   -8.945855
     40          8           0      -10.179737   -2.140785   -8.264818
     41          6           0      -10.223894   -0.071137  -10.490218
     42          6           0       -9.966356   -0.838701  -11.778350
     43          7           0      -11.050547   -1.437221  -12.321543
     44          8           0       -8.860635   -0.876278  -12.300742
     45          1           0       -7.694162   -0.104296  -10.895623
     46          1           0       -9.390256    0.278063   -8.528402
     47          1           0      -10.217003    0.988516  -10.753158
     48          1           0      -11.208353   -0.314331  -10.087489
     49          1           0      -10.932670   -1.943942  -13.181626
     50          1           0      -11.951426   -1.389243  -11.886855
     51          7           0       -8.250489   -2.595045   -9.369676
     52          6           0       -8.106958   -3.893143   -8.760814
     53          6           0       -7.153553   -3.820612   -7.542627
     54          8           0       -6.167363   -3.081089   -7.645124
     55          6           0       -7.694621   -4.998852   -9.747684
     56          6           0       -6.957186   -4.561271  -11.021583
     57          6           0       -5.435543   -4.535527  -10.976987
     58          7           0       -4.838786   -3.571619  -10.047143
     59          6           0       -4.759410   -2.245685  -10.260216
     60          7           0       -5.205353   -1.696514  -11.402031
     61          7           0       -4.145971   -1.488215   -9.344673
     62          8           0       -7.479632   -4.559371   -6.595761
     63          1           0       -7.425917   -2.178715   -9.755041
     64          1           0       -9.081683   -4.138548   -8.345341
     65          1           0       -7.130083   -5.759298   -9.200198
     66          1           0       -8.629171   -5.478701  -10.060543
     67          1           0       -7.221892   -5.268512  -11.816811
     68          1           0       -7.319491   -3.588924  -11.356137
     69          1           0       -5.054526   -5.512782  -10.677484
     70          1           0       -5.041763   -4.344345  -11.980618
     71          1           0       -4.937564   -3.807086   -9.062047
     72          1           0       -5.397201   -0.702270  -11.372276
     73          1           0       -5.818780   -2.241597  -11.984477
     74          1           0       -4.321480   -0.496434   -9.422954
     75          1           0       -4.018119   -1.865583   -8.416117
 ---------------------------------------------------------------------
 Rotational constants (GHZ):           0.1396114           0.0808622           0.0763845
 Standard basis: 6-31G(d) (6D, 7F)
   657 basis functions,  1236 primitive gaussians,   657 cartesian basis functions
   146 alpha electrons      146 beta electrons
       nuclear repulsion energy      5285.1582022891 Hartrees.
 NAtoms=   75 NActive=   75 NUniq=   75 SFac= 1.00D+00 NAtFMM=   60 NAOKFM=T Big=T
 Integral buffers will be    131072 words long.
 Raffenetti 2 integral format.
 Two-electron integral symmetry is turned off.
 Nuclear repulsion after empirical dispersion term =     5285.0279404985 Hartrees.
 One-electron integrals computed using PRISM.
 NBasis=   657 RedAO= T EigKep=  4.51D-04  NBF=   657
 NBsUse=   657 1.00D-06 EigRej= -1.00D+00 NBFU=   657
 ExpMin= 1.61D-01 ExpMax= 5.48D+03 ExpMxC= 8.25D+02 IAcc=3 IRadAn=         5 AccDes= 0.00D+00
 Harris functional with IExCor=  402 and IRadAn=       5 diagonalized for initial guess.
 HarFok:  IExCor=  402 AccDes= 0.00D+00 IRadAn=         5 IDoV= 1 UseB2=F ITyADJ=14
 ICtDFT=  3500011 ScaDFX=  1.000000  1.000000  1.000000  1.000000
 FoFCou: FMM=F IPFlag=           0 FMFlag=      100000 FMFlg1=        2001
         NFxFlg=           0 DoJE=T BraDBF=F KetDBF=T FulRan=T
         wScrn=  0.000000 ICntrl=       500 IOpCl=  0 I1Cent=   200000004 NGrid=           0
         NMat0=    1 NMatS0=      1 NMatT0=    0 NMatD0=    1 NMtDS0=    0 NMtDT0=    0
 Symmetry not used in FoFCou.
 Requested convergence on RMS density matrix=1.00D-08 within 128 cycles.
 Requested convergence on MAX density matrix=1.00D-06.
 Requested convergence on             energy=1.00D-06.
 No special actions if energy rises.
 Integral accuracy reduced to 1.0D-05 until final iterations.
 Initial convergence to 1.0D-05 achieved.  Increase integral accuracy.
 SCF Done:  E(RB3LYP) =  -1917.49130637     A.U. after   16 cycles
            NFock= 16  Conv=0.38D-08     -V/T= 2.0088
 DoSCS=F DFT=T ScalE2(SS,OS)=  1.000000  1.000000
 Range of M.O.s used for correlation:     1   657
 NBasis=   657 NAE=   146 NBE=   146 NFC=     0 NFV=     0
 NROrb=    657 NOA=   146 NOB=   146 NVA=   511 NVB=   511
 Symmetrizing basis deriv contribution to polar:
 IMax=3 JMax=2 DiffMx= 0.00D+00
 G2DrvN: will do    76 centers at a time, making    1 passes.
 Calling FoFCou, ICntrl=  3107 FMM=T I1Cent=   0 AccDes= 0.00D+00.
 End of G2Drv F.D. properties file   721 does not exist.
 End of G2Drv F.D. properties file   722 does not exist.
 End of G2Drv F.D. properties file   788 does not exist.
          IDoAtm=11111111111111111111111111111111111111111111111111
          IDoAtm=1111111111111111111111111
          Differentiating once with respect to nuclear coordinates.
 CalDSu exits because no D1Ps are significant.
          There are   228 degrees of freedom in the 1st order CPHF.  IDoFFX=6 NUNeed=     0.
    222 vectors produced by pass  0 Test12= 7.46D-14 1.00D-09 XBig12= 1.78D-01 1.18D-01.
 AX will form    72 AO Fock derivatives at one time.
    222 vectors produced by pass  1 Test12= 7.46D-14 1.00D-09 XBig12= 4.81D-02 3.60D-02.
    222 vectors produced by pass  2 Test12= 7.46D-14 1.00D-09 XBig12= 3.11D-04 1.45D-03.
    222 vectors produced by pass  3 Test12= 7.46D-14 1.00D-09 XBig12= 1.16D-06 9.34D-05.
    222 vectors produced by pass  4 Test12= 7.46D-14 1.00D-09 XBig12= 1.72D-09 3.67D-06.
    177 vectors produced by pass  5 Test12= 7.46D-14 1.00D-09 XBig12= 1.77D-12 1.24D-07.
      9 vectors produced by pass  6 Test12= 7.46D-14 1.00D-09 XBig12= 1.72D-15 2.79D-09.
 InvSVY:  IOpt=1 It=  1 EMax= 5.55D-16
 Solved reduced A of dimension  1296 with   228 vectors.
 End of Minotr F.D. properties file   721 does not exist.
 End of Minotr F.D. properties file   722 does not exist.
 End of Minotr F.D. properties file   788 does not exist.

 **********************************************************************

            Population analysis using the SCF Density.

 **********************************************************************

 Alpha  occ. eigenvalues --  -19.25368 -19.24222 -19.23654 -19.23632 -19.22837
 Alpha  occ. eigenvalues --  -19.22292 -19.19009 -14.56723 -14.50746 -14.50027
 Alpha  occ. eigenvalues --  -14.49758 -14.48452 -14.48096 -14.48028 -14.47328
 Alpha  occ. eigenvalues --  -14.42821 -10.46759 -10.42177 -10.41330 -10.41127
 Alpha  occ. eigenvalues --  -10.41038 -10.39688 -10.36823 -10.36630 -10.36049
 Alpha  occ. eigenvalues --  -10.35361 -10.35274 -10.32981 -10.31983 -10.31087
 Alpha  occ. eigenvalues --  -10.30499 -10.29221 -10.28086 -10.28000 -10.27070
 Alpha  occ. eigenvalues --  -10.26752 -10.26747 -10.26691 -10.26456  -1.17969
 Alpha  occ. eigenvalues --   -1.17531  -1.16403  -1.15760  -1.15676  -1.14705
 Alpha  occ. eigenvalues --   -1.12246  -1.11135  -1.08402  -1.06672  -1.04934
 Alpha  occ. eigenvalues --   -1.04819  -1.04165  -1.04036  -1.02476  -0.98306
 Alpha  occ. eigenvalues --   -0.94163  -0.92111  -0.91274  -0.90468  -0.88054
 Alpha  occ. eigenvalues --   -0.86521  -0.83552  -0.82530  -0.81274  -0.79579
 Alpha  occ. eigenvalues --   -0.79399  -0.77010  -0.76682  -0.73622  -0.72852
 Alpha  occ. eigenvalues --   -0.72361  -0.71249  -0.71036  -0.70793  -0.70340
 Alpha  occ. eigenvalues --   -0.70330  -0.68594  -0.68346  -0.67774  -0.67062
 Alpha  occ. eigenvalues --   -0.66420  -0.65740  -0.64831  -0.63942  -0.63547
 Alpha  occ. eigenvalues --   -0.63329  -0.62546  -0.61846  -0.60650  -0.60536
 Alpha  occ. eigenvalues --   -0.59677  -0.59296  -0.58836  -0.58819  -0.58490
 Alpha  occ. eigenvalues --   -0.57789  -0.57088  -0.56754  -0.56315  -0.55454
 Alpha  occ. eigenvalues --   -0.54893  -0.54579  -0.54186  -0.53706  -0.53293
 Alpha  occ. eigenvalues --   -0.53179  -0.52850  -0.52660  -0.52309  -0.52069
 Alpha  occ. eigenvalues --   -0.51673  -0.51538  -0.51443  -0.50338  -0.49773
 Alpha  occ. eigenvalues --   -0.49533  -0.48924  -0.48741  -0.48500  -0.48085
 Alpha  occ. eigenvalues --   -0.47736  -0.46862  -0.46425  -0.45859  -0.45803
 Alpha  occ. eigenvalues --   -0.45358  -0.43575  -0.42521  -0.42142  -0.41841
 Alpha  occ. eigenvalues --   -0.41182  -0.40598  -0.39868  -0.39653  -0.38946
 Alpha  occ. eigenvalues --   -0.38687  -0.37774  -0.37403  -0.37014  -0.36882
 Alpha  occ. eigenvalues --   -0.36277  -0.34922  -0.34306  -0.33187  -0.32896
 Alpha  occ. eigenvalues --   -0.32529
 Alpha virt. eigenvalues --   -0.12767  -0.12303  -0.11605  -0.10741  -0.09233
 Alpha virt. eigenvalues --   -0.08467  -0.08160  -0.08109  -0.06422  -0.05860
 Alpha virt. eigenvalues --   -0.05341  -0.03620  -0.02998  -0.02574  -0.00790
 Alpha virt. eigenvalues --   -0.00735  -0.00093   0.00242   0.01201   0.01333
 Alpha virt. eigenvalues --    0.01985   0.02297   0.02471   0.02864   0.03443
 Alpha virt. eigenvalues --    0.03874   0.03988   0.04215   0.04948   0.05218
 Alpha virt. eigenvalues --    0.05278   0.05778   0.05892   0.06835   0.06990
 Alpha virt. eigenvalues --    0.07213   0.07478   0.07858   0.08055   0.08324
 Alpha virt. eigenvalues --    0.08501   0.09072   0.09125   0.09775   0.10155
 Alpha virt. eigenvalues --    0.10751   0.10803   0.10866   0.11667   0.12096
 Alpha virt. eigenvalues --    0.12432   0.13478   0.14035   0.14319   0.14676
 Alpha virt. eigenvalues --    0.15339   0.15587   0.16002   0.16253   0.16550
 Alpha virt. eigenvalues --    0.17256   0.18036   0.19037   0.19518   0.19822
 Alpha virt. eigenvalues --    0.21261   0.22847   0.23178   0.23418   0.24446
 Alpha virt. eigenvalues --    0.24684   0.25188   0.25571   0.26002   0.27346
 Alpha virt. eigenvalues --    0.27652   0.28252   0.29174   0.29692   0.30680
 Alpha virt. eigenvalues --    0.31817   0.33232   0.35113   0.35749   0.36439
 Alpha virt. eigenvalues --    0.37830   0.38206   0.38915   0.39212   0.39810
 Alpha virt. eigenvalues --    0.40512   0.41205   0.41948   0.42623   0.43402
 Alpha virt. eigenvalues --    0.43679   0.44266   0.44630   0.45187   0.45600
 Alpha virt. eigenvalues --    0.46144   0.46952   0.47274   0.47537   0.47955
 Alpha virt. eigenvalues --    0.48168   0.48689   0.48776   0.48864   0.49369
 Alpha virt. eigenvalues --    0.49654   0.50493   0.51467   0.51650   0.52071
 Alpha virt. eigenvalues --    0.52756   0.53174   0.53399   0.53588   0.53745
 Alpha virt. eigenvalues --    0.54248   0.54302   0.54541   0.54823   0.55028
 Alpha virt. eigenvalues --    0.55469   0.55876   0.56495   0.56833   0.57094
 Alpha virt. eigenvalues --    0.57445   0.58056   0.58298   0.58617   0.59105
 Alpha virt. eigenvalues --    0.59817   0.60528   0.60600   0.61119   0.61584
 Alpha virt. eigenvalues --    0.62365   0.62852   0.63538   0.64545   0.64839
 Alpha virt. eigenvalues --    0.65265   0.65857   0.66311   0.66644   0.67714
 Alpha virt. eigenvalues --    0.68022   0.68816   0.69537   0.70071   0.70352
 Alpha virt. eigenvalues --    0.70497   0.70824   0.71407   0.72629   0.73107
 Alpha virt. eigenvalues --    0.73200   0.73777   0.74149   0.74835   0.75181
 Alpha virt. eigenvalues --    0.75285   0.75898   0.76453   0.76732   0.77207
 Alpha virt. eigenvalues --    0.77366   0.77514   0.78003   0.78113   0.78476
 Alpha virt. eigenvalues --    0.78732   0.78908   0.79623   0.79800   0.80243
 Alpha virt. eigenvalues --    0.80574   0.80847   0.81058   0.81245   0.81888
 Alpha virt. eigenvalues --    0.82443   0.83068   0.83332   0.83539   0.84300
 Alpha virt. eigenvalues --    0.84662   0.85090   0.85547   0.86342   0.86878
 Alpha virt. eigenvalues --    0.87265   0.88063   0.88912   0.90005   0.90234
 Alpha virt. eigenvalues --    0.90858   0.91078   0.91269   0.92032   0.92973
 Alpha virt. eigenvalues --    0.93410   0.93588   0.94052   0.94719   0.95277
 Alpha virt. eigenvalues --    0.96212   0.96599   0.97164   0.97946   0.98407
 Alpha virt. eigenvalues --    0.99710   1.00363   1.00646   1.01983   1.02469
 Alpha virt. eigenvalues --    1.03640   1.03781   1.04203   1.05021   1.06130
 Alpha virt. eigenvalues --    1.06311   1.06913   1.07372   1.08187   1.08904
 Alpha virt. eigenvalues --    1.09427   1.10131   1.10223   1.11044   1.12750
 Alpha virt. eigenvalues --    1.13335   1.13681   1.14091   1.15433   1.15791
 Alpha virt. eigenvalues --    1.16548   1.16717   1.17644   1.18430   1.19285
 Alpha virt. eigenvalues --    1.20719   1.21209   1.21980   1.22473   1.23236
 Alpha virt. eigenvalues --    1.23743   1.24967   1.25205   1.26189   1.27250
 Alpha virt. eigenvalues --    1.27582   1.29034   1.29134   1.30221   1.31346
 Alpha virt. eigenvalues --    1.32588   1.32870   1.33816   1.33957   1.35204
 Alpha virt. eigenvalues --    1.35479   1.36098   1.36762   1.37034   1.38531
 Alpha virt. eigenvalues --    1.39034   1.40082   1.41097   1.42103   1.42246
 Alpha virt. eigenvalues --    1.42491   1.43463   1.44945   1.45304   1.45986
 Alpha virt. eigenvalues --    1.46928   1.48131   1.50069   1.50535   1.51606
 Alpha virt. eigenvalues --    1.52255   1.52471   1.52871   1.55032   1.55678
 Alpha virt. eigenvalues --    1.56087   1.56571   1.57854   1.59678   1.60103
 Alpha virt. eigenvalues --    1.61666   1.62040   1.62710   1.63237   1.63847
 Alpha virt. eigenvalues --    1.64276   1.64906   1.65928   1.66295   1.66622
 Alpha virt. eigenvalues --    1.67245   1.68259   1.68532   1.69349   1.69990
 Alpha virt. eigenvalues --    1.70403   1.70709   1.71502   1.72178   1.72522
 Alpha virt. eigenvalues --    1.72869   1.72942   1.73755   1.74325   1.74613
 Alpha virt. eigenvalues --    1.75523   1.76274   1.76500   1.76792   1.77591
 Alpha virt. eigenvalues --    1.77748   1.78325   1.79205   1.79981   1.80049
 Alpha virt. eigenvalues --    1.80474   1.81112   1.81216   1.82323   1.83359
 Alpha virt. eigenvalues --    1.83901   1.84528   1.85044   1.85462   1.86437
 Alpha virt. eigenvalues --    1.87163   1.87705   1.88595   1.89885   1.89996
 Alpha virt. eigenvalues --    1.90822   1.91301   1.91470   1.92035   1.93281
 Alpha virt. eigenvalues --    1.93676   1.94506   1.95709   1.96290   1.96774
 Alpha virt. eigenvalues --    1.97528   1.97706   1.98365   1.98816   1.98959
 Alpha virt. eigenvalues --    2.00100   2.01439   2.01873   2.01997   2.02065
 Alpha virt. eigenvalues --    2.03014   2.03459   2.04138   2.05810   2.06206
 Alpha virt. eigenvalues --    2.07601   2.07947   2.08344   2.09605   2.10215
 Alpha virt. eigenvalues --    2.10906   2.11641   2.13103   2.13633   2.14770
 Alpha virt. eigenvalues --    2.15478   2.16696   2.17418   2.18320   2.19446
 Alpha virt. eigenvalues --    2.20046   2.20420   2.21219   2.21592   2.22007
 Alpha virt. eigenvalues --    2.22552   2.23873   2.24053   2.24531   2.25409
 Alpha virt. eigenvalues --    2.26105   2.27000   2.28052   2.28626   2.28721
 Alpha virt. eigenvalues --    2.30089   2.30230   2.32261   2.33043   2.33754
 Alpha virt. eigenvalues --    2.34979   2.35714   2.35988   2.36396   2.38033
 Alpha virt. eigenvalues --    2.39156   2.41714   2.42194   2.43863   2.44471
 Alpha virt. eigenvalues --    2.45340   2.46970   2.47568   2.48839   2.49567
 Alpha virt. eigenvalues --    2.49894   2.50318   2.50918   2.51022   2.51539
 Alpha virt. eigenvalues --    2.52414   2.52675   2.53276   2.53547   2.56305
 Alpha virt. eigenvalues --    2.57027   2.57958   2.58536   2.58699   2.59916
 Alpha virt. eigenvalues --    2.60130   2.60593   2.62052   2.62921   2.64518
 Alpha virt. eigenvalues --    2.65510   2.67011   2.67419   2.68176   2.69534
 Alpha virt. eigenvalues --    2.71188   2.71873   2.73185   2.75089   2.77424
 Alpha virt. eigenvalues --    2.78260   2.82200   2.85301   2.86383   2.86758
 Alpha virt. eigenvalues --    2.88599   2.89377   2.91447   2.91691   2.92822
 Alpha virt. eigenvalues --    2.93303   2.94011   2.94199   2.95630   2.97905
 Alpha virt. eigenvalues --    2.99411   3.00417   3.03368   3.04278   3.09386
 Alpha virt. eigenvalues --    3.10912   3.34566   3.69803   3.72962   3.73507
 Alpha virt. eigenvalues --    3.78445   3.80501   3.85204   3.89062   3.93616
 Alpha virt. eigenvalues --    3.97872   3.99253   4.00983   4.04117   4.04280
 Alpha virt. eigenvalues --    4.06505   4.08045   4.10340   4.12836   4.13547
 Alpha virt. eigenvalues --    4.16352   4.17532   4.19106   4.20805   4.25744
 Alpha virt. eigenvalues --    4.27731   4.30689   4.33444   4.34118   4.36426
 Alpha virt. eigenvalues --    4.39004   4.39787   4.41658   4.46134   4.48023
 Alpha virt. eigenvalues --    4.50250   4.58842   4.62053   4.67200   4.68500
 Alpha virt. eigenvalues --    4.72467
          Condensed to atoms (all electrons):
 Mulliken charges:
               1
     1  N   -0.787884
     2  C   -0.098447
     3  C    0.589537
     4  O   -0.528631
     5  C   -0.448582
     6  C    0.559567
     7  N   -0.749414
     8  O   -0.509227
     9  H    0.435318
    10  H    0.246102
    11  H    0.229690
    12  H    0.221301
    13  H    0.345114
    14  H    0.371932
    15  H    0.415636
    16  H    0.443323
    17  N   -0.629336
    18  C   -0.080491
    19  C    0.618979
    20  O   -0.553054
    21  C   -0.358213
    22  C    0.178320
    23  C   -0.204779
    24  C   -0.198892
    25  C   -0.140542
    26  C   -0.131323
    27  C   -0.117293
    28  H    0.396747
    29  H    0.216945
    30  H    0.142180
    31  H    0.189810
    32  H    0.151565
    33  H    0.119997
    34  H    0.152379
    35  H    0.149249
    36  H    0.160293
    37  N   -0.626196
    38  C   -0.075027
    39  C    0.631726
    40  O   -0.570604
    41  C   -0.382177
    42  C    0.611618
    43  N   -0.729880
    44  O   -0.537723
    45  H    0.370410
    46  H    0.222863
    47  H    0.213950
    48  H    0.189430
    49  H    0.362377
    50  H    0.362780
    51  N   -0.585030
    52  C   -0.052023
    53  C    0.593415
    54  O   -0.614750
    55  C   -0.300905
    56  C   -0.298781
    57  C   -0.192294
    58  N   -0.573868
    59  C    0.730073
    60  N   -0.747517
    61  N   -0.751758
    62  O   -0.576597
    63  H    0.343021
    64  H    0.180053
    65  H    0.173079
    66  H    0.177358
    67  H    0.180772
    68  H    0.150838
    69  H    0.197636
    70  H    0.188239
    71  H    0.378604
    72  H    0.391695
    73  H    0.379323
    74  H    0.409806
    75  H    0.378189
 Sum of Mulliken charges =   1.00000
 Mulliken charges with hydrogens summed into heavy atoms:
               1
     1  N    0.506394
     2  C    0.147655
     3  C    0.589537
     4  O   -0.528631
     5  C    0.002409
     6  C    0.559567
     7  N   -0.032369
     8  O   -0.509227
    17  N   -0.232589
    18  C    0.136453
    19  C    0.618979
    20  O   -0.553054
    21  C   -0.026223
    22  C    0.178320
    23  C   -0.053214
    24  C   -0.078895
    25  C    0.011837
    26  C    0.017926
    27  C    0.043000
    37  N   -0.255786
    38  C    0.147836
    39  C    0.631726
    40  O   -0.570604
    41  C    0.021204
    42  C    0.611618
    43  N   -0.004723
    44  O   -0.537723
    51  N   -0.242009
    52  C    0.128030
    53  C    0.593415
    54  O   -0.614750
    55  C    0.049531
    56  C    0.032828
    57  C    0.193581
    58  N   -0.195264
    59  C    0.730073
    60  N    0.023501
    61  N    0.036237
    62  O   -0.576597
 APT charges:
               1
     1  N   -2.649965
     2  C    0.868330
     3  C   -1.307140
     4  O    0.905175
     5  C    0.169591
     6  C    0.655931
     7  N   -1.425916
     8  O   -1.195175
     9  H    0.370164
    10  H   -0.128562
    11  H    0.733127
    12  H   -0.578902
    13  H    0.501297
    14  H    1.223924
    15  H    0.654993
    16  H    1.759386
    17  N   -0.021240
    18  C   -1.531662
    19  C   -0.516690
    20  O   -0.411815
    21  C   -0.434444
    22  C    1.059587
    23  C   -0.424756
    24  C   -0.792030
    25  C   -0.555974
    26  C   -0.842012
    27  C   -0.744840
    28  H    0.096290
    29  H    0.972178
    30  H   -0.007535
    31  H    0.764422
    32  H    1.392337
    33  H    0.228957
    34  H    0.858176
    35  H   -0.397809
    36  H   -0.129980
    37  N   -0.380572
    38  C    0.332243
    39  C   -0.068803
    40  O    0.431013
    41  C   -2.319251
    42  C   -0.173261
    43  N   -1.486053
    44  O   -0.982571
    45  H    1.500745
    46  H   -0.293189
    47  H    0.716416
    48  H    1.126690
    49  H    2.267222
    50  H    1.357853
    51  N   -0.130131
    52  C   -0.852188
    53  C    1.278406
    54  O   -1.531234
    55  C   -1.395376
    56  C   -2.857895
    57  C   -1.447008
    58  N    0.951818
    59  C    0.209032
    60  N   -1.258582
    61  N   -0.807720
    62  O   -0.641330
    63  H   -0.099586
    64  H    0.902440
    65  H   -0.337025
    66  H    1.869689
    67  H    2.031662
    68  H    0.533985
    69  H    0.302581
    70  H    1.462546
    71  H   -0.613226
    72  H    0.483638
    73  H    2.401944
    74  H    0.460694
    75  H   -1.063034
 Sum of APT charges =   1.00000
 APT charges with hydrogens summed into heavy atoms:
               1
     1  N    0.134578
     2  C    0.739768
     3  C   -1.307140
     4  O    0.905175
     5  C    0.323817
     6  C    0.655931
     7  N    0.299306
     8  O   -1.195175
    17  N    0.075050
    18  C   -0.559484
    19  C   -0.516690
    20  O   -0.411815
    21  C    0.322443
    22  C    1.059587
    23  C    0.967581
    24  C   -0.563074
    25  C    0.302202
    26  C   -1.239821
    27  C   -0.874820
    37  N    1.120172
    38  C    0.039053
    39  C   -0.068803
    40  O    0.431013
    41  C   -0.476145
    42  C   -0.173261
    43  N    2.139022
    44  O   -0.982571
    51  N   -0.229717
    52  C    0.050252
    53  C    1.278406
    54  O   -1.531234
    55  C    0.137288
    56  C   -0.292248
    57  C    0.318119
    58  N    0.338592
    59  C    0.209032
    60  N    1.626999
    61  N   -1.410060
    62  O   -0.641330
 Electronic spatial extent (au):  <R**2>=         135567.3056
 Charge=              1.0000 electrons
 Dipole moment (field-independent basis, Debye):
    X=            -37.7086    Y=            -12.2490    Z=            -45.1343  Tot=             60.0757
 Quadrupole moment (field-independent basis, Debye-Ang):
   XX=            111.5729   YY=           -175.3280   ZZ=            229.2219
   XY=             91.4502   XZ=            360.0484   YZ=            115.0932
 Traceless Quadrupole moment (field-independent basis, Debye-Ang):
   XX=             56.4173   YY=           -230.4836   ZZ=            174.0663
   XY=             91.4502   XZ=            360.0484   YZ=            115.0932
 Octapole moment (field-independent basis, Debye-Ang**2):
  XXX=           1532.1107  YYY=            773.0580  ZZZ=            384.9223  XYY=           1248.0689
  XXY=           -433.8093  XXZ=          -1514.9641  XZZ=          -2109.0856  YZZ=           -862.7365
  YYZ=           1289.6048  XYZ=           -830.9274
 Hexadecapole moment (field-independent basis, Debye-Ang**3):
 XXXX=         -39465.4876 YYYY=          -7339.8144 ZZZZ=         -38214.8656 XXXY=           -260.3777
 XXXZ=          -5789.3057 YYYX=          -5864.6247 YYYZ=          -6554.9445 ZZZX=           2525.6078
 ZZZY=           4903.4437 XXYY=         -10890.8885 XXZZ=           6946.0367 YYZZ=         -11989.1070
 XXYZ=           3911.5790 YYXZ=          -9619.3452 ZZXY=           6156.5096
 N-N= 5.285027940499D+03 E-N=-1.500894592907D+04  KE= 1.900836049679D+03
  Exact polarizability:       0.000       0.000       0.000       0.000       0.000       0.000
 Approx polarizability:     487.312     -19.346     407.481     -28.060      -8.185     482.485
 Calling FoFJK, ICntrl=    100127 FMM=F ISym2X=0 I1Cent= 0 IOpClX= 0 NMat=1 NMatS=1 NMatT=0.
 -------------------------------------------------------------------
 Center     Atomic                   Forces (Hartrees/Bohr)
 Number     Number              X              Y              Z
 -------------------------------------------------------------------
      1        7          -0.014073745   -0.013439255    0.006500736
      2        6           0.021905786    0.035283385    0.000334913
      3        6          -0.027909969    0.027297901   -0.001770396
      4        8           0.034749188   -0.027509876   -0.007096538
      5        6           0.000080662    0.007815951    0.014801668
      6        6           0.005167730   -0.009029753    0.006790761
      7        7          -0.001139709    0.003503531    0.000421536
      8        8          -0.005738561    0.004695862    0.009015364
      9        1           0.002852290   -0.012367608   -0.007225109
     10        1          -0.002073479   -0.001292073   -0.003118053
     11        1           0.008064444    0.001577229   -0.004950253
     12        1          -0.002889341   -0.001424897   -0.000788821
     13        1           0.000694125   -0.004327702    0.003094774
     14        1           0.000606150   -0.004300057   -0.003793029
     15        1          -0.002976803   -0.002200141    0.000705059
     16        1          -0.001042423    0.002409694   -0.004243091
     17        7          -0.022862039    0.006825725    0.006279818
     18        6           0.000755623    0.003023610    0.001596161
     19        6          -0.015758490   -0.001133972    0.010316451
     20        8           0.018128586    0.002381694   -0.010569592
     21        6           0.003355498    0.001028851    0.001480471
     22        6          -0.000696388    0.000094609   -0.005872212
     23        6          -0.009663824   -0.001619980    0.000979073
     24        6           0.001491565   -0.002494561   -0.002503717
     25        6          -0.006543693    0.002290944   -0.003050033
     26        6           0.004488722   -0.002582440    0.000322130
     27        6          -0.000576821   -0.001427004    0.006756795
     28        1           0.007781741   -0.005930450    0.000929655
     29        1          -0.000963342    0.000679045    0.000895557
     30        1           0.000436193    0.000097081   -0.003106716
     31        1           0.001199564    0.003403877   -0.001562881
     32        1           0.003368827    0.002310112    0.002245634
     33        1           0.002168327   -0.000218728   -0.000677223
     34        1           0.000768487    0.001318383    0.002900749
     35        1           0.001527279    0.000119714    0.001351071
     36        1           0.000404677    0.000254610    0.000324168
     37        7           0.006613691    0.001530547    0.000493059
     38        6          -0.005006823   -0.002364199    0.003300330
     39        6           0.006093667    0.002827363   -0.007161622
     40        8          -0.009347435   -0.000733027    0.012235859
     41        6          -0.001932210    0.003267022   -0.000464711
     42        6          -0.014806765   -0.000036005    0.003424229
     43        7           0.008980642    0.002187018    0.003630060
     44        8           0.018919772   -0.004425959   -0.005717047
     45        1          -0.004223498    0.001028083   -0.008156457
     46        1          -0.002934439    0.001691307    0.000531896
     47        1          -0.000954177    0.003459732    0.000346801
     48        1           0.000493621    0.000650099    0.004249398
     49        1          -0.001811713   -0.002186975   -0.005680979
     50        1          -0.007234316   -0.001676111    0.000770559
     51        7          -0.007831811   -0.000943024    0.001493924
     52        6          -0.000529230   -0.001511841    0.010777210
     53        6          -0.024154319   -0.022161492   -0.033756588
     54        8           0.036919321    0.020651431   -0.002697404
     55        6          -0.006743902   -0.002196498   -0.004089579
     56        6          -0.001411944   -0.004792781   -0.003681815
     57        6           0.005059850   -0.000496057   -0.000229715
     58        7          -0.002690442    0.001673782   -0.001823441
     59        6           0.001796948   -0.017239805    0.003658026
     60        7          -0.000937807    0.001637572    0.002024849
     61        7          -0.003621339   -0.000198996   -0.002963877
     62        8          -0.005791367   -0.010571411    0.020838533
     63        1           0.005093105    0.005477722   -0.001941384
     64        1          -0.001748141   -0.001956151   -0.002773109
     65        1           0.000888177   -0.002150472   -0.000675307
     66        1           0.002403005   -0.001411748   -0.001540059
     67        1           0.000366934    0.000817818   -0.000742536
     68        1          -0.006023824    0.001459055   -0.002374730
     69        1           0.001460533   -0.001820041    0.000195445
     70        1           0.002272190    0.000354220    0.000442880
     71        1           0.003025593    0.000475463    0.001522401
     72        1           0.003951435    0.007052749   -0.002370177
     73        1          -0.001022470   -0.000263911   -0.003756131
     74        1           0.000404364    0.009196235    0.004053929
     75        1           0.000928290   -0.001414022    0.000892402
 -------------------------------------------------------------------
 Cartesian Forces:  Max     0.036919321 RMS     0.008326884
 FormGI is forming the generalized inverse of G from B-inverse, IUseBI=4.

 GradGradGradGradGradGradGradGradGradGradGradGradGradGradGradGradGradGrad
 Berny optimization.
 Internal  Forces:  Max     0.062478511 RMS     0.012612797
 Search for a local minimum.
 Step number   1 out of a maximum of  399
 All quantities printed in internal units (Hartrees-Bohrs-Radians)
 Mixed Optimization -- RFO/linear search
 Second derivative matrix not updated -- analytic derivatives used.
 ITU=  0
     Eigenvalues ---   -0.00757  -0.00405  -0.00124  -0.00069   0.00001
     Eigenvalues ---    0.00074   0.00175   0.00183   0.00208   0.00261
     Eigenvalues ---    0.00471   0.00485   0.00603   0.00658   0.00840
     Eigenvalues ---    0.00911   0.00972   0.01055   0.01095   0.01164
     Eigenvalues ---    0.01320   0.01413   0.01574   0.01642   0.01687
     Eigenvalues ---    0.01767   0.01826   0.01844   0.01930   0.02114
     Eigenvalues ---    0.02304   0.02437   0.02491   0.02580   0.02609
     Eigenvalues ---    0.02761   0.02775   0.02850   0.02888   0.03222
     Eigenvalues ---    0.03529   0.03636   0.03774   0.03867   0.03979
     Eigenvalues ---    0.04022   0.04084   0.04124   0.04145   0.04244
     Eigenvalues ---    0.04274   0.04312   0.04354   0.04468   0.04658
     Eigenvalues ---    0.04681   0.04709   0.04818   0.05027   0.05114
     Eigenvalues ---    0.05228   0.05499   0.05585   0.06026   0.06050
     Eigenvalues ---    0.06144   0.06357   0.06540   0.06644   0.06891
     Eigenvalues ---    0.07124   0.07627   0.07875   0.08131   0.08292
     Eigenvalues ---    0.08375   0.08457   0.08727   0.09150   0.09671
     Eigenvalues ---    0.11045   0.11317   0.11371   0.11391   0.11509
     Eigenvalues ---    0.12024   0.12041   0.12322   0.12389   0.12411
     Eigenvalues ---    0.12675   0.12702   0.12809   0.12871   0.13178
     Eigenvalues ---    0.13301   0.13564   0.13609   0.13913   0.14433
     Eigenvalues ---    0.14695   0.14778   0.15426   0.15855   0.16640
     Eigenvalues ---    0.17235   0.17858   0.18679   0.18875   0.19053
     Eigenvalues ---    0.19171   0.19467   0.19724   0.19864   0.20102
     Eigenvalues ---    0.20445   0.20705   0.20711   0.21306   0.21555
     Eigenvalues ---    0.22339   0.22501   0.22713   0.23104   0.23497
     Eigenvalues ---    0.23769   0.24098   0.24348   0.24786   0.25096
     Eigenvalues ---    0.25703   0.26582   0.26936   0.27724   0.27917
     Eigenvalues ---    0.27957   0.28701   0.28846   0.29275   0.30501
     Eigenvalues ---    0.30889   0.31279   0.31403   0.32169   0.32580
     Eigenvalues ---    0.32748   0.33273   0.33424   0.33527   0.33780
     Eigenvalues ---    0.33911   0.34031   0.34298   0.34339   0.34593
     Eigenvalues ---    0.34678   0.34745   0.34851   0.34961   0.35169
     Eigenvalues ---    0.35271   0.35480   0.35753   0.36177   0.36386
     Eigenvalues ---    0.36442   0.36486   0.36554   0.36706   0.36966
     Eigenvalues ---    0.37192   0.37867   0.38602   0.39758   0.40385
     Eigenvalues ---    0.40924   0.42174   0.42769   0.43612   0.43696
     Eigenvalues ---    0.44084   0.44123   0.44435   0.45174   0.45711
     Eigenvalues ---    0.46188   0.46804   0.47012   0.47550   0.48107
     Eigenvalues ---    0.48464   0.48610   0.48727   0.49149   0.49375
     Eigenvalues ---    0.49636   0.49874   0.50426   0.50477   0.52593
     Eigenvalues ---    0.52898   0.54887   0.55680   0.58190   0.62810
     Eigenvalues ---    0.64991   0.66915   0.67468   0.82207   0.82822
     Eigenvalues ---    0.84938   0.85120   0.86342   0.89728   1.07462
     Eigenvalues ---    1.44793   3.00411   5.60936  10.47082
 RFO step:  Lambda=-4.15420090D-02 EMin=-7.57338159D-03
 Linear search not attempted -- first point.
 Maximum step size (   0.300) exceeded in Quadratic search.
    -- Step size scaled by   0.893
 Iteration  1 RMS(Cart)=  0.23429876 RMS(Int)=  0.01265193
 Iteration  2 RMS(Cart)=  0.12614622 RMS(Int)=  0.00138510
 Iteration  3 RMS(Cart)=  0.00296309 RMS(Int)=  0.00045640
 Iteration  4 RMS(Cart)=  0.00000320 RMS(Int)=  0.00045640
 Iteration  5 RMS(Cart)=  0.00000000 RMS(Int)=  0.00045640
 Variable       Old X    -DE/DX   Delta X   Delta X   Delta X     New X
                                 (Linear)    (Quad)   (Total)
    R1        2.77993   0.02884   0.00000   0.07038   0.07038   2.85031
    R2        1.95041   0.01399   0.00000   0.03180   0.03180   1.98221
    R3        1.93044   0.00272   0.00000   0.00351   0.00351   1.93395
    R4        1.94700   0.00439   0.00000   0.01300   0.01300   1.96000
    R5        2.91156   0.00657   0.00000  -0.00102  -0.00102   2.91054
    R6        2.86557   0.00854   0.00000   0.01405   0.01405   2.87962
    R7        2.07183  -0.00266   0.00000  -0.00675  -0.00675   2.06508
    R8        2.38218  -0.04451   0.00000  -0.06493  -0.06493   2.31725
    R9        2.58650  -0.00696   0.00000  -0.01548  -0.01548   2.57102
   R10        2.84119   0.01817   0.00000   0.03923   0.03923   2.88042
   R11        2.01333   0.00559   0.00000   0.03692   0.03692   2.05024
   R12        2.07647  -0.00303   0.00000  -0.00666  -0.00666   2.06980
   R13        2.56371   0.00498   0.00000   0.00421   0.00421   2.56792
[...]
 347,-0.00008111,-0.00002639,0.00000519,-0.00000494,0.00000083,-0.00000
 980,-0.00001281,-0.00003497,-0.00001639,-0.00011890,0.00001346,0.00016
 223,-0.00000140,-0.00013222,0.00000420,-0.00019663,0.00042528,0.000245
 38,-0.00018342,0.00026594,0.00006801,0.00011269,-0.00017583,-0.0004287
 5,-0.00014787,-0.00011848,0.00036576,0.00022309,0.00009563,-0.00003391
 ,-0.00052128,0.00022947,-0.00055614,-0.00000896,0.00070051,0.00289068,
 0.00252812,-0.00470227,-0.00039258,-0.01581635,-0.00039048,-0.02150053
 ,-0.19479913,-0.05647046,-0.16036277,-0.00054543,0.00359417,0.00223253
 ,-0.00006531,0.00012956,0.00034970,0.00043615,0.00021209,-0.00136313,-
 0.00000157,-0.00010364,0.00004548,0.00002345,-0.00001641,0.00002448,-0
 .00001793,-0.00000023,-0.00004581,-0.00007521,-0.00028560,0.00003180,0
 .00043816,0.00005084,0.00027563,0.00004659,0.00015562,-0.00051926,0.00
 011135,-0.00151954,-0.00055114,0.00024442,0.00004589,-0.00085561,-0.00
 344019,0.00087609,-0.00411454,0.21380584,0.05818251,0.18585551,-0.0000
 4841,0.00011559,-0.00018545,0.00004152,-0.00004625,0.00004641,-0.00059
 425,0.00005795,0.00053391,0.00028884,-0.00009471,-0.00030725,0.0000766
 8,0.00007143,-0.00002889,0.00005881,-0.00006047,0.00022607,-0.00007630
 ,0.00003844,-0.00015831,-0.00005651,0.00003257,-0.00014569,0.00006132,
 -0.00006578,0.00003102,0.00000110,0.00002361,-0.00001536,0.00001615,-0
 .00000143,0.00001424,0.00000934,0.00001196,0.00000841,0.00000895,-0.00
 001834,0.00000742,0.00002215,-0.00000235,0.00001834,0.00000349,-0.0000
 4955,0.00012516,0.00001696,-0.00008754,0.00018772,0.00013489,0.0001038
 7,-0.00085011,0.00013818,-0.00023884,0.00070625,-0.01119782,-0.0010927
 4,0.00354043,0.00482963,-0.00111858,-0.00270975,0.00027061,-0.00008099
 ,-0.00023139,-0.00018943,-0.00002983,0.00017256,0.00000166,-0.00004231
 ,-0.00008008,0.00008269,-0.00017034,-0.00017280,-0.00004204,0.00002024
 ,0.00003746,-0.00003654,0.00002792,0.00000096,-0.00001021,0.00000555,-
 0.00002520,0.00008895,-0.00024064,0.00026508,-0.00017512,0.00010965,-0
 .00022716,0.00044149,0.00033643,0.00029338,0.00015312,-0.00006550,-0.0
 0000710,-0.00001161,0.00006806,0.00002575,0.00003294,0.00005723,-0.000
 00079,0.00000851,0.00000493,-0.00000597,0.00000432,0.00001625,-0.00003
 336,-0.00000144,0.00001234,-0.00000630,0.00364817,0.00095367,0.0014085
 4,-0.00130409,-0.00009234,0.00048464,0.00015643,-0.00053586,0.00026200
 ,0.00025909,0.00058640,-0.00050286,0.00005255,0.00015080,-0.00015852,-
 0.00043686,-0.00033094,-0.00037403,0.00023384,0.00021376,0.00024861,0.
 00027858,0.00033816,0.00044486,-0.00018317,-0.00010721,-0.00077767,0.0
 0016880,0.00008841,-0.00002964,-0.00008737,0.00000646,-0.00000474,0.00
 009144,0.00004149,0.00010148,0.00001071,-0.00002040,-0.00004620,-0.000
 04491,-0.00001999,-0.00002150,0.00004197,0.00057136,0.00019794,0.00008
 560,-0.00047164,-0.00007177,0.00094367,-0.00078860,-0.00069996,-0.0009
 3819,0.00004506,0.00065756,-0.00007878,0.00001607,-0.00004458,0.000286
 82,0.00024581,0.00034079,0.00284044,-0.00115839,-0.00111418,-0.0012694
 5,0.00024185,-0.00470126,-0.00140698,-0.02689326,-0.00314568,-0.001871
 97,0.00029764,0.00188788,-0.01955690,0.04548307,-0.01470536,-0.0002322
 9,0.00069505,0.00032291,-0.00019605,-0.00064929,-0.00046269,0.00001011
 ,0.00004754,-0.00000951,-0.00000704,0.00006481,0.00001384,-0.00001112,
 -0.00000495,0.00004402,0.00008246,0.00002400,0.00001554,-0.00005271,0.
 00000360,0.00000254,-0.00048252,-0.00029918,-0.00048142,-0.00010063,-0
 .00006567,-0.00012746,-0.00090418,0.00090114,-0.00046887,0.00118836,0.
 00030401,-0.00276570,-0.00060415,0.00009206,0.00059482,0.02783983,0.00
 025876,-0.00019855,-0.00017321,0.00000929,0.00021868,0.00010063,0.0003
 0628,-0.00001819,-0.00023387,-0.00015076,-0.00016868,0.00019273,-0.000
 09259,-0.00008957,0.00002796,0.00010219,0.00016484,-0.00001248,-0.0000
 0923,-0.00006590,0.00000393,-0.00005881,-0.00014263,-0.00001504,-0.000
 55358,0.00016767,0.00037993,-0.00000887,-0.00005385,0.00000306,0.00001
 680,0.00006358,0.00003380,0.00002450,0.00001197,-0.00003125,-0.0000104
 6,0.00001536,0.00000256,0.00000876,0.00004644,-0.00002067,0.00000431,0
 .00000031,0.00003320,-0.00002019,0.00004273,-0.00002119,-0.00025500,-0
 .00045825,0.00039713,-0.00031984,0.00124178,-0.00020470,0.01072461,0.0
 0342239,-0.00406492,-0.00748111,-0.00277084,0.00441932,-0.00021812,-0.
 00028110,0.00008692,-0.00006115,0.00005095,-0.00028436,0.00001381,-0.0
 0002284,0.00016945,-0.00012746,0.00008164,0.00019153,-0.00000366,-0.00
 000227,-0.00002461,0.00002074,-0.00004879,-0.00000192,-0.00001259,-0.0
 0003179,0.00006008,-0.00035831,0.00060514,0.00031407,0.00010386,-0.000
 16322,0.00018903,0.00014258,0.00031341,-0.00061114,0.00005531,-0.00031
 576,-0.00018542,0.00002742,-0.00003719,-0.00003333,0.00003434,0.000026
 05,-0.00001599,-0.00000304,0.00000587,0.00002272,0.00001557,-0.0000043
 2,0.00003807,0.00001094,-0.00000005,0.00001587,-0.00554363,-0.00215130
 ,-0.00165774,0.00142518,-0.00010605,-0.00066203,-0.00147981,0.00139979
 ,0.00033971,0.00035344,-0.00071234,0.00001610,-0.00007806,-0.00023248,
 0.00014927,-0.00011877,0.00035402,0.00047158,0.00002025,-0.00019423,-0
 .00015091,0.00029201,-0.00057297,-0.00056634,-0.00009110,0.00061811,0.
 00086927,-0.00013849,-0.00009596,0.00003647,0.00012355,-0.00001039,0.0
 0002445,-0.00011757,-0.00002962,-0.00014373,-0.00005184,0.00004749,-0.
 00000733,0.00000885,0.00005537,0.00001369,0.00086393,-0.00108618,-0.00
 016481,-0.00005954,0.00031912,0.00002056,-0.00183155,0.00031680,0.0012
 7539,0.00139984,0.00016508,-0.00118451,0.00005628,-0.00010836,0.000134
 83,-0.00011710,0.00025785,0.00050398,0.00017612,-0.00020060,-0.0011504
 5,0.00159886,0.00556431,0.00172231,-0.00746479,-0.00568345,-0.01167935
 ,0.00223814,-0.00229252,0.00481832,0.02948760,-0.40637923,-0.09581849,
 0.00079578,-0.00066222,-0.00120136,-0.00057497,0.00050391,0.00009817,0
 .00001433,-0.00000061,0.00000087,-0.00003506,-0.00010787,-0.00002329,0
 .00005801,0.00001926,-0.00006683,0.00028434,0.00008267,-0.00004841,0.0
 0003853,0.00000460,-0.00001362,0.00012715,0.00014500,0.00012121,0.0000
 6374,0.00000414,0.00003518,0.00015258,-0.00055702,0.00117885,0.0008966
 7,0.00244261,0.00167075,-0.00056864,-0.00040128,0.00005243,-0.02349617
 ,0.41664737,0.00006576,-0.00009207,-0.00009899,0.00005538,0.00012160,0
 .00007874,0.00036286,0.00002351,-0.00030971,-0.00025608,0.00002429,0.0
 0008906,-0.00003997,-0.00006146,0.00003531,0.00008838,0.00015411,-0.00
 004262,-0.00002278,-0.00004565,0.00002111,-0.00007325,-0.00012741,0.00
 000426,-0.00019949,0.00007354,0.00013416,-0.00000822,-0.00002502,-0.00
 000289,0.00001983,0.00005142,0.00000805,0.00002873,0.00001649,-0.00002
 050,-0.00000249,0.00000917,-0.00001107,0.00002134,0.00004176,-0.000032
 34,0.00000919,0.00000766,0.00002136,0.00002323,0.00000923,0.00004481,-
 0.00035366,-0.00031212,-0.00003782,0.00037501,0.00079112,0.00000256,0.
 00210027,-0.00060475,0.00020079,-0.00027125,0.00016051,-0.00252256,0.0
 0116670,-0.00124814,-0.00029973,-0.00043719,0.00045344,-0.00025218,0.0
 0010005,-0.00011765,0.00029673,0.00004109,-0.00005751,0.00007002,-0.00
 006982,0.00004778,0.00001885,-0.00003020,0.00001727,-0.00001369,-0.000
 02448,-0.00002206,0.00006881,0.00018392,0.00042000,-0.00005700,-0.0001
 4406,-0.00008537,0.00002800,-0.00056146,0.00031440,-0.00116996,-0.0001
 5987,0.00016455,0.00011319,0.00000475,-0.00000418,-0.00002829,-0.00005
 699,0.00005574,-0.00005957,-0.00000483,0.00000876,0.00004719,0.0000161
 6,-0.00001060,0.00003266,0.00000184,0.00000627,0.00002815,-0.00027244,
 -0.00035385,-0.00030415,0.00011985,-0.00005235,-0.00004803,-0.00016676
 ,0.00015684,0.00019332,0.00006273,-0.00006921,-0.00012104,0.00003069,-
 0.00003217,-0.00000226,-0.00020144,0.00003033,0.00014058,0.00008160,0.
 00001435,-0.00003167,0.00025532,-0.00007250,-0.00020034,-0.00013516,0.
 00008865,0.00015084,0.00002952,-0.00000180,0.00002732,0.00000561,0.000
 00291,-0.00000222,-0.00000873,-0.00000330,-0.00002072,-0.00001172,-0.0
 0001323,0.00000486,0.00000222,0.00000568,0.00001452,0.00011310,-0.0002
 2938,-0.00011822,-0.00002029,0.00001650,-0.00004599,-0.00145572,0.0013
 2020,0.00166008,0.00214771,0.00074715,-0.00119873,0.00001576,0.0000114
 9,-0.00003272,-0.00014614,-0.00038016,-0.00047739,-0.00106175,-0.00022
 799,0.00175399,-0.00393967,-0.00019429,-0.00345846,0.00638675,-0.02930
 560,-0.00530202,0.00202693,0.00033866,-0.00053615,-0.02223004,-0.10081
 475,-0.09383107,0.00024464,-0.00102446,-0.00108198,-0.00007618,0.00003
 093,0.00022401,0.00001993,0.00000997,0.00000460,-0.00000454,-0.0000266
 2,-0.00001672,0.00001169,0.00000085,0.00000656,-0.00018344,0.00000161,
 0.00006582,-0.00001528,-0.00000233,0.00001328,0.00001481,0.00000048,0.
 00001275,0.00008515,0.00009505,0.00002718,0.00034293,-0.00040400,-0.00
 047892,-0.00281202,0.00086471,-0.00158789,-0.00000265,0.00021935,0.000
 08526,0.01719093,0.10705448,0.09338916,0.00043695,-0.00012950,-0.00049
 241,0.00005050,0.00019770,0.00015214,-0.00038767,0.00009590,0.00034936
 ,0.00021826,-0.00026832,-0.00012632,-0.00000451,-0.00000829,-0.0000257
 5,0.00017193,0.00004732,0.00030286,-0.00011736,0.00000340,-0.00020072,
 -0.00011312,-0.00006454,-0.00021840,-0.00092594,0.00017847,0.00066310,
 -0.00001159,-0.00004388,-0.00002276,0.00004821,0.00005963,0.00006281,0
 .00002228,0.00001732,-0.00002366,0.00000830,-0.00001553,0.00001456,0.0
 0003144,0.00001634,0.00001113,0.00001296,-0.00008310,0.00020820,-0.000
 04334,-0.00003873,0.00010087,0.00013382,-0.00036011,-0.00041305,0.0001
 4865,0.00029872,0.00002010,0.00025864,0.00059229,-0.00013642,-0.000463
 22,-0.00002568,0.00034228,-0.00006016,-0.00003844,0.00003035,-0.000029
 86,-0.00001416,0.00010865,-0.00002976,-0.00000631,-0.00004625,0.000049
 54,-0.00014319,-0.00011565,-0.00003605,0.00000712,0.00001821,-0.000029
 85,-0.00000183,0.00002659,-0.00001007,-0.00001466,0.00000194,-0.000314
 11,0.00065847,0.00045604,-0.00001523,-0.00003870,-0.00000967,0.0002261
 3,0.00012919,0.00005121,0.00002783,-0.00007153,-0.00003992,-0.00000096
 ,0.00003830,0.00000929,0.00006618,0.00002971,-0.00000184,0.00000497,0.
 00000840,-0.00000237,0.00001151,0.00001204,-0.00002734,0.00000386,0.00
 001238,0.00000077,-0.00016560,-0.00032725,-0.00005712,0.00006566,0.000
 12845,-0.00009904,-0.00095205,0.00050790,0.00051623,0.00051311,-0.0000
 5335,-0.00034091,-0.00005128,-0.00004131,-0.00001291,-0.00016026,-0.00
 003653,-0.00012138,0.00009454,0.00001158,0.00011292,0.00016576,-0.0000
 9426,0.00010511,0.00000251,0.00004097,-0.00006429,-0.00000631,-0.00003
 527,0.00001896,0.00001755,-0.00000940,0.00003239,-0.00001484,0.0000210
 1,-0.00001066,-0.00001343,0.00002138,-0.00004198,-0.00003338,0.0000181
 9,-0.00002310,0.00085042,-0.00037764,0.00015519,-0.00041261,-0.0003412
 3,-0.00019723,-0.00599372,0.00035673,0.00346023,0.00251594,0.00221157,
 -0.00132048,0.00007637,-0.00012130,-0.00006522,-0.00009242,-0.00004063
 ,-0.00016771,-0.00122586,0.00007425,0.00045402,-0.00127805,0.00184795,
 0.00211869,-0.01157053,0.01512247,-0.01606054,0.00101512,-0.00276056,-
 0.00283369,-0.03465429,0.05501682,-0.07446887,0.00112328,-0.00069912,-
 0.00221403,-0.00028090,0.00020168,-0.00045104,0.00006499,0.00000965,0.
 00005279,-0.00006754,-0.00011985,-0.00005924,0.00005993,0.00002978,0.0
 0008184,-0.00002721,0.00001683,0.00008281,-0.00000685,-0.00001554,-0.0
 0001737,0.00022933,0.00017268,0.00022552,0.00014748,0.00005733,0.00024
 506,0.00187237,-0.00171890,-0.00200312,-0.00072550,-0.00060262,0.00058
 652,0.00191150,0.00043539,-0.00221569,-0.00280218,-0.00084342,0.001607
 69,0.05046975,0.00056054,-0.00023261,-0.00040719,0.00005683,0.00024484
 ,0.00013780,0.00003747,0.00014126,-0.00010030,-0.00000362,-0.00017194,
 0.00006157,-0.00006573,-0.00006032,0.00000705,0.00013610,0.00013235,0.
 00016728,-0.00004938,-0.00004899,-0.00011334,-0.00007858,-0.00012634,-
 0.00013491,-0.00117333,0.00026278,0.00068553,-0.00001306,-0.00006073,-
 0.00001849,0.00004491,0.00009281,0.00005114,0.00003257,0.00001596,-0.0
 0003393,-0.00001149,0.00000485,0.00001656,0.00001569,0.00004447,-0.000
 00254,-0.00000051,-0.00004635,0.00013436,-0.00006398,0.00001796,-0.000
 05633,-0.00010089,-0.00056441,0.00007287,0.00025201,0.00024858,-0.0000
 9278,0.00045581,-0.00031466,0.00000455,0.00036022,-0.00041145,0.000016
 59,0.00035899,-0.00032548,-0.00013963,-0.00013122,0.00013269,-0.000097
 90,0.00001505,-0.00004399,0.00008918,0.00004182,-0.00009703,0.00000692
 ,-0.00004082,0.00001321,0.00001320,-0.00003790,0.00000374,-0.00000058,
 -0.00001731,-0.00002473,0.00004951,-0.00003417,0.00099211,0.00003756,-
 0.00003847,-0.00006398,-0.00000880,-0.00017153,0.00008729,0.00002178,-
 0.00008668,0.00006085,0.00005474,0.00000908,0.00000838,-0.00000948,-0.
 00000501,0.00006392,-0.00004371,0.00000286,0.00000783,0.00001617,0.000
 01807,0.00000491,0.00001622,0.00000430,0.00001139,0.00001296,-0.000140
 88,-0.00002129,-0.00003037,0.00017320,0.00012332,-0.00013803,-0.000439
 06,0.00026556,0.00030386,0.00019769,-0.00017694,0.00000796,-0.00008287
 ,-0.00003699,0.00001845,0.00042053,0.00006086,-0.00018676,-0.00019613,
 -0.00010350,0.00000515,-0.00052360,0.00000593,0.00021959,0.00013921,-0
 .00010344,-0.00008112,-0.00002011,-0.00005045,0.00002649,0.00002357,-0
 .00001022,0.00003366,-0.00002909,0.00001455,-0.00000280,0.00001851,0.0
 0002896,-0.00000249,-0.00000146,0.00001034,-0.00002656,0.00086348,-0.0
 0038641,0.00016300,0.00009506,-0.00035334,-0.00030714,-0.00771844,0.00
 416249,0.00622978,0.00757781,-0.00052033,-0.00226847,0.00009306,-0.000
 02823,-0.00018282,0.00012870,0.00003915,-0.00036788,0.00037308,-0.0000
 5923,0.00084193,0.00004020,-0.00459077,-0.00136867,0.00008939,0.020995
 14,-0.00463695,-0.00410710,-0.00073121,-0.00481685,0.06672006,-0.25102
 857,0.16972101,0.00206352,-0.00256616,-0.00415575,0.00024482,0.0000866
 4,-0.00023007,0.00011448,0.00000713,0.00012175,-0.00008460,-0.00017950
 ,-0.00011288,0.00003278,0.00001012,0.00015201,-0.00016137,-0.00006052,
 0.00009201,-0.00000574,-0.00002262,0.00003142,-0.00012041,-0.00011648,
 -0.00019738,0.00004208,0.00001481,0.00011165,-0.00250537,-0.00043731,-
 0.00426117,-0.00005534,-0.00061395,-0.00041363,-0.00035154,0.00091849,
 -0.00017605,0.00591383,-0.00896785,0.02203917,-0.06910058,0.24442268,-
 0.00037756,0.00011984,0.00020117,0.00000071,-0.00009455,-0.00002595,0.
 00017130,-0.00007265,-0.00007081,-0.00013549,0.00017369,-0.00003450,0.
 00005055,0.00000749,0.00001095,-0.00000411,0.00003288,-0.00012522,-0.0
 0001439,0.00001389,0.00007656,-0.00002510,-0.00001427,0.00007564,0.000
 68929,-0.00013788,-0.00041509,-0.00000147,0.00002782,0.00000319,0.0000
 0126,-0.00003806,-0.00003749,-0.00000688,0.00000212,0.00001350,0.00001
 468,-0.00000136,-0.00002473,0.00001510,-0.00001143,-0.00002533,0.00001
 549,0.00003487,-0.00004829,0.00006923,-0.00001571,0.00011024,-0.000154
 64,0.00017217,-0.00013175,0.00004954,-0.00012749,0.00021983,-0.0018325
 6,-0.00068538,0.00098990,0.00228869,-0.00113302,-0.00140972,0.00031250
 ,-0.00012938,-0.00019197,-0.00007867,0.00005633,0.00008252,0.00001721,
 -0.00001249,-0.00000436,0.00019146,-0.00012114,-0.00011728,-0.00001422
 ,0.00001137,0.00001928,-0.00005474,0.00007628,-0.00000641,-0.00000649,
 0.00000684,0.00000319,0.00038858,-0.00042549,-0.00008970,-0.00006003,0
 .00004464,-0.00005243,-0.00011734,-0.00006875,0.00016043,-0.00007465,0
 .00013741,0.00007350,-0.00001889,0.00001442,0.00000405,-0.00008956,-0.
 00001558,-0.00001777,-0.00000665,0.00000391,0.00000741,-0.00000356,-0.
 00001107,-0.00001757,-0.00001105,0.00000447,0.00001483,0.00086047,0.00
 029989,0.00014301,-0.00027451,-0.00003514,0.00018208,0.00029193,-0.000
 20889,-0.00005192,-0.00007857,0.00016480,-0.00016258,0.00006276,0.0000
 3560,-0.00004116,-0.00023917,-0.00001630,0.00010473,0.00009074,0.00003
 580,-0.00000361,0.00019754,0.00000163,-0.00007825,-0.00010599,0.000003
 69,-0.00006233,0.00004991,0.00003376,-0.00000071,-0.00002846,0.0000072
 4,-0.00002135,0.00002814,-0.00000203,0.00001811,-0.00001715,-0.0000029
 6,0.00000105,-0.00000446,-0.00000595,0.00001373,-0.00055005,0.00014695
 ,-0.00023630,-0.00006875,0.00035248,0.00008129,0.00411741,0.00048691,-
 0.00112311,-0.00243250,-0.00134592,-0.00177163,-0.00010585,0.00003928,
 0.00011146,-0.00000710,0.00012343,0.00036505,-0.00033263,-0.00063747,-
 0.00080976,0.00230259,0.00258814,0.00097232,-0.00572562,0.01929538,-0.
 02067384,-0.00263169,-0.00371314,0.00041484,-0.09045713,0.16955827,-0.
 23718915,-0.00156372,-0.00045418,0.00092392,-0.00014737,-0.00003874,0.
 00020909,-0.00003384,-0.00001039,-0.00008055,0.00002783,0.00007158,0.0
 0007160,-0.00000691,-0.00001121,-0.00011369,0.00018291,0.00004344,-0.0
 0010241,0.00003761,0.00001435,-0.00003481,0.00006885,0.00010507,0.0000
 9206,0.00013417,0.00007373,0.00008581,-0.00179718,-0.00254498,0.001708
 55,0.00023999,0.00030240,-0.00033846,-0.00067856,0.00080401,0.00035088
 ,0.00544510,-0.00681657,0.01473771,0.09196174,-0.17656870,0.24308853\\
 -0.00000279,-0.00000442,0.00001178,0.00000091,-0.00000614,-0.00001093,
 -0.00000627,0.00000387,0.00000610,0.00000145,0.00000339,0.00000291,0.0
 0000039,-0.00000102,0.00000117,-0.00000377,-0.00000102,0.00000075,-0.0
 0000254,0.00000008,-0.00000206,-0.00000153,-0.00000142,0.00000132,0.00
 000502,0.00000085,0.00000051,-0.00000151,-0.00000227,-0.00000125,0.000
 00457,-0.00000389,-0.00000674,0.00000044,0.00000020,-0.00000188,-0.000
 00037,-0.00000044,-0.00000022,0.00000123,-0.00000053,0.00000141,0.0000
 0167,-0.00000175,0.00000041,-0.00000123,0.00000069,-0.00000169,0.00000
 331,0.00000098,-0.00000129,-0.00001124,0.00000401,-0.00000336,-0.00000
 426,0.00000586,0.00000235,-0.00000020,0.00000851,0.00000111,0.00000180
 ,-0.00000383,-0.00000194,0.00000062,-0.00000154,-0.00000040,-0.0000025
 0,-0.00000107,0.00000078,0.00000005,-0.00000078,-0.00000002,-0.0000010
 7,-0.00000020,-0.00000011,0.00000037,-0.00000062,0.00000040,0.00000033
 ,-0.00000027,0.00000112,-0.00000022,-0.00000166,0.00000434,0.00000543,
 0.00000371,0.00000146,0.00000035,-0.00000167,0.00000032,0.00000052,-0.
 00000023,-0.00000010,0.00000087,0.00000013,0.00000036,-0.00000007,-0.0
 0000074,0.00000043,0.00000025,-0.00000023,0.00000052,0.00000020,-0.000
 00060,0.00000031,-0.00000028,-0.00000029,0.00000028,0.00001261,-0.0000
 1150,-0.00001076,0.00000517,0.00000117,0.00000337,-0.00000437,0.000008
 20,-0.00000423,-0.00000405,0.00000302,-0.00000642,-0.00000153,0.000001
 33,0.00000002,-0.00000067,-0.00000082,0.00000007,0.00000200,0.00000043
 ,0.00000065,-0.00000060,0.00000352,-0.00000068,-0.00000507,-0.00000327
 ,-0.00000139,0.00000242,0.00000031,0.00000070,0.00000014,0.00000127,0.
 00000064,0.00000028,0.00000103,0.00000040,0.00000005,0.00000096,-0.000
 00113,-0.00000034,0.00000035,-0.00000056,0.00000090,-0.00000259,0.0000
 0788,0.00000487,-0.00000760,-0.00000293,-0.00000753,-0.00000175,0.0000
 2025,0.00000482,-0.00000020,0.00000097,-0.00000483,0.00000234,-0.00000
 144,-0.00000032,-0.00000113,-0.00000100,0.00000268,-0.00000054,0.00000
 371,0.00000034,0.00000635,-0.00000412,-0.00000106,-0.00000479,-0.00000
 146,0.00000363,0.00000032,-0.00000086,0.00000049,-0.00000513,0.0000025
 5,0.00000233,0.00001109,-0.00000781,-0.00000013,0.00000282,-0.00000114
 ,-0.00000117,-0.00000050,-0.00000208,-0.00000045,0.00000062,-0.0000005
 4,-0.00000059,0.00000085,0.00000041,0.00000059,-0.00000013,-0.00000051
 ,0.00000069,0.00000002,-0.00000076,0.00000008,0.00000008,-0.00000017,0
 .00000069,-0.00000034,-0.00000010,-0.00000204,0.00000031,0.00000017,0.
 00000037,-0.00000142,-0.00000087,-0.00000058,0.00000040,0.00000196,-0.
 00000092,-0.00000021,0.00000100,0.00000116,-0.00000048,-0.00000192\\\@
 The archive entry for this job was punched.


     SCHOPENHAUER'S LAW OF ENTROPY
 IF YOU PUT A SPOONFUL OF WINE IN A BARREL FULL
 OF SEWAGE, YOU GET SEWAGE.
 IF YOU PUT A SPOONFUL OF SEWAGE IN A BARREL FULL
 OF WINE, YOU GET SEWAGE.
 Job cpu time:       0 days  7 hours 57 minutes 41.5 seconds.
 Elapsed time:       0 days  0 hours 59 minutes 45.3 seconds.
 File lengths (MBytes):  RWF=   3960 Int=      0 D2E=      0 Chk=     48 Scr=     16
 Normal termination of Gaussian 16 at Tue May 31 22:00:01 2022.
