 Entering Gaussian System, Link 0=/opt/software/Gaussian/g16-AVX2-C.01/g16/g16
 Input=opt_freq-conf-121.com
 Output=opt_freq-conf-121.log
 Initial command:
 /opt/software/Gaussian/g16-AVX2-C.01/g16/l1.exe "/mnt/gs18/scratch/users/kengmith/Gau-48126.inp" -scrdir="/mnt/gs18/scratch/users/kengmith/"
 Entering Link 1 = /opt/software/Gaussian/g16-AVX2-C.01/g16/l1.exe PID=     48136.
  
 Copyright (c) 1988-2019, Gaussian, Inc.  All Rights Reserved.
  
 This is part of the Gaussian(R) 16 program.  It is based on
 the Gaussian(R) 09 system (copyright 2009, Gaussian, Inc.),
 the Gaussian(R) 03 system (copyright 2003, Gaussian, Inc.),
 the Gaussian(R) 98 system (copyright 1998, Gaussian, Inc.),
 the Gaussian(R) 94 system (copyright 1995, Gaussian, Inc.),
 the Gaussian 92(TM) system (copyright 1992, Gaussian, Inc.),
 the Gaussian 90(TM) system (copyright 1990, Gaussian, Inc.),
 the Gaussian 88(TM) system (copyright 1988, Gaussian, Inc.),
 the Gaussian 86(TM) system (copyright 1986, Carnegie Mellon
 University), and the Gaussian 82(TM) system (copyright 1983,
 Carnegie Mellon University). Gaussian is a federally registered
 trademark of Gaussian, Inc.
  
 This software contains proprietary and confidential information,
 including trade secrets, belonging to Gaussian, Inc.
  
 This software is provided under written license and may be
 used, copied, transmitted, or stored only in accord with that
 written license.
  
 The following legend is applicable only to US Government
 contracts under FAR:
  
                    RESTRICTED RIGHTS LEGEND
  
 Use, reproduction and disclosure by the US Government is
 subject to restrictions as set forth in subparagraphs (a)
 and (c) of the Commercial Computer Software - Restricted
 Rights clause in FAR 52.227-19.
  
 Gaussian, Inc.
 340 Quinnipiac St., Bldg. 40, Wallingford CT 06492
  
  
 ---------------------------------------------------------------
 Warning -- This program may not be used in any manner that
 competes with the business of Gaussian, Inc. or will provide
 assistance to any competitor of Gaussian, Inc.  The licensee
 of this program is prohibited from giving any competitor of
 Gaussian, Inc. access to this program.  By using this program,
 the user acknowledges that Gaussian, Inc. is engaged in the
 business of creating and licensing software in the field of
 computational chemistry and represents and warrants to the
 licensee that it is not a competitor of Gaussian, Inc. and that
 it will not use this program in any manner prohibited above.
 ---------------------------------------------------------------
  

 Cite this work as:
 Gaussian 16, Revision C.01,
 M. J. Frisch, G. W. Trucks, H. B. Schlegel, G. E. Scuseria, 
 M. A. Robb, J. R. Cheeseman, G. Scalmani, V. Barone, 
 G. A. Petersson, H. Nakatsuji, X. Li, M. Caricato, A. V. Marenich, 
 J. Bloino, B. G. Janesko, R. Gomperts, B. Mennucci, H. P. Hratchian, 
 J. V. Ortiz, A. F. Izmaylov, J. L. Sonnenberg, D. Williams-Young, 
 F. Ding, F. Lipparini, F. Egidi, J. Goings, B. Peng, A. Petrone, 
 T. Henderson, D. Ranasinghe, V. G. Zakrzewski, J. Gao, N. Rega, 
 G. Zheng, W. Liang, M. Hada, M. Ehara, K. Toyota, R. Fukuda, 
 J. Hasegawa, M. Ishida, T. Nakajima, Y. Honda, O. Kitao, H. Nakai, 
 T. Vreven, K. Throssell, J. A. Montgomery, Jr., J. E. Peralta, 
 F. Ogliaro, M. J. Bearpark, J. J. Heyd, E. N. Brothers, K. N. Kudin, 
 V. N. Staroverov, T. A. Keith, R. Kobayashi, J. Normand, 
 K. Raghavachari, A. P. Rendell, J. C. Burant, S. S. Iyengar, 
 J. Tomasi, M. Cossi, J. M. Millam, M. Klene, C. Adamo, R. Cammi, 
 J. W. Ochterski, R. L. Martin, K. Morokuma, O. Farkas, 
 J. B. Foresman, and D. J. Fox, Gaussian, Inc., Wallingford CT, 2019.
 
 ******************************************
 Gaussian 16:  ES64L-G16RevC.01  3-Jul-2019
                31-May-2022 
 ******************************************
 %mem=12gb
 %nproc=8
 Will use up to    8 processors via shared memory.
 %chk=conf-121.chk
 ----------------------------------------------------------------------
 # B3LYP/6-31G* empiricaldispersion=gd3 opt=calcfc freq=noraman nosymm 
 integral(ultrafinegrid)
 ----------------------------------------------------------------------
 1/10=4,18=20,19=15,26=4,38=1/1,3;
 2/9=110,12=2,15=1,17=6,18=5,40=1/2;
 3/5=1,6=6,7=1,11=2,25=1,30=1,71=2,74=-5,75=-5,124=31,140=1/1,2,3;
 4//1;
 5/5=2,38=5/2;
 8/6=4,10=90,11=11/1;
 11/6=1,8=1,9=11,15=111,16=1,31=1/1,2,10;
 10/6=1,13=1,31=1/2;
 6/7=2,8=2,9=2,10=2,28=1/1;
 7/10=1,25=1,30=1/1,2,3,16;
 1/10=4,18=20,19=15,26=4/3(2);
 2/9=110,15=1/2;
 99//99;
 2/9=110,15=1/2;
 3/5=1,6=6,7=1,11=2,25=1,30=1,71=1,74=-5,75=-5,124=31/1,2,3;
 4/5=5,16=3,69=1/1;
 5/5=2,38=5/2;
 7/30=1/1,2,3,16;
 1/18=20,19=15,26=4/3(-5);
 2/9=110,15=1/2;
 6/7=2,8=2,9=2,10=2,19=2,28=1/1;
 99/9=1/99;
 ------------------------------------------------------------
 Candidate Structure: Conf:121 OPT and FREQ calc in gas phase
 ------------------------------------------------------------
 Symbolic Z-matrix:
 Charge =  1 Multiplicity = 1
 N                    -8.55511   1.2432   -8.37763 
 C                    -9.39749   0.39596  -7.51454 
 C                    -8.54589  -0.1435   -6.35398 
 O                    -8.32175   0.57793  -5.38432 
 C                    -10.09163  -0.67568  -8.34345 
 C                    -10.91307  -0.01023  -9.42839 
 N                    -10.67212  -0.42436  -10.69119 
 O                    -11.72756   0.85422  -9.15002 
 H                    -9.13935   1.77703  -9.02093 
 H                    -10.16296   1.02702  -7.05378 
 H                    -9.38756  -1.37517  -8.77365 
 H                    -10.78223  -1.229    -7.70476 
 H                    -11.18991   0.04092  -11.416 
 H                    -9.84377  -0.95954  -10.93959 
 H                    -7.99712   1.89235  -7.82305 
 H                    -7.94459   0.62996  -8.92587 
 N                    -8.06808  -1.41155  -6.47267 
 C                    -7.40272  -2.07796  -5.37006 
 C                    -6.35095  -3.04677  -5.93207 
 O                    -6.52036  -4.2639   -5.91284 
 C                    -8.39953  -2.85422  -4.50094 
 C                    -9.42845  -1.97166  -3.86439 
 C                    -9.11866  -1.24112  -2.71862 
 C                    -10.71077  -1.85542  -4.40483 
 C                    -10.05925  -0.39518  -2.13463 
 C                    -11.65152  -1.00097  -3.83051 
 C                    -11.32735  -0.26652  -2.69553 
 H                    -7.96063  -1.79909  -7.39508 
 H                    -6.93267  -1.30925  -4.75531 
 H                    -8.87295  -3.61436  -5.11838 
 H                    -7.82851  -3.37882  -3.73436 
 H                    -8.11807  -1.32688  -2.29982 
 H                    -10.96826  -2.43096  -5.28902 
 H                    -9.79584   0.16552  -1.24534 
 H                    -12.63921  -0.92146  -4.26891 
 H                    -12.05944   0.39426  -2.24481 
 N                    -5.22476  -2.52537  -6.46368 
 C                    -4.88298  -1.13499  -6.60005 
 C                    -5.52884  -0.48723  -7.8589 
 O                    -6.0803    0.62308  -7.77876 
 C                    -3.37092  -0.93505  -6.6312 
 C                    -2.67572  -1.66832  -7.7663 
 N                    -1.64855  -0.99821  -8.33497 
 O                    -3.01022  -2.79379  -8.12455 
 H                    -4.55998  -3.20353  -6.80682 
 H                    -5.30214  -0.59055  -5.75457 
 H                    -2.95334  -1.30892  -5.69561 
 H                    -3.16986   0.13582  -6.69767 
 H                    -1.1174   -1.45578  -9.05378 
 H                    -1.334    -0.11529  -7.97802 
 N                    -5.35812  -1.20589  -9.00754 
 C                    -6.1073   -0.90553  -10.18989 
 C                    -7.4499   -1.67995  -10.16648 
 O                    -7.6897   -2.24832  -9.08632 
 C                    -5.30738  -1.12358  -11.45975 
 C                    -4.64661  -2.48584  -11.63942 
 C                    -5.57379  -3.6544   -11.97159 
 N                    -6.3847   -4.15546  -10.86343 
 C                    -5.91943  -4.7037   -9.73394 
 N                    -4.63886  -5.12735  -9.68201 
 N                    -6.76815  -4.90554  -8.72213 
 O                    -8.15617  -1.64684  -11.17026 
 H                    -5.11357  -2.15998  -8.87528 
 H                    -6.36452   0.15487  -10.13635 
 H                    -5.94991  -0.90529  -12.31657 
 H                    -4.52332  -0.36043  -11.45267 
 H                    -3.94062  -2.40282  -12.47147 
 H                    -4.05574  -2.73358  -10.76056 
 H                    -6.27717  -3.36956  -12.75465 
 H                    -4.97574  -4.48163  -12.37308 
 H                    -7.38069  -3.98135  -10.89896 
 H                    -4.18078  -5.17711  -8.78449 
 H                    -4.0403   -4.9132   -10.46046 
 H                    -6.39393  -5.06539  -7.79319 
 H                    -7.54513  -4.25526  -8.70671 
 

 GradGradGradGradGradGradGradGradGradGradGradGradGradGradGradGradGradGrad
 Berny optimization.
 Initialization pass.
                           ----------------------------
                           !    Initial Parameters    !
                           ! (Angstroms and Degrees)  !
 --------------------------                            --------------------------
 ! Name  Definition              Value          Derivative Info.                !
 --------------------------------------------------------------------------------
 ! R1    R(1,2)                  1.4739         calculate D2E/DX2 analytically  !
 ! R2    R(1,9)                  1.0199         calculate D2E/DX2 analytically  !
 ! R3    R(1,15)                 1.02           calculate D2E/DX2 analytically  !
 ! R4    R(1,16)                 1.0244         calculate D2E/DX2 analytically  !
 ! R5    R(2,3)                  1.5372         calculate D2E/DX2 analytically  !
 ! R6    R(2,5)                  1.5223         calculate D2E/DX2 analytically  !
 ! R7    R(2,10)                 1.0938         calculate D2E/DX2 analytically  !
 ! R8    R(3,4)                  1.2292         calculate D2E/DX2 analytically  !
 ! R9    R(3,17)                 1.3603         calculate D2E/DX2 analytically  !
 ! R10   R(5,6)                  1.5148         calculate D2E/DX2 analytically  !
 ! R11   R(5,11)                 1.0817         calculate D2E/DX2 analytically  !
 ! R12   R(5,12)                 1.0913         calculate D2E/DX2 analytically  !
 ! R13   R(6,7)                  1.3506         calculate D2E/DX2 analytically  !
 ! R14   R(6,8)                  1.2199         calculate D2E/DX2 analytically  !
 ! R15   R(7,13)                 1.005          calculate D2E/DX2 analytically  !
 ! R16   R(7,14)                 1.017          calculate D2E/DX2 analytically  !
 ! R17   R(17,18)                1.45           calculate D2E/DX2 analytically  !
 ! R18   R(17,28)                1.0063         calculate D2E/DX2 analytically  !
 ! R19   R(18,19)                1.5364         calculate D2E/DX2 analytically  !
 ! R20   R(18,21)                1.5335         calculate D2E/DX2 analytically  !
 ! R21   R(18,29)                1.0908         calculate D2E/DX2 analytically  !
 ! R22   R(19,20)                1.229          calculate D2E/DX2 analytically  !
 ! R23   R(19,37)                1.3501         calculate D2E/DX2 analytically  !
 ! R24   R(21,22)                1.4976         calculate D2E/DX2 analytically  !
 ! R25   R(21,30)                1.0877         calculate D2E/DX2 analytically  !
 ! R26   R(21,31)                1.0904         calculate D2E/DX2 analytically  !
 ! R27   R(22,23)                1.3937         calculate D2E/DX2 analytically  !
 ! R28   R(22,24)                1.3964         calculate D2E/DX2 analytically  !
 ! R29   R(23,25)                1.3933         calculate D2E/DX2 analytically  !
 ! R30   R(23,32)                1.0881         calculate D2E/DX2 analytically  !
 ! R31   R(24,26)                1.3946         calculate D2E/DX2 analytically  !
 ! R32   R(24,33)                1.086          calculate D2E/DX2 analytically  !
 ! R33   R(25,27)                1.3926         calculate D2E/DX2 analytically  !
 ! R34   R(25,34)                1.0838         calculate D2E/DX2 analytically  !
 ! R35   R(26,27)                1.3902         calculate D2E/DX2 analytically  !
 ! R36   R(26,35)                1.0835         calculate D2E/DX2 analytically  !
 ! R37   R(27,36)                1.0843         calculate D2E/DX2 analytically  !
 ! R38   R(37,38)                1.4382         calculate D2E/DX2 analytically  !
 ! R39   R(37,45)                1.0097         calculate D2E/DX2 analytically  !
 ! R40   R(38,39)                1.5561         calculate D2E/DX2 analytically  !
 ! R41   R(38,41)                1.5255         calculate D2E/DX2 analytically  !
 ! R42   R(38,46)                1.0895         calculate D2E/DX2 analytically  !
 ! R43   R(39,40)                1.2423         calculate D2E/DX2 analytically  !
 ! R44   R(39,51)                1.3657         calculate D2E/DX2 analytically  !
 ! R45   R(41,42)                1.5197         calculate D2E/DX2 analytically  !
 ! R46   R(41,47)                1.0906         calculate D2E/DX2 analytically  !
 ! R47   R(41,48)                1.0916         calculate D2E/DX2 analytically  !
 ! R48   R(42,43)                1.3519         calculate D2E/DX2 analytically  !
 ! R49   R(42,44)                1.2276         calculate D2E/DX2 analytically  !
 ! R50   R(43,49)                1.0041         calculate D2E/DX2 analytically  !
 ! R51   R(43,50)                1.0029         calculate D2E/DX2 analytically  !
 ! R52   R(51,52)                1.4316         calculate D2E/DX2 analytically  !
 ! R53   R(51,63)                0.9938         calculate D2E/DX2 analytically  !
 ! R54   R(52,53)                1.5501         calculate D2E/DX2 analytically  !
 ! R55   R(52,55)                1.5166         calculate D2E/DX2 analytically  !
 ! R56   R(52,64)                1.0925         calculate D2E/DX2 analytically  !
 ! R57   R(53,54)                1.2439         calculate D2E/DX2 analytically  !
 ! R58   R(53,62)                1.2278         calculate D2E/DX2 analytically  !
 ! R59   R(55,56)                1.5247         calculate D2E/DX2 analytically  !
 ! R60   R(55,65)                1.093          calculate D2E/DX2 analytically  !
 ! R61   R(55,66)                1.0942         calculate D2E/DX2 analytically  !
 ! R62   R(56,57)                1.5282         calculate D2E/DX2 analytically  !
 ! R63   R(56,67)                1.0944         calculate D2E/DX2 analytically  !
 ! R64   R(56,68)                1.0876         calculate D2E/DX2 analytically  !
 ! R65   R(57,58)                1.4617         calculate D2E/DX2 analytically  !
 ! R66   R(57,69)                1.0904         calculate D2E/DX2 analytically  !
 ! R67   R(57,70)                1.0969         calculate D2E/DX2 analytically  !
 ! R68   R(58,59)                1.3389         calculate D2E/DX2 analytically  !
 ! R69   R(58,71)                1.0117         calculate D2E/DX2 analytically  !
 ! R70   R(59,60)                1.3498         calculate D2E/DX2 analytically  !
 ! R71   R(59,61)                1.336          calculate D2E/DX2 analytically  !
 ! R72   R(60,72)                1.0089         calculate D2E/DX2 analytically  !
 ! R73   R(60,73)                1.005          calculate D2E/DX2 analytically  !
 ! R74   R(61,74)                1.0142         calculate D2E/DX2 analytically  !
 ! R75   R(61,75)                1.0133         calculate D2E/DX2 analytically  !
 ! A1    A(2,1,9)              110.0499         calculate D2E/DX2 analytically  !
 ! A2    A(2,1,15)             111.1077         calculate D2E/DX2 analytically  !
 ! A3    A(2,1,16)             108.0535         calculate D2E/DX2 analytically  !
 ! A4    A(9,1,15)             108.8582         calculate D2E/DX2 analytically  !
 ! A5    A(9,1,16)             108.4925         calculate D2E/DX2 analytically  !
 ! A6    A(15,1,16)            110.2406         calculate D2E/DX2 analytically  !
 ! A7    A(1,2,3)              109.099          calculate D2E/DX2 analytically  !
 ! A8    A(1,2,5)              110.2681         calculate D2E/DX2 analytically  !
 ! A9    A(1,2,10)             108.3609         calculate D2E/DX2 analytically  !
 ! A10   A(3,2,5)              114.6237         calculate D2E/DX2 analytically  !
 ! A11   A(3,2,10)             105.7901         calculate D2E/DX2 analytically  !
 ! A12   A(5,2,10)             108.4455         calculate D2E/DX2 analytically  !
 ! A13   A(2,3,4)              119.3805         calculate D2E/DX2 analytically  !
 ! A14   A(2,3,17)             117.1194         calculate D2E/DX2 analytically  !
 ! A15   A(4,3,17)             123.4973         calculate D2E/DX2 analytically  !
 ! A16   A(2,5,6)              109.1485         calculate D2E/DX2 analytically  !
 ! A17   A(2,5,11)             112.0233         calculate D2E/DX2 analytically  !
 ! A18   A(2,5,12)             109.0747         calculate D2E/DX2 analytically  !
 ! A19   A(6,5,11)             110.621          calculate D2E/DX2 analytically  !
 ! A20   A(6,5,12)             107.3818         calculate D2E/DX2 analytically  !
 ! A21   A(11,5,12)            108.4678         calculate D2E/DX2 analytically  !
 ! A22   A(5,6,7)              115.9898         calculate D2E/DX2 analytically  !
 ! A23   A(5,6,8)              120.6576         calculate D2E/DX2 analytically  !
 ! A24   A(7,6,8)              123.3491         calculate D2E/DX2 analytically  !
 ! A25   A(6,7,13)             116.1329         calculate D2E/DX2 analytically  !
 ! A26   A(6,7,14)             122.3453         calculate D2E/DX2 analytically  !
 ! A27   A(13,7,14)            119.153          calculate D2E/DX2 analytically  !
 ! A28   A(3,17,18)            121.5511         calculate D2E/DX2 analytically  !
 ! A29   A(3,17,28)            118.458          calculate D2E/DX2 analytically  !
 ! A30   A(18,17,28)           118.1017         calculate D2E/DX2 analytically  !
 ! A31   A(17,18,19)           109.0116         calculate D2E/DX2 analytically  !
 ! A32   A(17,18,21)           111.4284         calculate D2E/DX2 analytically  !
 ! A33   A(17,18,29)           107.6024         calculate D2E/DX2 analytically  !
 ! A34   A(19,18,21)           109.4574         calculate D2E/DX2 analytically  !
 ! A35   A(19,18,29)           110.826          calculate D2E/DX2 analytically  !
 ! A36   A(21,18,29)           108.5084         calculate D2E/DX2 analytically  !
 ! A37   A(18,19,20)           121.6258         calculate D2E/DX2 analytically  !
 ! A38   A(18,19,37)           118.1337         calculate D2E/DX2 analytically  !
 ! A39   A(20,19,37)           120.2388         calculate D2E/DX2 analytically  !
 ! A40   A(18,21,22)           112.9039         calculate D2E/DX2 analytically  !
 ! A41   A(18,21,30)           108.3574         calculate D2E/DX2 analytically  !
 ! A42   A(18,21,31)           107.5528         calculate D2E/DX2 analytically  !
 ! A43   A(22,21,30)           110.7374         calculate D2E/DX2 analytically  !
 ! A44   A(22,21,31)           110.1523         calculate D2E/DX2 analytically  !
 ! A45   A(30,21,31)           106.9044         calculate D2E/DX2 analytically  !
 ! A46   A(21,22,23)           120.3722         calculate D2E/DX2 analytically  !
 ! A47   A(21,22,24)           121.0291         calculate D2E/DX2 analytically  !
 ! A48   A(23,22,24)           118.5977         calculate D2E/DX2 analytically  !
 ! A49   A(22,23,25)           120.8474         calculate D2E/DX2 analytically  !
 ! A50   A(22,23,32)           118.6536         calculate D2E/DX2 analytically  !
 ! A51   A(25,23,32)           120.4851         calculate D2E/DX2 analytically  !
 ! A52   A(22,24,26)           120.7354         calculate D2E/DX2 analytically  !
 ! A53   A(22,24,33)           119.2573         calculate D2E/DX2 analytically  !
 ! A54   A(26,24,33)           120.0035         calculate D2E/DX2 analytically  !
 ! A55   A(23,25,27)           120.133          calculate D2E/DX2 analytically  !
 ! A56   A(23,25,34)           119.6002         calculate D2E/DX2 analytically  !
 ! A57   A(27,25,34)           120.2659         calculate D2E/DX2 analytically  !
 ! A58   A(24,26,27)           120.1717         calculate D2E/DX2 analytically  !
 ! A59   A(24,26,35)           119.5531         calculate D2E/DX2 analytically  !
 ! A60   A(27,26,35)           120.2722         calculate D2E/DX2 analytically  !
 ! A61   A(25,27,26)           119.4958         calculate D2E/DX2 analytically  !
 ! A62   A(25,27,36)           120.2451         calculate D2E/DX2 analytically  !
 ! A63   A(26,27,36)           120.2566         calculate D2E/DX2 analytically  !
 ! A64   A(19,37,38)           127.5104         calculate D2E/DX2 analytically  !
 ! A65   A(19,37,45)           115.0626         calculate D2E/DX2 analytically  !
 ! A66   A(38,37,45)           117.4251         calculate D2E/DX2 analytically  !
 ! A67   A(37,38,39)           112.3646         calculate D2E/DX2 analytically  !
 ! A68   A(37,38,41)           111.357          calculate D2E/DX2 analytically  !
 ! A69   A(37,38,46)           108.5471         calculate D2E/DX2 analytically  !
 ! A70   A(39,38,41)           109.8956         calculate D2E/DX2 analytically  !
 ! A71   A(39,38,46)           105.0756         calculate D2E/DX2 analytically  !
 ! A72   A(41,38,46)           109.3708         calculate D2E/DX2 analytically  !
 ! A73   A(38,39,40)           120.2724         calculate D2E/DX2 analytically  !
 ! A74   A(38,39,51)           114.1721         calculate D2E/DX2 analytically  !
 ! A75   A(40,39,51)           125.4557         calculate D2E/DX2 analytically  !
 ! A76   A(38,41,42)           113.918          calculate D2E/DX2 analytically  !
 ! A77   A(38,41,47)           108.4844         calculate D2E/DX2 analytically  !
 ! A78   A(38,41,48)           108.2025         calculate D2E/DX2 analytically  !
 ! A79   A(42,41,47)           107.4692         calculate D2E/DX2 analytically  !
 ! A80   A(42,41,48)           110.0971         calculate D2E/DX2 analytically  !
 ! A81   A(47,41,48)           108.5422         calculate D2E/DX2 analytically  !
 ! A82   A(41,42,43)           114.9994         calculate D2E/DX2 analytically  !
 ! A83   A(41,42,44)           122.3928         calculate D2E/DX2 analytically  !
 ! A84   A(43,42,44)           122.5984         calculate D2E/DX2 analytically  !
 ! A85   A(42,43,49)           118.5018         calculate D2E/DX2 analytically  !
 ! A86   A(42,43,50)           121.6659         calculate D2E/DX2 analytically  !
 ! A87   A(49,43,50)           119.3443         calculate D2E/DX2 analytically  !
 ! A88   A(39,51,52)           121.254          calculate D2E/DX2 analytically  !
 ! A89   A(39,51,63)           115.0903         calculate D2E/DX2 analytically  !
 ! A90   A(52,51,63)           116.1127         calculate D2E/DX2 analytically  !
 ! A91   A(51,52,53)           109.6314         calculate D2E/DX2 analytically  !
 ! A92   A(51,52,55)           112.6659         calculate D2E/DX2 analytically  !
 ! A93   A(51,52,64)           106.642          calculate D2E/DX2 analytically  !
 ! A94   A(53,52,55)           113.432          calculate D2E/DX2 analytically  !
 ! A95   A(53,52,64)           106.2757         calculate D2E/DX2 analytically  !
 ! A96   A(55,52,64)           107.7453         calculate D2E/DX2 analytically  !
 ! A97   A(52,53,54)           114.1021         calculate D2E/DX2 analytically  !
 ! A98   A(52,53,62)           118.1911         calculate D2E/DX2 analytically  !
 ! A99   A(54,53,62)           127.687          calculate D2E/DX2 analytically  !
 ! A100  A(52,55,56)           117.1118         calculate D2E/DX2 analytically  !
 ! A101  A(52,55,65)           108.5186         calculate D2E/DX2 analytically  !
 ! A102  A(52,55,66)           105.7992         calculate D2E/DX2 analytically  !
 ! A103  A(56,55,65)           109.9274         calculate D2E/DX2 analytically  !
 ! A104  A(56,55,66)           108.2632         calculate D2E/DX2 analytically  !
 ! A105  A(65,55,66)           106.6797         calculate D2E/DX2 analytically  !
 ! A106  A(55,56,57)           116.4793         calculate D2E/DX2 analytically  !
 ! A107  A(55,56,67)           107.5421         calculate D2E/DX2 analytically  !
 ! A108  A(55,56,68)           110.1049         calculate D2E/DX2 analytically  !
 ! A109  A(57,56,67)           106.5074         calculate D2E/DX2 analytically  !
 ! A110  A(57,56,68)           109.3333         calculate D2E/DX2 analytically  !
 ! A111  A(67,56,68)           106.33           calculate D2E/DX2 analytically  !
 ! A112  A(56,57,58)           115.7153         calculate D2E/DX2 analytically  !
 ! A113  A(56,57,69)           110.3457         calculate D2E/DX2 analytically  !
 ! A114  A(56,57,70)           108.9922         calculate D2E/DX2 analytically  !
 ! A115  A(58,57,69)           106.0282         calculate D2E/DX2 analytically  !
 ! A116  A(58,57,70)           108.7502         calculate D2E/DX2 analytically  !
 ! A117  A(69,57,70)           106.6095         calculate D2E/DX2 analytically  !
 ! A118  A(57,58,59)           125.9512         calculate D2E/DX2 analytically  !
 ! A119  A(57,58,71)           117.4204         calculate D2E/DX2 analytically  !
 ! A120  A(59,58,71)           116.2434         calculate D2E/DX2 analytically  !
 ! A121  A(58,59,60)           119.3817         calculate D2E/DX2 analytically  !
 ! A122  A(58,59,61)           118.6843         calculate D2E/DX2 analytically  !
 ! A123  A(60,59,61)           121.7445         calculate D2E/DX2 analytically  !
 ! A124  A(59,60,72)           118.7148         calculate D2E/DX2 analytically  !
 ! A125  A(59,60,73)           117.9255         calculate D2E/DX2 analytically  !
 ! A126  A(72,60,73)           115.4135         calculate D2E/DX2 analytically  !
 ! A127  A(59,61,74)           118.8889         calculate D2E/DX2 analytically  !
 ! A128  A(59,61,75)           113.6839         calculate D2E/DX2 analytically  !
 ! A129  A(74,61,75)           111.7249         calculate D2E/DX2 analytically  !
 ! D1    D(9,1,2,3)           -167.0346         calculate D2E/DX2 analytically  !
 ! D2    D(9,1,2,5)             66.2459         calculate D2E/DX2 analytically  !
 ! D3    D(9,1,2,10)           -52.3051         calculate D2E/DX2 analytically  !
 ! D4    D(15,1,2,3)           -46.3902         calculate D2E/DX2 analytically  !
 ! D5    D(15,1,2,5)          -173.1097         calculate D2E/DX2 analytically  !
 ! D6    D(15,1,2,10)           68.3392         calculate D2E/DX2 analytically  !
 ! D7    D(16,1,2,3)            74.6655         calculate D2E/DX2 analytically  !
 ! D8    D(16,1,2,5)           -52.054          calculate D2E/DX2 analytically  !
 ! D9    D(16,1,2,10)         -170.605          calculate D2E/DX2 analytically  !
 ! D10   D(1,2,3,4)             80.1981         calculate D2E/DX2 analytically  !
 ! D11   D(1,2,3,17)           -99.2263         calculate D2E/DX2 analytically  !
 ! D12   D(5,2,3,4)           -155.6098         calculate D2E/DX2 analytically  !
 ! D13   D(5,2,3,17)            24.9658         calculate D2E/DX2 analytically  !
 ! D14   D(10,2,3,4)           -36.183          calculate D2E/DX2 analytically  !
 ! D15   D(10,2,3,17)          144.3926         calculate D2E/DX2 analytically  !
 ! D16   D(1,2,5,6)            -57.5393         calculate D2E/DX2 analytically  !
 ! D17   D(1,2,5,11)            65.3223         calculate D2E/DX2 analytically  !
 ! D18   D(1,2,5,12)          -174.5832         calculate D2E/DX2 analytically  !
 ! D19   D(3,2,5,6)            178.8915         calculate D2E/DX2 analytically  !
 ! D20   D(3,2,5,11)           -58.2469         calculate D2E/DX2 analytically  !
 ! D21   D(3,2,5,12)            61.8476         calculate D2E/DX2 analytically  !
 ! D22   D(10,2,5,6)            60.96           calculate D2E/DX2 analytically  !
 ! D23   D(10,2,5,11)         -176.1785         calculate D2E/DX2 analytically  !
 ! D24   D(10,2,5,12)          -56.084          calculate D2E/DX2 analytically  !
 ! D25   D(2,3,17,18)         -171.962          calculate D2E/DX2 analytically  !
 ! D26   D(2,3,17,28)           23.9828         calculate D2E/DX2 analytically  !
 ! D27   D(4,3,17,18)            8.6395         calculate D2E/DX2 analytically  !
 ! D28   D(4,3,17,28)         -155.4157         calculate D2E/DX2 analytically  !
 ! D29   D(2,5,6,7)            126.063          calculate D2E/DX2 analytically  !
 ! D30   D(2,5,6,8)            -53.2765         calculate D2E/DX2 analytically  !
 ! D31   D(11,5,6,7)             2.3675         calculate D2E/DX2 analytically  !
 ! D32   D(11,5,6,8)          -176.9721         calculate D2E/DX2 analytically  !
 ! D33   D(12,5,6,7)          -115.8256         calculate D2E/DX2 analytically  !
 ! D34   D(12,5,6,8)            64.8349         calculate D2E/DX2 analytically  !
 ! D35   D(5,6,7,13)          -177.6906         calculate D2E/DX2 analytically  !
 ! D36   D(5,6,7,14)           -15.3347         calculate D2E/DX2 analytically  !
 ! D37   D(8,6,7,13)             1.6293         calculate D2E/DX2 analytically  !
 ! D38   D(8,6,7,14)           163.9852         calculate D2E/DX2 analytically  !
 ! D39   D(3,17,18,19)        -148.8766         calculate D2E/DX2 analytically  !
 ! D40   D(3,17,18,21)          90.2119         calculate D2E/DX2 analytically  !
 ! D41   D(3,17,18,29)         -28.6229         calculate D2E/DX2 analytically  !
 ! D42   D(28,17,18,19)         15.2332         calculate D2E/DX2 analytically  !
 ! D43   D(28,17,18,21)       -105.6783         calculate D2E/DX2 analytically  !
 ! D44   D(28,17,18,29)        135.4869         calculate D2E/DX2 analytically  !
 ! D45   D(17,18,19,20)       -106.8216         calculate D2E/DX2 analytically  !
 ! D46   D(17,18,19,37)         72.7134         calculate D2E/DX2 analytically  !
 ! D47   D(21,18,19,20)         15.2884         calculate D2E/DX2 analytically  !
 ! D48   D(21,18,19,37)       -165.1766         calculate D2E/DX2 analytically  !
 ! D49   D(29,18,19,20)        134.931          calculate D2E/DX2 analytically  !
 ! D50   D(29,18,19,37)        -45.534          calculate D2E/DX2 analytically  !
 ! D51   D(17,18,21,22)        -61.8092         calculate D2E/DX2 analytically  !
 ! D52   D(17,18,21,30)         61.229          calculate D2E/DX2 analytically  !
 ! D53   D(17,18,21,31)        176.4614         calculate D2E/DX2 analytically  !
 ! D54   D(19,18,21,22)        177.5404         calculate D2E/DX2 analytically  !
 ! D55   D(19,18,21,30)        -59.4214         calculate D2E/DX2 analytically  !
 ! D56   D(19,18,21,31)         55.811          calculate D2E/DX2 analytically  !
 ! D57   D(29,18,21,22)         56.483          calculate D2E/DX2 analytically  !
 ! D58   D(29,18,21,30)        179.5212         calculate D2E/DX2 analytically  !
 ! D59   D(29,18,21,31)        -65.2464         calculate D2E/DX2 analytically  !
 ! D60   D(18,19,37,38)         -1.3732         calculate D2E/DX2 analytically  !
 ! D61   D(18,19,37,45)        179.1552         calculate D2E/DX2 analytically  !
 ! D62   D(20,19,37,38)        178.1685         calculate D2E/DX2 analytically  !
 ! D63   D(20,19,37,45)         -1.3031         calculate D2E/DX2 analytically  !
 ! D64   D(18,21,22,23)        -79.8053         calculate D2E/DX2 analytically  !
 ! D65   D(18,21,22,24)         99.8348         calculate D2E/DX2 analytically  !
 ! D66   D(30,21,22,23)        158.4895         calculate D2E/DX2 analytically  !
 ! D67   D(30,21,22,24)        -21.8703         calculate D2E/DX2 analytically  !
 ! D68   D(31,21,22,23)         40.4462         calculate D2E/DX2 analytically  !
 ! D69   D(31,21,22,24)       -139.9136         calculate D2E/DX2 analytically  !
 ! D70   D(21,22,23,25)        178.6239         calculate D2E/DX2 analytically  !
 ! D71   D(21,22,23,32)         -0.0264         calculate D2E/DX2 analytically  !
 ! D72   D(24,22,23,25)         -1.0249         calculate D2E/DX2 analytically  !
 ! D73   D(24,22,23,32)       -179.6752         calculate D2E/DX2 analytically  !
 ! D74   D(21,22,24,26)       -178.0529         calculate D2E/DX2 analytically  !
 ! D75   D(21,22,24,33)          1.2409         calculate D2E/DX2 analytically  !
 ! D76   D(23,22,24,26)          1.5935         calculate D2E/DX2 analytically  !
 ! D77   D(23,22,24,33)       -179.1126         calculate D2E/DX2 analytically  !
 ! D78   D(22,23,25,27)         -0.1773         calculate D2E/DX2 analytically  !
 ! D79   D(22,23,25,34)       -179.8352         calculate D2E/DX2 analytically  !
 ! D80   D(32,23,25,27)        178.4483         calculate D2E/DX2 analytically  !
 ! D81   D(32,23,25,34)         -1.2096         calculate D2E/DX2 analytically  !
 ! D82   D(22,24,26,27)         -0.964          calculate D2E/DX2 analytically  !
 ! D83   D(22,24,26,35)        179.6606         calculate D2E/DX2 analytically  !
 ! D84   D(33,24,26,27)        179.7475         calculate D2E/DX2 analytically  !
 ! D85   D(33,24,26,35)          0.372          calculate D2E/DX2 analytically  !
 ! D86   D(23,25,27,26)          0.8282         calculate D2E/DX2 analytically  !
 ! D87   D(23,25,27,36)       -179.7587         calculate D2E/DX2 analytically  !
 ! D88   D(34,25,27,26)       -179.5162         calculate D2E/DX2 analytically  !
 ! D89   D(34,25,27,36)         -0.1031         calculate D2E/DX2 analytically  !
 ! D90   D(24,26,27,25)         -0.2631         calculate D2E/DX2 analytically  !
 ! D91   D(24,26,27,36)       -179.6761         calculate D2E/DX2 analytically  !
 ! D92   D(35,26,27,25)        179.1078         calculate D2E/DX2 analytically  !
 ! D93   D(35,26,27,36)         -0.3052         calculate D2E/DX2 analytically  !
 ! D94   D(19,37,38,39)        -82.2755         calculate D2E/DX2 analytically  !
 ! D95   D(19,37,38,41)        153.9443         calculate D2E/DX2 analytically  !
 ! D96   D(19,37,38,46)         33.4907         calculate D2E/DX2 analytically  !
 ! D97   D(45,37,38,39)         97.1852         calculate D2E/DX2 analytically  !
 ! D98   D(45,37,38,41)        -26.5949         calculate D2E/DX2 analytically  !
 ! D99   D(45,37,38,46)       -147.0486         calculate D2E/DX2 analytically  !
 ! D100  D(37,38,39,40)        134.5788         calculate D2E/DX2 analytically  !
 ! D101  D(37,38,39,51)        -48.8597         calculate D2E/DX2 analytically  !
 ! D102  D(41,38,39,40)       -100.8312         calculate D2E/DX2 analytically  !
 ! D103  D(41,38,39,51)         75.7304         calculate D2E/DX2 analytically  !
 ! D104  D(46,38,39,40)         16.7362         calculate D2E/DX2 analytically  !
 ! D105  D(46,38,39,51)       -166.7023         calculate D2E/DX2 analytically  !
 ! D106  D(37,38,41,42)         59.3065         calculate D2E/DX2 analytically  !
 ! D107  D(37,38,41,47)        -60.3316         calculate D2E/DX2 analytically  !
 ! D108  D(37,38,41,48)       -177.9054         calculate D2E/DX2 analytically  !
 ! D109  D(39,38,41,42)        -65.8635         calculate D2E/DX2 analytically  !
 ! D110  D(39,38,41,47)        174.4984         calculate D2E/DX2 analytically  !
 ! D111  D(39,38,41,48)         56.9247         calculate D2E/DX2 analytically  !
 ! D112  D(46,38,41,42)        179.2741         calculate D2E/DX2 analytically  !
 ! D113  D(46,38,41,47)         59.6361         calculate D2E/DX2 analytically  !
 ! D114  D(46,38,41,48)        -57.9377         calculate D2E/DX2 analytically  !
 ! D115  D(38,39,51,52)        167.0983         calculate D2E/DX2 analytically  !
 ! D116  D(38,39,51,63)         18.5948         calculate D2E/DX2 analytically  !
 ! D117  D(40,39,51,52)        -16.5475         calculate D2E/DX2 analytically  !
 ! D118  D(40,39,51,63)       -165.0511         calculate D2E/DX2 analytically  !
 ! D119  D(38,41,42,43)        142.2789         calculate D2E/DX2 analytically  !
 ! D120  D(38,41,42,44)        -38.809          calculate D2E/DX2 analytically  !
 ! D121  D(47,41,42,43)        -97.5107         calculate D2E/DX2 analytically  !
 ! D122  D(47,41,42,44)         81.4014         calculate D2E/DX2 analytically  !
 ! D123  D(48,41,42,43)         20.5329         calculate D2E/DX2 analytically  !
 ! D124  D(48,41,42,44)       -160.555          calculate D2E/DX2 analytically  !
 ! D125  D(41,42,43,49)        176.4466         calculate D2E/DX2 analytically  !
 ! D126  D(41,42,43,50)          4.5171         calculate D2E/DX2 analytically  !
 ! D127  D(44,42,43,49)         -2.463          calculate D2E/DX2 analytically  !
 ! D128  D(44,42,43,50)       -174.3925         calculate D2E/DX2 analytically  !
 ! D129  D(39,51,52,53)        -87.6951         calculate D2E/DX2 analytically  !
 ! D130  D(39,51,52,55)        144.968          calculate D2E/DX2 analytically  !
 ! D131  D(39,51,52,64)         26.962          calculate D2E/DX2 analytically  !
 ! D132  D(63,51,52,53)         60.5065         calculate D2E/DX2 analytically  !
 ! D133  D(63,51,52,55)        -66.8304         calculate D2E/DX2 analytically  !
 ! D134  D(63,51,52,64)        175.1636         calculate D2E/DX2 analytically  !
 ! D135  D(51,52,53,54)          8.9189         calculate D2E/DX2 analytically  !
 ! D136  D(51,52,53,62)       -172.5749         calculate D2E/DX2 analytically  !
 ! D137  D(55,52,53,54)        135.8252         calculate D2E/DX2 analytically  !
 ! D138  D(55,52,53,62)        -45.6686         calculate D2E/DX2 analytically  !
 ! D139  D(64,52,53,54)       -105.9726         calculate D2E/DX2 analytically  !
 ! D140  D(64,52,53,62)         72.5336         calculate D2E/DX2 analytically  !
 ! D141  D(51,52,55,56)         53.1541         calculate D2E/DX2 analytically  !
 ! D142  D(51,52,55,65)        178.2751         calculate D2E/DX2 analytically  !
 ! D143  D(51,52,55,66)        -67.5604         calculate D2E/DX2 analytically  !
 ! D144  D(53,52,55,56)        -72.1422         calculate D2E/DX2 analytically  !
 ! D145  D(53,52,55,65)         52.9788         calculate D2E/DX2 analytically  !
 ! D146  D(53,52,55,66)        167.1433         calculate D2E/DX2 analytically  !
 ! D147  D(64,52,55,56)        170.5092         calculate D2E/DX2 analytically  !
 ! D148  D(64,52,55,65)        -64.3698         calculate D2E/DX2 analytically  !
 ! D149  D(64,52,55,66)         49.7947         calculate D2E/DX2 analytically  !
 ! D150  D(52,55,56,57)         73.1264         calculate D2E/DX2 analytically  !
 ! D151  D(52,55,56,67)       -167.5077         calculate D2E/DX2 analytically  !
 ! D152  D(52,55,56,68)        -52.0574         calculate D2E/DX2 analytically  !
 ! D153  D(65,55,56,57)        -51.2869         calculate D2E/DX2 analytically  !
 ! D154  D(65,55,56,67)         68.079          calculate D2E/DX2 analytically  !
 ! D155  D(65,55,56,68)       -176.4708         calculate D2E/DX2 analytically  !
 ! D156  D(66,55,56,57)       -167.4633         calculate D2E/DX2 analytically  !
 ! D157  D(66,55,56,67)        -48.0973         calculate D2E/DX2 analytically  !
 ! D158  D(66,55,56,68)         67.3529         calculate D2E/DX2 analytically  !
 ! D159  D(55,56,57,58)        -74.3935         calculate D2E/DX2 analytically  !
 ! D160  D(55,56,57,69)         45.967          calculate D2E/DX2 analytically  !
 ! D161  D(55,56,57,70)        162.7136         calculate D2E/DX2 analytically  !
 ! D162  D(67,56,57,58)        165.6839         calculate D2E/DX2 analytically  !
 ! D163  D(67,56,57,69)        -73.9556         calculate D2E/DX2 analytically  !
 ! D164  D(67,56,57,70)         42.7909         calculate D2E/DX2 analytically  !
 ! D165  D(68,56,57,58)         51.1799         calculate D2E/DX2 analytically  !
 ! D166  D(68,56,57,69)        171.5403         calculate D2E/DX2 analytically  !
 ! D167  D(68,56,57,70)        -71.7131         calculate D2E/DX2 analytically  !
 ! D168  D(56,57,58,59)        -62.5837         calculate D2E/DX2 analytically  !
 ! D169  D(56,57,58,71)        109.9966         calculate D2E/DX2 analytically  !
 ! D170  D(69,57,58,59)        174.7419         calculate D2E/DX2 analytically  !
 ! D171  D(69,57,58,71)        -12.6777         calculate D2E/DX2 analytically  !
 ! D172  D(70,57,58,59)         60.4368         calculate D2E/DX2 analytically  !
 ! D173  D(70,57,58,71)       -126.9828         calculate D2E/DX2 analytically  !
 ! D174  D(57,58,59,60)        -16.1392         calculate D2E/DX2 analytically  !
 ! D175  D(57,58,59,61)        168.7752         calculate D2E/DX2 analytically  !
 ! D176  D(71,58,59,60)        171.2033         calculate D2E/DX2 analytically  !
 ! D177  D(71,58,59,61)         -3.8823         calculate D2E/DX2 analytically  !
 ! D178  D(58,59,60,72)        155.0149         calculate D2E/DX2 analytically  !
 ! D179  D(58,59,60,73)          7.431          calculate D2E/DX2 analytically  !
 ! D180  D(61,59,60,72)        -30.0552         calculate D2E/DX2 analytically  !
 ! D181  D(61,59,60,73)       -177.6392         calculate D2E/DX2 analytically  !
 ! D182  D(58,59,61,74)       -162.7487         calculate D2E/DX2 analytically  !
 ! D183  D(58,59,61,75)        -28.0266         calculate D2E/DX2 analytically  !
 ! D184  D(60,59,61,74)         22.2872         calculate D2E/DX2 analytically  !
 ! D185  D(60,59,61,75)        157.0093         calculate D2E/DX2 analytically  !
 --------------------------------------------------------------------------------
 Trust Radius=3.00D-01 FncErr=1.00D-07 GrdErr=1.00D-06 EigMax=2.50D+02 EigMin=1.00D-04
 Number of steps in this run=    399 maximum allowed number of steps=    450.
 GradGradGradGradGradGradGradGradGradGradGradGradGradGradGradGradGradGrad

 Symmetry turned off by external request.
 Stoichiometry    C23H36N9O7(1+)
 Framework group  C1[X(C23H36N9O7)]
 Deg. of freedom   219
 Full point group                 C1      NOp   1
                          Input orientation:                          
 ---------------------------------------------------------------------
 Center     Atomic      Atomic             Coordinates (Angstroms)
 Number     Number       Type             X           Y           Z
 ---------------------------------------------------------------------
      1          7           0       -8.555107    1.243201   -8.377629
      2          6           0       -9.397490    0.395963   -7.514538
      3          6           0       -8.545895   -0.143495   -6.353976
      4          8           0       -8.321749    0.577934   -5.384318
      5          6           0      -10.091634   -0.675676   -8.343451
      6          6           0      -10.913068   -0.010234   -9.428392
      7          7           0      -10.672117   -0.424357  -10.691192
      8          8           0      -11.727558    0.854224   -9.150015
      9          1           0       -9.139354    1.777032   -9.020934
     10          1           0      -10.162958    1.027019   -7.053778
     11          1           0       -9.387560   -1.375166   -8.773649
     12          1           0      -10.782232   -1.229002   -7.704762
     13          1           0      -11.189909    0.040922  -11.416001
     14          1           0       -9.843769   -0.959539  -10.939590
     15          1           0       -7.997118    1.892350   -7.823049
     16          1           0       -7.944595    0.629958   -8.925866
     17          7           0       -8.068085   -1.411549   -6.472669
     18          6           0       -7.402720   -2.077962   -5.370057
     19          6           0       -6.350947   -3.046768   -5.932071
     20          8           0       -6.520356   -4.263902   -5.912838
     21          6           0       -8.399534   -2.854216   -4.500938
     22          6           0       -9.428449   -1.971657   -3.864394
     23          6           0       -9.118657   -1.241122   -2.718616
     24          6           0      -10.710766   -1.855421   -4.404829
     25          6           0      -10.059248   -0.395178   -2.134629
     26          6           0      -11.651521   -1.000966   -3.830512
     27          6           0      -11.327353   -0.266516   -2.695526
     28          1           0       -7.960629   -1.799094   -7.395080
     29          1           0       -6.932666   -1.309249   -4.755310
     30          1           0       -8.872949   -3.614361   -5.118385
     31          1           0       -7.828514   -3.378821   -3.734364
     32          1           0       -8.118072   -1.326882   -2.299818
     33          1           0      -10.968259   -2.430960   -5.289025
     34          1           0       -9.795845    0.165516   -1.245336
     35          1           0      -12.639210   -0.921465   -4.268907
     36          1           0      -12.059440    0.394262   -2.244807
     37          7           0       -5.224764   -2.525365   -6.463677
     38          6           0       -4.882981   -1.134994   -6.600053
     39          6           0       -5.528840   -0.487226   -7.858896
     40          8           0       -6.080301    0.623078   -7.778765
     41          6           0       -3.370918   -0.935047   -6.631201
     42          6           0       -2.675722   -1.668320   -7.766296
     43          7           0       -1.648546   -0.998206   -8.334966
     44          8           0       -3.010221   -2.793794   -8.124554
     45          1           0       -4.559982   -3.203530   -6.806818
     46          1           0       -5.302140   -0.590548   -5.754566
     47          1           0       -2.953342   -1.308915   -5.695608
     48          1           0       -3.169861    0.135823   -6.697671
     49          1           0       -1.117400   -1.455779   -9.053777
     50          1           0       -1.333999   -0.115286   -7.978022
     51          7           0       -5.358123   -1.205891   -9.007541
     52          6           0       -6.107300   -0.905526  -10.189894
     53          6           0       -7.449898   -1.679945  -10.166483
     54          8           0       -7.689699   -2.248321   -9.086320
     55          6           0       -5.307382   -1.123579  -11.459749
     56          6           0       -4.646613   -2.485838  -11.639421
     57          6           0       -5.573785   -3.654403  -11.971590
     58          7           0       -6.384700   -4.155464  -10.863427
     59          6           0       -5.919425   -4.703698   -9.733938
     60          7           0       -4.638856   -5.127351   -9.682007
     61          7           0       -6.768148   -4.905538   -8.722129
     62          8           0       -8.156174   -1.646841  -11.170256
     63          1           0       -5.113568   -2.159975   -8.875277
     64          1           0       -6.364516    0.154874  -10.136353
     65          1           0       -5.949913   -0.905289  -12.316575
     66          1           0       -4.523323   -0.360427  -11.452674
     67          1           0       -3.940615   -2.402824  -12.471466
     68          1           0       -4.055735   -2.733578  -10.760559
     69          1           0       -6.277167   -3.369556  -12.754653
     70          1           0       -4.975739   -4.481627  -12.373075
     71          1           0       -7.380695   -3.981349  -10.898964
     72          1           0       -4.180778   -5.177107   -8.784486
     73          1           0       -4.040298   -4.913204  -10.460459
     74          1           0       -6.393926   -5.065393   -7.793185
     75          1           0       -7.545135   -4.255258   -8.706711
 ---------------------------------------------------------------------
 Rotational constants (GHZ):           0.1368560           0.0792202           0.0653675
 Standard basis: 6-31G(d) (6D, 7F)
   657 basis functions,  1236 primitive gaussians,   657 cartesian basis functions
   146 alpha electrons      146 beta electrons
       nuclear repulsion energy      5207.6512624242 Hartrees.
 NAtoms=   75 NActive=   75 NUniq=   75 SFac= 1.00D+00 NAtFMM=   60 NAOKFM=T Big=T
 Integral buffers will be    131072 words long.
 Raffenetti 2 integral format.
 Two-electron integral symmetry is turned off.
 Nuclear repulsion after empirical dispersion term =     5207.5246926928 Hartrees.
 One-electron integrals computed using PRISM.
 NBasis=   657 RedAO= T EigKep=  4.48D-04  NBF=   657
 NBsUse=   657 1.00D-06 EigRej= -1.00D+00 NBFU=   657
 ExpMin= 1.61D-01 ExpMax= 5.48D+03 ExpMxC= 8.25D+02 IAcc=3 IRadAn=         5 AccDes= 0.00D+00
 Harris functional with IExCor=  402 and IRadAn=       5 diagonalized for initial guess.
 HarFok:  IExCor=  402 AccDes= 0.00D+00 IRadAn=         5 IDoV= 1 UseB2=F ITyADJ=14
 ICtDFT=  3500011 ScaDFX=  1.000000  1.000000  1.000000  1.000000
 FoFCou: FMM=F IPFlag=           0 FMFlag=      100000 FMFlg1=        2001
         NFxFlg=           0 DoJE=T BraDBF=F KetDBF=T FulRan=T
         wScrn=  0.000000 ICntrl=       500 IOpCl=  0 I1Cent=   200000004 NGrid=           0
         NMat0=    1 NMatS0=      1 NMatT0=    0 NMatD0=    1 NMtDS0=    0 NMtDT0=    0
 Symmetry not used in FoFCou.
 Requested convergence on RMS density matrix=1.00D-08 within 128 cycles.
 Requested convergence on MAX density matrix=1.00D-06.
 Requested convergence on             energy=1.00D-06.
 No special actions if energy rises.
 Integral accuracy reduced to 1.0D-05 until final iterations.
 Initial convergence to 1.0D-05 achieved.  Increase integral accuracy.
 SCF Done:  E(RB3LYP) =  -1917.48256420     A.U. after   15 cycles
            NFock= 15  Conv=0.77D-08     -V/T= 2.0087
 DoSCS=F DFT=T ScalE2(SS,OS)=  1.000000  1.000000
 Range of M.O.s used for correlation:     1   657
 NBasis=   657 NAE=   146 NBE=   146 NFC=     0 NFV=     0
 NROrb=    657 NOA=   146 NOB=   146 NVA=   511 NVB=   511
 Symmetrizing basis deriv contribution to polar:
 IMax=3 JMax=2 DiffMx= 0.00D+00
 G2DrvN: will do    76 centers at a time, making    1 passes.
 Calling FoFCou, ICntrl=  3107 FMM=T I1Cent=   0 AccDes= 0.00D+00.
 End of G2Drv F.D. properties file   721 does not exist.
 End of G2Drv F.D. properties file   722 does not exist.
 End of G2Drv F.D. properties file   788 does not exist.
          IDoAtm=11111111111111111111111111111111111111111111111111
          IDoAtm=1111111111111111111111111
          Differentiating once with respect to nuclear coordinates.
 CalDSu exits because no D1Ps are significant.
          There are   228 degrees of freedom in the 1st order CPHF.  IDoFFX=6 NUNeed=     0.
    222 vectors produced by pass  0 Test12= 7.46D-14 1.00D-09 XBig12= 2.20D-01 1.26D-01.
 AX will form    72 AO Fock derivatives at one time.
    222 vectors produced by pass  1 Test12= 7.46D-14 1.00D-09 XBig12= 2.90D-02 2.23D-02.
    222 vectors produced by pass  2 Test12= 7.46D-14 1.00D-09 XBig12= 2.13D-04 1.44D-03.
    222 vectors produced by pass  3 Test12= 7.46D-14 1.00D-09 XBig12= 5.57D-07 5.67D-05.
    222 vectors produced by pass  4 Test12= 7.46D-14 1.00D-09 XBig12= 7.73D-10 1.71D-06.
    180 vectors produced by pass  5 Test12= 7.46D-14 1.00D-09 XBig12= 7.35D-13 6.00D-08.
      7 vectors produced by pass  6 Test12= 7.46D-14 1.00D-09 XBig12= 6.69D-16 2.18D-09.
      1 vectors produced by pass  7 Test12= 7.46D-14 1.00D-09 XBig12= 2.69D-16 1.48D-09.
 InvSVY:  IOpt=1 It=  1 EMax= 5.00D-16
 Solved reduced A of dimension  1298 with   228 vectors.
 End of Minotr F.D. properties file   721 does not exist.
 End of Minotr F.D. properties file   722 does not exist.
 End of Minotr F.D. properties file   788 does not exist.

 **********************************************************************

            Population analysis using the SCF Density.

 **********************************************************************

 Alpha  occ. eigenvalues --  -19.25305 -19.24802 -19.23197 -19.21717 -19.21674
 Alpha  occ. eigenvalues --  -19.21102 -19.19570 -14.58458 -14.51156 -14.50785
 Alpha  occ. eigenvalues --  -14.48821 -14.48735 -14.47792 -14.47682 -14.45381
 Alpha  occ. eigenvalues --  -14.43036 -10.46678 -10.42779 -10.41451 -10.40294
 Alpha  occ. eigenvalues --  -10.39354 -10.38886 -10.37311 -10.36675 -10.36238
 Alpha  occ. eigenvalues --  -10.35632 -10.33597 -10.33089 -10.32985 -10.31096
 Alpha  occ. eigenvalues --  -10.29939 -10.29078 -10.26514 -10.25761 -10.25076
 Alpha  occ. eigenvalues --  -10.24912 -10.24875 -10.24810 -10.24668  -1.17469
 Alpha  occ. eigenvalues --   -1.17030  -1.15965  -1.15666  -1.15274  -1.14886
 Alpha  occ. eigenvalues --   -1.12755  -1.11866  -1.07674  -1.05934  -1.05022
 Alpha  occ. eigenvalues --   -1.04496  -1.03995  -1.03812  -1.02638  -0.98581
 Alpha  occ. eigenvalues --   -0.92474  -0.92173  -0.91155  -0.90524  -0.86777
 Alpha  occ. eigenvalues --   -0.86716  -0.81861  -0.81577  -0.80475  -0.79881
 Alpha  occ. eigenvalues --   -0.79490  -0.77070  -0.75193  -0.73431  -0.73023
 Alpha  occ. eigenvalues --   -0.72630  -0.71999  -0.71547  -0.70973  -0.70103
 Alpha  occ. eigenvalues --   -0.69159  -0.68044  -0.67887  -0.67348  -0.66841
 Alpha  occ. eigenvalues --   -0.66393  -0.65629  -0.64537  -0.64127  -0.62976
 Alpha  occ. eigenvalues --   -0.62484  -0.62292  -0.61569  -0.60981  -0.60889
 Alpha  occ. eigenvalues --   -0.59494  -0.59273  -0.58558  -0.58094  -0.57843
 Alpha  occ. eigenvalues --   -0.57063  -0.56697  -0.56500  -0.55899  -0.55259
 Alpha  occ. eigenvalues --   -0.54854  -0.54261  -0.53717  -0.53339  -0.52989
 Alpha  occ. eigenvalues --   -0.52834  -0.52560  -0.52353  -0.52005  -0.51564
 Alpha  occ. eigenvalues --   -0.51214  -0.50650  -0.50313  -0.49785  -0.49130
 Alpha  occ. eigenvalues --   -0.48999  -0.48548  -0.48027  -0.47795  -0.47385
 Alpha  occ. eigenvalues --   -0.46690  -0.46604  -0.46500  -0.46231  -0.45495
 Alpha  occ. eigenvalues --   -0.44364  -0.42226  -0.42025  -0.40684  -0.40499
 Alpha  occ. eigenvalues --   -0.40329  -0.40076  -0.39595  -0.39469  -0.39110
 Alpha  occ. eigenvalues --   -0.38323  -0.37184  -0.36489  -0.36085  -0.35669
 Alpha  occ. eigenvalues --   -0.35148  -0.34977  -0.34341  -0.33253  -0.31017
 Alpha  occ. eigenvalues --   -0.30353
 Alpha virt. eigenvalues --   -0.12366  -0.11756  -0.10862  -0.10197  -0.09355
 Alpha virt. eigenvalues --   -0.08073  -0.07077  -0.06995  -0.06282  -0.05924
 Alpha virt. eigenvalues --   -0.05699  -0.04271  -0.03388  -0.02959  -0.01709
 Alpha virt. eigenvalues --   -0.01366  -0.01033  -0.00244   0.00302   0.01119
 Alpha virt. eigenvalues --    0.01479   0.01557   0.02779   0.03216   0.03712
 Alpha virt. eigenvalues --    0.03854   0.04182   0.04429   0.04878   0.05052
 Alpha virt. eigenvalues --    0.05493   0.06132   0.06447   0.06969   0.07182
 Alpha virt. eigenvalues --    0.07328   0.07677   0.07799   0.08181   0.08565
 Alpha virt. eigenvalues --    0.08998   0.09720   0.09911   0.10481   0.10956
 Alpha virt. eigenvalues --    0.11471   0.11595   0.12016   0.12364   0.12896
 Alpha virt. eigenvalues --    0.13427   0.13850   0.13962   0.14526   0.14610
 Alpha virt. eigenvalues --    0.15469   0.15594   0.15722   0.16705   0.17359
 Alpha virt. eigenvalues --    0.17718   0.18194   0.18878   0.20058   0.20548
 Alpha virt. eigenvalues --    0.21254   0.22798   0.24016   0.24779   0.25014
 Alpha virt. eigenvalues --    0.25495   0.25984   0.26509   0.26815   0.27076
 Alpha virt. eigenvalues --    0.27558   0.28643   0.29708   0.30389   0.31097
 Alpha virt. eigenvalues --    0.32245   0.34568   0.35476   0.36770   0.37889
 Alpha virt. eigenvalues --    0.38021   0.38456   0.39091   0.39759   0.40115
 Alpha virt. eigenvalues --    0.40930   0.41618   0.41919   0.42415   0.42892
 Alpha virt. eigenvalues --    0.43995   0.44453   0.45401   0.46027   0.46583
 Alpha virt. eigenvalues --    0.46979   0.47106   0.47474   0.47989   0.48223
 Alpha virt. eigenvalues --    0.48788   0.49234   0.49730   0.50118   0.50297
 Alpha virt. eigenvalues --    0.50437   0.51088   0.51845   0.52366   0.52698
 Alpha virt. eigenvalues --    0.52735   0.53279   0.53634   0.53698   0.53936
 Alpha virt. eigenvalues --    0.54091   0.54844   0.55025   0.55421   0.55679
 Alpha virt. eigenvalues --    0.55933   0.56155   0.56522   0.56639   0.56893
 Alpha virt. eigenvalues --    0.57498   0.57752   0.58402   0.59364   0.59587
 Alpha virt. eigenvalues --    0.59841   0.60210   0.60720   0.61062   0.61600
 Alpha virt. eigenvalues --    0.61806   0.62570   0.63052   0.63610   0.64184
 Alpha virt. eigenvalues --    0.64444   0.64917   0.65983   0.67435   0.67793
 Alpha virt. eigenvalues --    0.68414   0.68941   0.69453   0.69686   0.70189
 Alpha virt. eigenvalues --    0.70393   0.71106   0.72039   0.72298   0.73332
 Alpha virt. eigenvalues --    0.73917   0.74213   0.74594   0.75163   0.75780
 Alpha virt. eigenvalues --    0.75914   0.76200   0.76350   0.76590   0.76939
 Alpha virt. eigenvalues --    0.77459   0.77732   0.78061   0.78110   0.78329
 Alpha virt. eigenvalues --    0.78695   0.78952   0.79347   0.79827   0.80085
 Alpha virt. eigenvalues --    0.80641   0.81289   0.81941   0.82319   0.82703
 Alpha virt. eigenvalues --    0.83227   0.83346   0.83882   0.84219   0.84683
 Alpha virt. eigenvalues --    0.85154   0.85364   0.86038   0.86613   0.86919
 Alpha virt. eigenvalues --    0.87365   0.87683   0.88275   0.88692   0.88933
 Alpha virt. eigenvalues --    0.90340   0.90642   0.91578   0.92235   0.92994
 Alpha virt. eigenvalues --    0.93171   0.93730   0.94469   0.94648   0.95215
 Alpha virt. eigenvalues --    0.95518   0.95841   0.96900   0.97904   0.98785
 Alpha virt. eigenvalues --    0.99008   0.99512   1.00562   1.01606   1.01986
 Alpha virt. eigenvalues --    1.03494   1.04134   1.04933   1.05552   1.05881
 Alpha virt. eigenvalues --    1.06675   1.06959   1.07325   1.08571   1.09440
 Alpha virt. eigenvalues --    1.09850   1.10161   1.11425   1.11849   1.12285
 Alpha virt. eigenvalues --    1.13090   1.13276   1.14095   1.14441   1.15623
 Alpha virt. eigenvalues --    1.16746   1.17908   1.18400   1.19099   1.19715
 Alpha virt. eigenvalues --    1.20466   1.21521   1.22400   1.23027   1.23689
 Alpha virt. eigenvalues --    1.25211   1.25689   1.26067   1.27685   1.28220
 Alpha virt. eigenvalues --    1.29097   1.29482   1.30309   1.31241   1.32529
 Alpha virt. eigenvalues --    1.33116   1.34258   1.34664   1.35650   1.36874
 Alpha virt. eigenvalues --    1.37150   1.37600   1.38350   1.39556   1.40097
 Alpha virt. eigenvalues --    1.41422   1.42308   1.42539   1.42913   1.43658
 Alpha virt. eigenvalues --    1.44327   1.44883   1.45496   1.45694   1.46795
 Alpha virt. eigenvalues --    1.47738   1.49454   1.49612   1.50351   1.52142
 Alpha virt. eigenvalues --    1.52795   1.53241   1.54309   1.54500   1.55016
 Alpha virt. eigenvalues --    1.57814   1.57968   1.59284   1.59611   1.60412
 Alpha virt. eigenvalues --    1.61648   1.62172   1.62660   1.63122   1.64046
 Alpha virt. eigenvalues --    1.65362   1.65510   1.66428   1.66687   1.67003
 Alpha virt. eigenvalues --    1.68075   1.68587   1.69730   1.70794   1.71170
 Alpha virt. eigenvalues --    1.71834   1.72114   1.72794   1.73266   1.73754
 Alpha virt. eigenvalues --    1.73872   1.74313   1.74874   1.75356   1.76169
 Alpha virt. eigenvalues --    1.76983   1.77169   1.77945   1.78545   1.78582
 Alpha virt. eigenvalues --    1.78781   1.79145   1.79551   1.80808   1.81640
 Alpha virt. eigenvalues --    1.81968   1.82839   1.83459   1.84075   1.84824
 Alpha virt. eigenvalues --    1.85709   1.86376   1.86990   1.87451   1.87801
 Alpha virt. eigenvalues --    1.88572   1.88986   1.89742   1.89950   1.90822
 Alpha virt. eigenvalues --    1.91153   1.91531   1.92414   1.92558   1.93092
 Alpha virt. eigenvalues --    1.93926   1.95205   1.95634   1.96100   1.96962
 Alpha virt. eigenvalues --    1.97809   1.98139   1.98857   1.98899   1.99463
 Alpha virt. eigenvalues --    2.00085   2.00454   2.00742   2.02310   2.02906
 Alpha virt. eigenvalues --    2.03430   2.04785   2.05110   2.06880   2.07512
 Alpha virt. eigenvalues --    2.08536   2.09490   2.10271   2.10417   2.11498
 Alpha virt. eigenvalues --    2.11833   2.12116   2.12801   2.12960   2.15179
 Alpha virt. eigenvalues --    2.15580   2.15914   2.16953   2.17329   2.18564
 Alpha virt. eigenvalues --    2.19291   2.21016   2.21852   2.22250   2.23435
 Alpha virt. eigenvalues --    2.24367   2.25153   2.25448   2.25644   2.26181
 Alpha virt. eigenvalues --    2.27475   2.28673   2.29068   2.30354   2.31796
 Alpha virt. eigenvalues --    2.32187   2.32475   2.33512   2.34255   2.34877
 Alpha virt. eigenvalues --    2.36041   2.37119   2.37572   2.38929   2.40046
 Alpha virt. eigenvalues --    2.40839   2.42054   2.42652   2.43643   2.44507
 Alpha virt. eigenvalues --    2.45089   2.46420   2.47818   2.48208   2.49458
 Alpha virt. eigenvalues --    2.50094   2.50376   2.50990   2.51772   2.52464
 Alpha virt. eigenvalues --    2.52775   2.54337   2.55167   2.55359   2.56049
 Alpha virt. eigenvalues --    2.56174   2.57551   2.58386   2.59357   2.59955
 Alpha virt. eigenvalues --    2.60406   2.60876   2.61046   2.64174   2.64786
 Alpha virt. eigenvalues --    2.66084   2.67502   2.68004   2.69493   2.69969
 Alpha virt. eigenvalues --    2.71640   2.72475   2.74301   2.76998   2.78639
 Alpha virt. eigenvalues --    2.80854   2.84117   2.86165   2.86832   2.88261
 Alpha virt. eigenvalues --    2.88914   2.90018   2.90866   2.91874   2.92490
 Alpha virt. eigenvalues --    2.94152   2.95850   2.96602   2.98123   3.00039
 Alpha virt. eigenvalues --    3.00991   3.01079   3.03452   3.05910   3.09633
 Alpha virt. eigenvalues --    3.13777   3.36592   3.68230   3.70305   3.75404
 Alpha virt. eigenvalues --    3.80876   3.83145   3.90154   3.90653   3.94685
 Alpha virt. eigenvalues --    3.96755   4.01596   4.02131   4.04300   4.05545
 Alpha virt. eigenvalues --    4.06416   4.09594   4.10910   4.13508   4.15638
 Alpha virt. eigenvalues --    4.16869   4.19283   4.19712   4.22878   4.24724
 Alpha virt. eigenvalues --    4.29179   4.32165   4.33993   4.37197   4.38412
 Alpha virt. eigenvalues --    4.40325   4.42802   4.45654   4.47393   4.49981
 Alpha virt. eigenvalues --    4.52191   4.54793   4.64497   4.66376   4.67213
 Alpha virt. eigenvalues --    4.69921
          Condensed to atoms (all electrons):
 Mulliken charges:
               1
     1  N   -0.731172
     2  C   -0.145123
     3  C    0.632780
     4  O   -0.502527
     5  C   -0.421691
     6  C    0.535304
     7  N   -0.774097
     8  O   -0.507937
     9  H    0.418713
    10  H    0.250953
    11  H    0.221483
    12  H    0.218122
    13  H    0.344836
    14  H    0.402177
    15  H    0.437151
    16  H    0.428390
    17  N   -0.670617
    18  C   -0.045094
    19  C    0.594352
    20  O   -0.530826
    21  C   -0.342442
    22  C    0.176709
    23  C   -0.158712
    24  C   -0.202147
    25  C   -0.124668
    26  C   -0.130137
    27  C   -0.125215
    28  H    0.415904
    29  H    0.192404
    30  H    0.162904
    31  H    0.168707
    32  H    0.119530
    33  H    0.118899
    34  H    0.140899
    35  H    0.139269
    36  H    0.143176
    37  N   -0.613527
    38  C   -0.070332
    39  C    0.614974
    40  O   -0.581240
    41  C   -0.390455
    42  C    0.631243
    43  N   -0.728421
    44  O   -0.563562
    45  H    0.348944
    46  H    0.207333
    47  H    0.218186
    48  H    0.188079
    49  H    0.361730
    50  H    0.366189
    51  N   -0.559562
    52  C   -0.100102
    53  C    0.593604
    54  O   -0.619422
    55  C   -0.263670
    56  C   -0.313254
    57  C   -0.178670
    58  N   -0.579673
    59  C    0.726579
    60  N   -0.728804
    61  N   -0.739330
    62  O   -0.574251
    63  H    0.360532
    64  H    0.161460
    65  H    0.181417
    66  H    0.157155
    67  H    0.176773
    68  H    0.150102
    69  H    0.210963
    70  H    0.178696
    71  H    0.386172
    72  H    0.383028
    73  H    0.377690
    74  H    0.385649
    75  H    0.387514
 Sum of Mulliken charges =   1.00000
 Mulliken charges with hydrogens summed into heavy atoms:
               1
     1  N    0.553083
     2  C    0.105831
     3  C    0.632780
     4  O   -0.502527
     5  C    0.017915
     6  C    0.535304
     7  N   -0.027083
     8  O   -0.507937
    17  N   -0.254713
    18  C    0.147310
    19  C    0.594352
    20  O   -0.530826
    21  C   -0.010831
    22  C    0.176709
    23  C   -0.039182
    24  C   -0.083248
    25  C    0.016231
    26  C    0.009132
    27  C    0.017961
    37  N   -0.264583
    38  C    0.137001
    39  C    0.614974
    40  O   -0.581240
    41  C    0.015811
    42  C    0.631243
    43  N   -0.000502
    44  O   -0.563562
    51  N   -0.199030
    52  C    0.061358
    53  C    0.593604
    54  O   -0.619422
    55  C    0.074901
    56  C    0.013622
    57  C    0.210989
    58  N   -0.193501
    59  C    0.726579
    60  N    0.031915
    61  N    0.033833
    62  O   -0.574251
 APT charges:
               1
     1  N   -1.259263
     2  C   -0.780127
     3  C    2.501839
     4  O   -2.159637
     5  C   -1.254345
     6  C   -2.399443
     7  N   -1.138121
     8  O    1.525024
     9  H    2.228737
    10  H    0.921150
    11  H    0.116798
    12  H    0.799620
    13  H    2.745075
    14  H   -0.255407
    15  H   -0.830023
    16  H    0.448381
    17  N   -1.738030
    18  C    1.242810
    19  C   -0.749254
    20  O    0.463699
    21  C   -1.185052
    22  C   -1.067116
    23  C   -0.974899
    24  C   -0.048305
    25  C   -0.724112
    26  C   -0.027221
    27  C   -0.285069
    28  H    1.018274
    29  H   -0.619428
    30  H    1.391080
    31  H   -0.412199
    32  H   -0.977741
    33  H    1.296437
    34  H   -0.302853
    35  H    2.089219
    36  H    1.270100
    37  N   -0.854277
    38  C   -0.109787
    39  C   -0.786695
    40  O   -0.001399
    41  C    0.390165
    42  C   -1.239684
    43  N   -0.773988
    44  O    0.691209
    45  H    0.455894
    46  H   -0.175291
    47  H   -0.535857
    48  H    0.231251
    49  H    1.485341
    50  H   -0.240185
    51  N    0.755429
    52  C   -0.658842
    53  C   -0.962462
    54  O   -1.571877
    55  C   -1.665830
    56  C    0.249808
    57  C   -3.162851
    58  N   -0.369971
    59  C    0.148594
    60  N   -0.155079
    61  N    0.368274
    62  O    2.011628
    63  H    0.332626
    64  H    0.453726
    65  H    1.872718
    66  H   -0.229507
    67  H    1.112857
    68  H   -0.859243
    69  H    2.080546
    70  H    0.920650
    71  H    1.570772
    72  H   -1.355471
    73  H    1.042580
    74  H   -0.930595
    75  H    0.594223
 Sum of APT charges =   1.00000
 APT charges with hydrogens summed into heavy atoms:
               1
     1  N    0.587831
     2  C    0.141024
     3  C    2.501839
     4  O   -2.159637
     5  C   -0.337927
     6  C   -2.399443
     7  N    1.351547
     8  O    1.525024
    17  N   -0.719756
    18  C    0.623382
    19  C   -0.749254
    20  O    0.463699
    21  C   -0.206171
    22  C   -1.067116
    23  C   -1.952640
    24  C    1.248132
    25  C   -1.026965
    26  C    2.061998
    27  C    0.985031
    37  N   -0.398383
    38  C   -0.285078
    39  C   -0.786695
    40  O   -0.001399
    41  C    0.085559
    42  C   -1.239684
    43  N    0.471167
    44  O    0.691209
    51  N    1.088054
    52  C   -0.205116
    53  C   -0.962462
    54  O   -1.571877
    55  C   -0.022619
    56  C    0.503422
    57  C   -0.161655
    58  N    1.200801
    59  C    0.148594
    60  N   -0.467970
    61  N    0.031903
    62  O    2.011628
 Electronic spatial extent (au):  <R**2>=         136553.5520
 Charge=              1.0000 electrons
 Dipole moment (field-independent basis, Debye):
    X=            -22.0776    Y=             -7.2777    Z=            -44.6371  Tot=             50.3275
 Quadrupole moment (field-independent basis, Debye-Ang):
   XX=            -96.9803   YY=           -187.4511   ZZ=            215.0495
   XY=             27.0470   XZ=            209.0239   YZ=             79.6618
 Traceless Quadrupole moment (field-independent basis, Debye-Ang):
   XX=            -73.8530   YY=           -164.3238   ZZ=            238.1768
   XY=             27.0470   XZ=            209.0239   YZ=             79.6618
 Octapole moment (field-independent basis, Debye-Ang**2):
  XXX=           4129.1122  YYY=            969.1111  ZZZ=            656.9131  XYY=           1457.2635
  XXY=            253.1815  XXZ=            536.2088  XZZ=           -494.9644  YZZ=           -505.9068
  YYZ=           1292.9527  XYZ=           -326.8271
 Hexadecapole moment (field-independent basis, Debye-Ang**3):
 XXXX=         -76422.2749 YYYY=          -6808.7308 ZZZZ=         -40889.9393 XXXY=          -6074.2418
 XXXZ=         -29229.0243 YYYX=          -6397.8355 YYYZ=          -7433.2453 ZZZX=         -13293.4936
 ZZZY=            809.1101 XXYY=         -13770.5520 XXZZ=         -15917.6104 YYZZ=         -11352.6595
 XXYZ=          -1354.6701 YYXZ=          -9790.8285 ZZXY=           1325.6701
 N-N= 5.207524692693D+03 E-N=-1.485528054137D+04  KE= 1.900938758519D+03
  Exact polarizability:       0.000       0.000       0.000       0.000       0.000       0.000
 Approx polarizability:     456.063     -38.263     448.017      -1.637      45.266     468.969
 Calling FoFJK, ICntrl=    100127 FMM=F ISym2X=0 I1Cent= 0 IOpClX= 0 NMat=1 NMatS=1 NMatT=0.
 -------------------------------------------------------------------
 Center     Atomic                   Forces (Hartrees/Bohr)
 Number     Number              X              Y              Z
 -------------------------------------------------------------------
      1        7          -0.004858293    0.004679999   -0.011860924
      2        6          -0.019035591   -0.020502485    0.020786539
      3        6           0.013852502    0.005004083    0.017604842
      4        8          -0.004774026   -0.000998771   -0.009097285
      5        6          -0.003341331    0.003236108   -0.005406297
      6        6          -0.002648978   -0.006108641   -0.007703701
      7        7           0.003108774    0.001142710    0.002072541
      8        8          -0.008209660    0.015036700    0.006280713
      9        1          -0.006003195    0.003698280   -0.003828105
     10        1           0.003270564    0.002804259   -0.001796328
     11        1           0.000092767   -0.004759561    0.002189083
     12        1           0.000672598    0.000318653    0.003573004
     13        1          -0.003380906    0.002128816   -0.005538798
     14        1           0.000234285   -0.006640814   -0.002084383
     15        1           0.008821985   -0.000750180    0.001974548
     16        1           0.008996082    0.008356723    0.003460377
     17        7          -0.004125077    0.008613216    0.003190208
     18        6           0.000089465   -0.004022037    0.003270364
     19        6          -0.006253938    0.001895170    0.005012179
     20        8          -0.001158827   -0.007257152   -0.004496526
     21        6           0.000326760   -0.002339517    0.001585341
     22        6          -0.005040283   -0.000376540    0.001283818
     23        6           0.001816383    0.002853203    0.002191688
     24        6           0.000001813    0.001473860   -0.002521641
     25        6           0.004407687   -0.000006903    0.000969316
     26        6          -0.001577382   -0.001849265   -0.003304612
     27        6          -0.001125194    0.001090782    0.001530826
     28        1          -0.004278060   -0.007629159   -0.010828879
     29        1           0.002516659    0.001967972    0.002177634
     30        1          -0.000747288   -0.003497811   -0.002349248
     31        1           0.001988291   -0.002895015    0.002165590
     32        1          -0.000616610    0.000560456    0.002074012
     33        1          -0.001042286   -0.001353577   -0.000939178
     34        1           0.000117477    0.001113105    0.001573658
     35        1          -0.002257461    0.000392974   -0.000659741
     36        1          -0.000920871    0.000780352    0.000632102
     37        7           0.003760682   -0.003440336    0.000925030
     38        6          -0.009716958    0.009514093   -0.007818217
     39        6           0.004166398    0.001731995    0.001645705
     40        8           0.009702036   -0.014156385   -0.008743057
     41        6           0.002304982    0.002676393    0.000896282
     42        6           0.008778143    0.011922196    0.002367324
     43        7          -0.008485797   -0.005074159    0.002789859
     44        8          -0.004203462   -0.015923844   -0.007325548
     45        1           0.004367257   -0.000819916   -0.002296636
     46        1           0.001859787    0.004085988    0.000193896
     47        1           0.002576055   -0.000097919    0.004122809
     48        1           0.000538459    0.001985069    0.002689257
     49        1           0.005466880   -0.002453819   -0.004076646
     50        1           0.003159525    0.005589714   -0.000028526
     51        7          -0.000677028    0.028241356    0.016352897
     52        6          -0.010587261    0.000165606   -0.006446920
     53        6           0.022459194    0.014373651   -0.001962289
     54        8          -0.010613576   -0.025081295    0.028754510
     55        6           0.005440705    0.009150848   -0.005949213
     56        6          -0.000609274    0.000678379   -0.001836111
     57        6           0.001236209   -0.006131967   -0.006832945
     58        7          -0.000808116   -0.002660717    0.003225982
     59        6          -0.000485826   -0.002039676   -0.010797202
     60        7          -0.005588058    0.003242744    0.005218972
     61        7           0.004772310    0.000992516    0.001375506
     62        8          -0.012898506    0.000215579   -0.026952990
     63        1           0.005913405   -0.013921616    0.003107241
     64        1           0.001663018    0.003084027   -0.001881078
     65        1          -0.002216776   -0.000294381    0.000103754
     66        1           0.003446401   -0.000504116   -0.002697217
     67        1           0.001194744   -0.000587389   -0.000833845
     68        1           0.006181488    0.000447612    0.004411945
     69        1          -0.000875826   -0.000045468   -0.000408082
     70        1          -0.001013025   -0.001500837   -0.001542171
     71        1          -0.000926781    0.002559755   -0.001130314
     72        1           0.002531074   -0.001240828    0.001728615
     73        1           0.004236841   -0.000993278   -0.000762943
     74        1           0.000027220   -0.004299147    0.006946603
     75        1          -0.004995377    0.004449579    0.000283027
 -------------------------------------------------------------------
 Cartesian Forces:  Max     0.028754510 RMS     0.006836018
 FormGI is forming the generalized inverse of G from B-inverse, IUseBI=4.

 GradGradGradGradGradGradGradGradGradGradGradGradGradGradGradGradGradGrad
 Berny optimization.
 Internal  Forces:  Max     0.065419919 RMS     0.012014718
 Search for a local minimum.
 Step number   1 out of a maximum of  399
 All quantities printed in internal units (Hartrees-Bohrs-Radians)
 Mixed Optimization -- RFO/linear search
 Second derivative matrix not updated -- analytic derivatives used.
 ITU=  0
     Eigenvalues ---   -0.03867  -0.00931  -0.00687  -0.00352  -0.00196
     Eigenvalues ---    0.00007   0.00096   0.00250   0.00264   0.00280
     Eigenvalues ---    0.00442   0.00454   0.00551   0.00566   0.00586
     Eigenvalues ---    0.00711   0.00788   0.00876   0.00968   0.01118
     Eigenvalues ---    0.01306   0.01351   0.01517   0.01602   0.01692
     Eigenvalues ---    0.01715   0.01758   0.01773   0.01896   0.02022
     Eigenvalues ---    0.02101   0.02186   0.02363   0.02401   0.02474
     Eigenvalues ---    0.02641   0.02648   0.02755   0.02848   0.03036
     Eigenvalues ---    0.03118   0.03450   0.03688   0.03736   0.03858
     Eigenvalues ---    0.03988   0.04160   0.04265   0.04307   0.04372
     Eigenvalues ---    0.04403   0.04452   0.04495   0.04544   0.04592
     Eigenvalues ---    0.04608   0.04744   0.04781   0.04888   0.05007
     Eigenvalues ---    0.05063   0.05186   0.05316   0.05531   0.05798
     Eigenvalues ---    0.05943   0.06263   0.06417   0.06580   0.06787
     Eigenvalues ---    0.07164   0.07710   0.07755   0.07935   0.08291
     Eigenvalues ---    0.08363   0.08430   0.08504   0.08956   0.09389
     Eigenvalues ---    0.09575   0.11124   0.11171   0.11323   0.11398
     Eigenvalues ---    0.11604   0.11891   0.12217   0.12379   0.12535
     Eigenvalues ---    0.12591   0.12733   0.12808   0.12916   0.13047
     Eigenvalues ---    0.13161   0.13195   0.13533   0.13622   0.13909
     Eigenvalues ---    0.13964   0.14358   0.15098   0.15224   0.15377
     Eigenvalues ---    0.16046   0.16414   0.17700   0.18250   0.18504
     Eigenvalues ---    0.18872   0.19137   0.19416   0.19741   0.19956
     Eigenvalues ---    0.20239   0.20410   0.21246   0.21395   0.21727
     Eigenvalues ---    0.21894   0.22012   0.22473   0.22804   0.23106
     Eigenvalues ---    0.23120   0.23314   0.23413   0.23948   0.24477
     Eigenvalues ---    0.24837   0.25545   0.25973   0.26954   0.27577
     Eigenvalues ---    0.28118   0.28778   0.29221   0.29361   0.30000
     Eigenvalues ---    0.30333   0.30928   0.31919   0.32096   0.32976
     Eigenvalues ---    0.33090   0.33495   0.33757   0.33796   0.33951
     Eigenvalues ---    0.34070   0.34318   0.34455   0.34720   0.34741
     Eigenvalues ---    0.34815   0.34921   0.34953   0.35138   0.35213
     Eigenvalues ---    0.35379   0.35456   0.35557   0.35716   0.35911
     Eigenvalues ---    0.36110   0.36173   0.36534   0.36588   0.36648
     Eigenvalues ---    0.36802   0.37039   0.37882   0.38761   0.38912
     Eigenvalues ---    0.40634   0.42373   0.42490   0.43170   0.43243
     Eigenvalues ---    0.43618   0.44307   0.44519   0.44931   0.45434
     Eigenvalues ---    0.45996   0.46343   0.46526   0.46787   0.47502
     Eigenvalues ---    0.47740   0.48043   0.48105   0.48648   0.48997
     Eigenvalues ---    0.49577   0.49826   0.50091   0.50152   0.51076
     Eigenvalues ---    0.51637   0.52427   0.52636   0.53912   0.55126
     Eigenvalues ---    0.63125   0.65397   0.67271   0.73675   0.79808
     Eigenvalues ---    0.82397   0.82477   0.83369   0.87379   0.88946
     Eigenvalues ---    1.20548   2.06380   2.96160   9.53374
 RFO step:  Lambda=-4.50541885D-02 EMin=-3.86697979D-02
 Linear search not attempted -- first point.
 Maximum step size (   0.300) exceeded in Quadratic search.
    -- Step size scaled by   0.774
 Iteration  1 RMS(Cart)=  0.32493755 RMS(Int)=  0.01139026
 Iteration  2 RMS(Cart)=  0.09671696 RMS(Int)=  0.00104295
 Iteration  3 RMS(Cart)=  0.00232228 RMS(Int)=  0.00079232
 Iteration  4 RMS(Cart)=  0.00000388 RMS(Int)=  0.00079232
 Iteration  5 RMS(Cart)=  0.00000002 RMS(Int)=  0.00079232
 Variable       Old X    -DE/DX   Delta X   Delta X   Delta X     New X
                                 (Linear)    (Quad)   (Total)
    R1        2.78525   0.01917   0.00000   0.04251   0.04251   2.82776
    R2        1.92730   0.00779   0.00000   0.01131   0.01131   1.93860
    R3        1.92743   0.00542   0.00000   0.00721   0.00721   1.93464
    R4        1.93580  -0.00149   0.00000   0.01650   0.01650   1.95230
    R5        2.90498   0.01167   0.00000   0.01043   0.01043   2.91541
    R6        2.87670   0.00668   0.00000   0.00010   0.00010   2.87679
    R7        2.06705  -0.00143   0.00000  -0.00302  -0.00302   2.06402
    R8        2.32285  -0.00863   0.00000  -0.00199  -0.00199   2.32087
    R9        2.57055   0.01176   0.00000   0.00428   0.00428   2.57483
   R10        2.86258   0.01335   0.00000   0.01813   0.01813   2.88072
   R11        2.04412   0.00227   0.00000   0.00575   0.00575   2.04987
   R12        2.06233   0.00150   0.00000   0.00436   0.00436   2.06669
[...]
 2695,-0.00033947,-0.00000873,0.00001852,-0.00001314,-0.00001627,0.0000
 0336,-0.00000006,-0.00001381,0.00002059,0.00002024,0.00001214,0.000015
 38,0.00008838,0.00003745,-0.00000814,-0.00001093,0.00006990,-0.0000458
 7,-0.00019111,0.00005445,-0.00001968,0.00025502,-0.00007501,-0.0002887
 7,0.00068989,0.00002582,0.00062299,-0.00053753,-0.00010835,0.00005407,
 0.00028564,0.00055593,0.00044322,-0.00087165,-0.00281603,0.00153139,0.
 00088906,-0.00124551,0.00040161,-0.00344266,-0.00700085,-0.00251979,0.
 01852174,0.19224114,0.01558986,-0.23722153,-0.00481645,0.00053696,-0.0
 0078232,-0.00002812,0.00003518,-0.00033732,0.00008875,-0.00034018,0.00
 011561,0.00001611,0.00000044,-0.00006714,0.00001161,-0.00009938,-0.000
 00828,0.00008075,-0.00014644,-0.00002762,0.00002212,0.00010489,-0.0001
 0692,-0.00004309,0.00101236,-0.00004196,0.00058879,-0.00054629,-0.0000
 9860,0.00004093,-0.00114293,-0.00248935,0.00025972,-0.00018924,-0.0001
 3469,0.02594324,0.00257440,-0.00700648,-0.20418815,-0.01691212,0.23395
 312,-0.00010523,0.00005238,-0.00002832,0.00008776,0.00005157,-0.000006
 92,0.00003823,-0.00012511,-0.00011918,-0.00013086,0.00006277,0.0000473
 5,-0.00001735,0.00003801,-0.00001201,0.00005054,0.00000596,0.00007798,
 -0.00006066,-0.00002014,-0.00004366,-0.00004496,-0.00001407,-0.0000407
 5,0.00005402,-0.00000600,0.00003986,0.00000168,0.00002780,-0.00001003,
 0.00001859,0.00000320,0.00002293,0.00001423,0.00000643,-0.00002505,0.0
 0001520,0.00000285,0.00000007,0.00003019,0.00000681,-0.00000169,0.0000
 1962,-0.00002880,0.,0.00011002,-0.00008690,-0.00003096,-0.00051894,0.0
 0006985,0.00028070,0.00056186,0.00028551,-0.00019188,0.00022558,-0.007
 91745,0.00059463,-0.00244708,0.00585423,0.00096027,0.00046389,0.001125
 60,0.00100694,-0.00035087,-0.00029289,-0.00028786,0.00015291,-0.000096
 37,0.00006369,0.00000223,-0.00000069,0.00016500,0.00001645,-0.00000845
 ,-0.00007003,-0.00003738,-0.00002494,-0.00003718,0.00001014,-0.0000221
 9,-0.00001623,0.00020420,0.00022582,-0.00005917,-0.00029787,-0.0001207
 5,0.00006941,-0.00053936,0.00021586,0.00004645,-0.00000142,-0.00016577
 ,-0.00025183,-0.00000830,0.00001069,-0.00001541,-0.00002849,0.00006302
 ,-0.00009613,0.00002068,-0.00001286,-0.00001313,0.00001362,0.00000750,
 0.00000231,0.00000957,-0.00000647,-0.00001056,0.00189935,0.00279073,-0
 .00106624,-0.00010784,-0.00100670,-0.00023811,0.00048144,0.00010832,0.
 00043901,-0.00041867,0.00032518,-0.00028103,-0.00010291,0.00013787,-0.
 00006394,-0.00026858,-0.00028720,0.00026258,0.00016060,0.00013086,-0.0
 0019684,0.00023870,0.00020264,-0.00029501,-0.00044083,0.00003547,0.000
 36319,0.00003567,0.00013702,-0.00004453,-0.00004626,-0.00005929,-0.000
 00538,0.00008939,0.00004303,-0.00004815,-0.00000751,0.00000818,0.00003
 336,-0.00000895,-0.00002379,0.00001881,-0.00015429,-0.00004252,-0.0004
 2622,0.00020898,-0.00005235,0.00023237,0.00008586,-0.00003109,0.000693
 60,-0.00003047,0.00110242,0.00000047,-0.00012723,0.00006804,-0.0000129
 1,0.00008321,0.00016531,0.00018704,0.00144267,0.00019697,0.00049538,-0
 .00618348,-0.00092133,0.00415284,0.01631278,-0.00333981,0.03490551,-0.
 00138379,0.00011545,-0.00079180,-0.10081778,0.02721662,-0.11444412,-0.
 00018661,-0.00010110,-0.00026478,0.00003672,-0.00000251,0.00036039,-0.
 00002783,0.00000401,-0.00002820,-0.00000177,0.00000735,-0.00003764,0.0
 0002710,-0.00005238,-0.00000905,-0.00005095,-0.00011030,-0.00001748,-0
 .00003889,-0.00003091,-0.00004071,-0.00034007,-0.00009391,0.00036462,-
 0.00010499,0.00002381,0.00007153,-0.00048925,-0.00004427,0.00017139,-0
 .00351346,-0.00049397,0.00169904,0.00005795,0.00003852,-0.00031285,0.0
 9926609,-0.00011415,0.00011771,-0.00009782,0.00004141,-0.00002131,0.00
 005999,0.00017607,-0.00071543,-0.00024171,-0.00007020,0.00039963,0.000
 17779,-0.00004339,0.00006824,-0.00002661,0.00013647,-0.00002706,0.0001
 9957,-0.00011106,-0.00002817,-0.00012615,-0.00008869,0.00001029,-0.000
 10814,0.00009200,-0.00002582,0.00007418,0.00000025,0.00002168,-0.00001
 817,0.00002770,0.00000923,0.00001275,0.00001757,0.00000414,0.00001452,
 0.00002499,-0.00000275,0.00000766,0.00004255,0.00002733,0.00001610,0.0
 0002294,-0.00008529,0.00002086,0.00008750,-0.00009824,-0.00000584,-0.0
 0039496,0.00040999,0.00001935,0.00046262,-0.00040608,0.00022430,-0.001
 97739,-0.00796166,-0.00001803,0.00119562,0.00273721,0.00153734,-0.0003
 5955,-0.00033757,-0.00044154,0.00026169,-0.00007125,0.00022732,-0.0002
 0462,0.00007267,-0.00002602,-0.00008889,0.00001212,0.00009629,0.000002
 93,-0.00001765,0.00001962,-0.00000510,-0.00000291,0.00002302,-0.000035
 41,0.00001523,-0.00000096,0.00025430,-0.00026917,0.00026746,-0.0001862
 1,0.00007088,-0.00003263,0.00104248,0.00030300,-0.00063528,0.00006912,
 0.00022724,0.00023350,0.00002367,0.00000854,-0.00003657,0.00007793,0.0
 0003534,-0.00000060,-0.00001535,0.00002661,0.00001104,-0.00002234,0.00
 002905,-0.00001400,-0.00000949,0.00001520,-0.00000054,0.00174685,0.001
 88360,-0.00102647,-0.00015685,-0.00090775,-0.00017205,0.00031166,-0.00
 002564,0.00032051,-0.00031836,0.00036893,-0.00026498,-0.00010775,0.000
 08027,-0.00006368,-0.00031762,-0.00025261,0.00028523,0.00021022,0.0001
 1366,-0.00019535,0.00033313,0.00015024,-0.00027201,-0.00046610,0.00012
 239,0.00025527,0.00000025,0.00010752,-0.00003370,-0.00003020,-0.000047
 62,-0.00000231,0.00007520,0.00003645,-0.00004616,-0.00003265,0.0000176
 0,0.00001873,-0.00002924,-0.00002444,0.00001301,-0.00005583,0.00000919
 ,-0.00035475,0.00005786,0.00009248,0.00036465,0.00002521,0.00026240,-0
 .00000023,-0.00035876,-0.00158312,-0.00107297,-0.00008307,-0.00005169,
 -0.00000967,0.00035297,-0.00006512,-0.00057026,0.00022465,0.00292801,0
 .00093526,-0.00108407,0.00329287,-0.00064005,-0.00353540,-0.00510037,0
 .00941044,0.00154107,-0.00311314,-0.00026288,0.01975108,-0.02092991,-0
 .00863450,-0.00016571,-0.00018578,-0.00030664,-0.00016879,-0.00008131,
 0.00037876,-0.00000600,0.00002569,-0.00003234,0.00000441,-0.00000851,-
 0.00003432,0.00000120,-0.00000525,0.00002029,0.00011112,0.00015154,-0.
 00001995,-0.00003385,-0.00000830,-0.00000491,-0.00020181,-0.00000787,0
 .00016678,-0.00016317,-0.00006965,0.00026981,-0.00003504,-0.00121416,-
 0.00041928,-0.00013017,0.00278629,0.00015639,0.00016575,-0.00116983,0.
 00000886,-0.01998820,0.02572484,-0.00006453,0.00005801,-0.00016812,0.0
 0000979,-0.00001215,0.00014615,0.00004976,-0.00044736,-0.00011053,-0.0
 0009926,0.00026219,-0.00007653,-0.00002468,0.00002764,-0.00001603,0.00
 007405,0.00018066,0.00025565,-0.00002249,-0.00010455,-0.00021277,-0.00
 003356,-0.00018070,-0.00015288,0.00009978,0.00000680,0.00009764,-0.000
 00966,-0.00001408,-0.00002843,0.00003990,0.00006566,0.00001707,-0.0000
 6055,0.00004590,0.00008058,-0.00001289,-0.00000969,-0.00000315,-0.0001
 1621,0.00016415,0.00004411,0.00001531,-0.00006722,0.00004906,-0.000017
 89,0.00001786,0.00006118,-0.00015816,0.00035851,-0.00043099,0.00044495
 ,-0.00010546,0.00112432,-0.00037656,-0.00764972,0.00057135,-0.00081083
 ,0.00524614,-0.00210144,-0.00034107,-0.00033229,-0.00079942,0.00047721
 ,0.00005470,0.00011521,-0.00025414,0.00011707,-0.00003752,-0.00007209,
 0.00015038,0.00021079,0.00001110,-0.00002325,0.00002270,-0.00002006,0.
 00001765,-0.00003816,-0.00003939,0.00003199,-0.00000398,0.00002412,0.0
 0043778,0.00084365,-0.00013536,0.00010843,-0.00006723,0.00117393,-0.00
 068534,-0.00016065,0.00003269,-0.00001743,-0.00021764,0.00001493,-0.00
 001914,-0.00004719,0.00000206,-0.00003753,0.00001493,-0.00002551,0.000
 02487,0.00001545,-0.00004909,0.00002204,-0.00000702,-0.00001848,0.0000
 0692,-0.00000128,0.00201283,0.00312096,-0.00160693,-0.00004617,-0.0009
 3958,-0.00024107,0.00042363,0.00089158,0.00105452,-0.00017551,-0.00021
 485,-0.00048807,-0.00009982,0.00012799,-0.00013080,-0.00015990,0.00013
 462,0.00033615,0.00005341,-0.00001771,-0.00016407,0.00014629,-0.000193
 29,-0.00048229,-0.00033058,0.00019118,0.00058541,-0.00001477,0.0000848
 1,-0.00004302,-0.00005838,-0.00006158,-0.00000272,0.00011730,0.0000383
 5,-0.00004676,0.00002348,0.00002377,0.00002991,0.00000036,-0.00000900,
 0.00003779,-0.00029982,-0.00043764,-0.00088192,0.00015714,0.00004401,0
 .00048155,0.00013846,0.00062407,-0.00099112,0.00020802,-0.00203234,0.0
 0013649,-0.00018255,0.00004145,-0.00003545,0.00002031,0.00017323,0.000
 13125,-0.00025943,0.00011617,-0.00047926,0.00295065,-0.00094996,0.0032
 3197,-0.00162065,0.00078795,-0.02796657,-0.00492560,0.00012046,0.00125
 045,-0.09757600,0.02183848,-0.39447684,0.00017087,-0.00042419,0.000281
 30,0.00018950,0.00039300,0.00035009,-0.00002718,-0.00002004,-0.0000090
 0,0.00004313,-0.00000407,-0.00007083,-0.00000287,-0.00007352,0.0000318
 3,-0.00006628,-0.00010992,0.00005545,0.00003992,0.00007988,-0.00000154
 ,0.00005840,-0.00001542,-0.00000051,-0.00011012,-0.00008973,0.00010383
 ,-0.00018526,0.00002543,-0.00018774,0.00082997,0.00039990,0.00261357,-
 0.00025433,0.00052921,-0.00026120,0.09881368,-0.02221644,0.41649437,-0
 .00013728,-0.00001723,-0.00006468,0.00007048,0.00009354,0.00007313,0.0
 0011446,-0.00001902,-0.00000793,-0.00015767,-0.00000573,-0.00006058,0.
 00003659,0.00002030,0.00001562,-0.00001264,0.00021590,0.00003539,-0.00
 011295,-0.00011134,-0.00000835,-0.00000155,-0.00021136,-0.00004438,0.0
 0007531,0.00002591,0.00006003,-0.00000190,0.00001567,-0.00001354,0.000
 04697,0.00005184,-0.00001518,-0.00003588,0.00014429,0.00003940,0.00002
 155,0.00001047,-0.00003404,0.00006221,0.00012764,-0.00006523,0.0000116
 8,-0.00001353,0.00001148,0.00013663,-0.00006688,-0.00003878,-0.0003808
 8,-0.00004558,-0.00018710,0.00024349,-0.00012924,-0.00010151,-0.000069
 65,-0.00196430,-0.00031875,0.00002716,0.00138358,0.00098022,-0.0000435
 9,0.00013186,0.00007954,0.00020790,-0.00016477,-0.00005963,-0.00010138
 ,0.00003881,-0.00000779,-0.00002728,0.00024293,0.00057430,0.00000970,-
 0.00002318,-0.00002370,-0.00008870,-0.00005112,-0.00018245,0.00000608,
 -0.00000746,-0.00000727,0.00038762,0.00021056,0.00062016,-0.00009616,0
 .00000444,-0.00001781,0.00032450,0.00001677,-0.00002637,-0.00002768,-0
 .00002438,-0.00006255,-0.00000764,-0.00000981,-0.00005497,-0.00014376,
 0.00008698,0.00001379,-0.00000352,-0.00000091,-0.00001450,-0.00003317,
 0.00003463,0.00001537,0.00000855,-0.00001688,-0.00002868,0.00031046,0.
 00058324,0.00000189,0.00001251,-0.00031035,-0.00001486,0.00020470,-0.0
 0022547,-0.00007051,-0.00033010,0.00034368,-0.00003575,-0.00002161,0.0
 0008209,-0.00000425,-0.00011245,-0.00047008,-0.00000971,0.00011252,0.0
 0017416,-0.00008426,0.00012912,0.00042668,0.00010143,-0.00015393,-0.00
 012048,-0.00007445,0.00001764,0.00005155,-0.00001784,-0.00002549,-0.00
 001338,-0.00000066,0.00002059,0.00002364,-0.00000660,-0.00002386,-0.00
 001923,0.00000982,0.00000183,-0.00002056,-0.00000427,-0.00014817,0.000
 05619,0.00025296,-0.00028545,-0.00004270,0.00123620,-0.00011350,0.0003
 2242,-0.00405555,-0.00400711,-0.00189927,0.00289417,-0.00005547,-0.000
 52881,-0.00010408,0.00000260,-0.00025015,-0.00014822,-0.00118717,-0.00
 141024,0.00100901,0.00051583,0.00095957,-0.00778033,-0.03770466,0.0132
 7540,0.00857734,0.00359951,0.00098028,0.00486276,-0.22457380,0.1680479
 1,-0.03748375,-0.00039664,-0.00063860,0.00062138,-0.00011386,-0.000472
 31,-0.00003571,-0.00010070,0.00000493,0.00001587,0.00004021,0.00000776
 ,-0.00004650,-0.00014842,0.00015894,0.00019045,0.00006580,0.00021041,-
 0.00005016,-0.00005991,-0.00001144,0.00002838,0.00023401,0.00003993,-0
 .00028749,0.00036765,0.00013723,-0.00040840,0.00200955,0.00069398,0.00
 047919,0.00022385,0.00016217,-0.00065743,-0.00096813,0.00004154,-0.000
 12496,-0.00310651,0.00222301,0.00029075,0.26546092,0.00005869,0.000176
 46,0.00020508,-0.00009348,-0.00014297,-0.00024973,0.00014829,-0.000666
 57,-0.00035190,0.00025090,0.00039083,0.00062101,-0.00006499,0.00026179
 ,-0.00007311,0.00023771,-0.00075516,-0.00000392,-0.00028568,0.00033207
 ,0.00016732,-0.00015896,0.00073993,0.00010140,-0.00009014,-0.00011054,
 -0.00010766,0.00003162,0.00009747,0.00005860,-0.00024507,-0.00030695,0
 .00006354,0.00041269,-0.00022034,-0.00026029,0.00008988,0.00003987,0.0
 0008696,0.00062798,-0.00060656,-0.00004819,0.00001048,-0.00003747,-0.0
 0006076,0.00001636,-0.00015821,-0.00007339,0.00002685,0.00061104,0.001
 29486,-0.00028345,0.00043852,-0.00066360,-0.00005508,0.00282563,-0.000
 70861,-0.00013491,-0.00306430,-0.00113097,0.00017101,0.00001728,0.0002
 5046,-0.00017016,-0.00001518,-0.00001990,0.00005290,-0.00004241,0.0000
 0126,-0.00012870,-0.00028627,-0.00012423,-0.00001126,-0.00000587,-0.00
 001288,0.00003999,-0.00006340,0.00012322,0.00000457,-0.00001509,0.0000
 0240,-0.00020474,-0.00171927,-0.00267016,0.00004514,-0.00005900,0.0001
 2958,-0.00002326,0.00025229,-0.00020959,-0.00002206,0.00000160,0.00013
 994,0.00001270,0.00002458,0.00001017,0.00030442,0.00024416,-0.00015866
 ,0.00000847,0.00000772,0.00000209,0.00003711,0.00002583,-0.00001911,0.
 00000503,0.00002178,0.00000341,-0.00061618,-0.00107159,0.00072433,-0.0
 0012211,0.00052510,-0.00009243,-0.00034473,-0.00138835,-0.00104812,0.0
 0016292,0.00064475,0.00037346,-0.00000658,-0.00016481,0.00008886,-0.00
 014638,0.00034607,0.00009132,0.00008267,-0.00013770,0.00003664,0.00012
 229,-0.00037717,-0.00003112,-0.00000276,0.00012439,-0.00003834,0.00001
 705,-0.00007063,0.00006026,0.00009415,0.00001992,-0.00000124,-0.000057
 46,-0.00003282,-0.00001637,-0.00004467,0.00003793,-0.00002285,-0.00006
 283,0.00000052,-0.00001441,0.00094192,0.00086826,0.00038843,0.00022295
 ,-0.00038611,-0.00214639,0.00056913,-0.00372996,0.01960820,0.00223836,
 0.00503741,-0.01120607,0.00021596,0.00092861,0.00052494,-0.00025181,0.
 00032860,0.00011675,0.00081031,0.00011010,-0.00072676,-0.00084367,-0.0
 0312597,0.00251102,-0.00862737,0.00622759,-0.00817128,-0.00475680,-0.0
 0016961,0.00391845,0.20184034,-0.17008219,0.04249632,-0.00302333,0.000
 19890,-0.00693328,-0.00071722,0.00031969,0.00010724,0.00016928,0.00003
 958,-0.00003125,-0.00016324,-0.00005692,0.00017563,0.00035995,-0.00019
 436,-0.00040147,0.00001110,-0.00031910,-0.00003977,0.00001458,-0.00003
 898,0.00003996,-0.00013443,-0.00000401,0.00019458,-0.00001742,-0.00018
 106,0.00000378,0.00012418,0.00274473,-0.00099383,0.00061064,0.00035040
 ,0.00080642,-0.00140039,0.00103116,-0.00026250,-0.00534222,0.00214708,
 0.00032329,-0.18254703,0.16126726,-0.00004471,-0.00000143,-0.00014317,
 0.00001148,-0.00000121,0.00014220,0.00008413,-0.00029937,0.00003447,-0
 .00005856,0.00014117,-0.00009057,0.00000656,-0.00008882,0.00002240,0.0
 0003053,0.00029353,0.00018604,0.00002821,-0.00015810,-0.00018508,0.000
 00694,-0.00029343,-0.00012831,0.00008302,0.00002641,0.00008547,-0.0000
 1098,-0.00004284,-0.00002813,0.00011090,0.00011704,-0.00004486,-0.0001
 5404,0.00006081,0.00013563,-0.00002067,-0.00001239,-0.00002348,-0.0002
 0789,0.00026522,0.00004781,0.00000207,-0.00003219,0.00004195,-0.000014
 24,0.00004414,0.00004875,0.00000820,0.00018643,-0.00079530,-0.00010347
 ,-0.00043029,0.00021129,-0.00066066,-0.00025942,-0.00003106,0.00010480
 ,-0.00058860,-0.00030805,-0.00015396,-0.00082758,-0.00056242,0.0002556
 1,0.00008042,0.00017612,-0.00013905,0.00006711,-0.00003662,-0.00008366
 ,-0.00002121,-0.00030404,-0.00001159,0.00000289,0.00003942,0.00006346,
 0.00005217,0.00011735,-0.00005473,0.00004478,0.00001216,-0.00014614,-0
 .00021798,0.00147883,0.00005670,0.00008918,-0.00008220,0.00004550,0.00
 045829,-0.00003829,0.00005995,0.00026290,0.00025582,0.00001172,-0.0000
 0706,-0.00000205,0.00017105,-0.00011344,0.00012816,-0.00001921,0.00001
 807,0.00001493,-0.00003747,0.00000581,-0.00000665,-0.00001503,0.000015
 94,0.00001942,0.00017046,0.00000764,-0.00010313,0.00003164,-0.00017466
 ,0.00010743,0.00005699,0.00044395,0.00037943,-0.00002205,-0.00019281,-
 0.00016511,0.00000033,0.00004717,-0.00003859,-0.00001417,-0.00020670,0
 .00002178,0.00002594,0.00009153,-0.00006548,0.00002399,0.00022241,-0.0
 0000842,-0.00003609,-0.00005581,-0.00004955,-0.00002758,0.00001853,-0.
 00002459,-0.00003000,-0.00000580,0.00000056,0.00001964,0.00001449,0.00
 000476,0.00000787,-0.00001054,0.00001734,0.00001584,-0.00000560,0.0000
 0717,-0.00030796,-0.00030169,-0.00018448,-0.00018838,0.00036676,0.0006
 0361,0.00163361,0.00426987,-0.00594595,-0.00154724,-0.00645219,-0.0017
 8545,-0.00006174,-0.00030135,-0.00017828,-0.00003657,-0.00016043,-0.00
 000989,-0.00005052,0.00024288,0.00010756,-0.00025475,0.00100535,-0.003
 63477,0.01722316,-0.02118576,0.01435426,0.00443189,0.00156796,-0.00262
 130,-0.02594528,0.03658327,-0.08441007,0.00042532,-0.00102301,0.001305
 38,0.00015188,-0.00021381,0.00004017,-0.00000019,0.00003667,-0.0000238
 5,0.00005408,0.00002484,-0.00008774,-0.00012331,0.00005444,0.00011181,
 0.00001326,0.00007908,-0.00003556,-0.00005329,-0.00004628,-0.00003555,
 0.00000818,-0.00003380,-0.00003872,-0.00007220,0.00004307,-0.00000844,
 0.00125418,-0.00038238,-0.00329242,0.00030886,-0.00010531,-0.00057789,
 0.00049737,0.00098820,0.00079181,-0.02664943,0.02263989,0.00237289,0.0
 2986148,-0.03672701,0.08271135\\-0.00000939,-0.00000291,0.00000966,0.0
 0000407,0.00002077,0.00000600,-0.00000680,-0.00000466,-0.00001343,0.00
 000298,-0.00000148,0.00000333,0.00000381,0.00000502,0.00000206,0.00000
 279,-0.00000905,-0.00000978,-0.00000109,0.00000398,0.00000234,-0.00000
 415,0.00000166,0.00000104,-0.00000079,-0.00000094,0.00000448,-0.000000
 42,-0.00000214,0.00000056,0.00000254,-0.00000640,0.00000165,-0.0000019
 2,0.00000199,-0.00000384,0.00000144,0.00000128,0.00000278,0.00000016,0
 .00000251,0.00000278,0.00000360,-0.00000082,-0.00000163,-0.00000574,0.
 00000616,0.00000258,0.00000986,-0.00000312,-0.00000342,-0.00000246,0.0
 0000631,0.00000241,-0.00000080,0.00001012,-0.00000063,0.00000130,0.000
 00046,0.00000436,0.00000049,-0.00000067,-0.00000211,-0.00000101,-0.000
 00254,-0.00000037,0.00000018,-0.00000114,-0.00000071,0.00000027,-0.000
 00081,0.00000063,-0.00000029,-0.00000044,-0.00000057,0.00000059,0.0000
 0067,0.00000014,0.,-0.00000010,-0.00000066,-0.00000093,0.00000005,0.00
 000283,-0.00000173,-0.00000181,0.00000122,-0.00000021,0.00000032,-0.00
 000032,-0.00000092,0.00000005,-0.00000080,-0.00000014,-0.00000137,-0.0
 0000033,-0.00000056,0.00000030,0.00000053,0.00000014,-0.00000111,-0.00
 000013,0.00000020,0.00000026,0.00000025,0.00000029,-0.00000033,0.00000
 014,0.00000219,-0.00000257,-0.00000337,0.00000471,-0.00000578,0.000003
 54,0.00000675,-0.00000324,0.00000143,0.00000948,-0.00000584,-0.0000011
 4,-0.00000061,-0.00000065,0.00000025,-0.00000166,-0.00000315,0.0000007
 4,0.00000052,-0.00000029,-0.00000091,0.00000203,0.00000394,0.00000248,
 -0.00000426,-0.00000253,-0.00000042,0.00000032,-0.00000242,0.00000177,
 -0.00000039,-0.00000138,-0.00000050,0.00000041,-0.00000137,0.00000041,
 -0.00000048,-0.00000007,0.00000123,-0.00000024,-0.00000159,0.00000095,
 -0.00000886,-0.00000343,-0.00000396,-0.00000046,0.00000088,0.00000213,
 0.00000062,0.00000142,-0.00000285,0.00000204,0.00000191,-0.00000511,-0
 .00000120,-0.00000148,0.00000117,-0.00000173,0.00000047,-0.00000012,0.
 00000247,0.,-0.00000107,-0.00000393,0.00000100,-0.00000274,0.00000512,
 -0.00000275,0.00000029,0.00000117,-0.00000020,-0.00000647,-0.00000092,
 -0.00000490,-0.00000438,0.00000447,0.00000279,0.00000445,0.00000064,0.
 00000306,-0.00000247,-0.00000189,0.00000042,0.00000162,-0.00000043,0.0
 0000145,0.00000061,0.00000014,0.00000013,0.00000043,0.00000026,0.00000
 131,0.00000029,-0.00000235,-0.00000015,-0.00000254,-0.00000028,0.00000
 099,-0.00000054,-0.00000058,0.00000104,0.00000012,0.00000050,0.0000008
 4,0.00000090,-0.00000532,0.00000128,0.00000399,-0.00000233,-0.00000120
 ,-0.00000087,-0.00000065,-0.00000034,-0.00000449,-0.00000063,0.0000023
 3,0.00000212\\\@
 The archive entry for this job was punched.


 ALL PAPERS THAT YOU SAVE WILL NEVER BE NEEDED UNTIL
 SUCH TIME AS THEY ARE DISPOSED OF, WHEN THEY BECOME
 ESSENTIAL.

           -- JOHN CORCORAN IN
              PAUL DICKSON'S "THE OFFICIAL RULES"
 Job cpu time:       0 days  8 hours  9 minutes 59.5 seconds.
 Elapsed time:       0 days  1 hours  1 minutes 17.9 seconds.
 File lengths (MBytes):  RWF=   3960 Int=      0 D2E=      0 Chk=     48 Scr=     16
 Normal termination of Gaussian 16 at Tue May 31 21:32:06 2022.
