 Entering Gaussian System, Link 0=/opt/software/Gaussian/g16-AVX2-C.01/g16/g16
 Input=opt_freq-conf-746.com
 Output=opt_freq-conf-746.log
 Initial command:
 /opt/software/Gaussian/g16-AVX2-C.01/g16/l1.exe "/mnt/gs18/scratch/users/kengmith/Gau-60660.inp" -scrdir="/mnt/gs18/scratch/users/kengmith/"
 Entering Link 1 = /opt/software/Gaussian/g16-AVX2-C.01/g16/l1.exe PID=     60670.
  
 Copyright (c) 1988-2019, Gaussian, Inc.  All Rights Reserved.
  
 This is part of the Gaussian(R) 16 program.  It is based on
 the Gaussian(R) 09 system (copyright 2009, Gaussian, Inc.),
 the Gaussian(R) 03 system (copyright 2003, Gaussian, Inc.),
 the Gaussian(R) 98 system (copyright 1998, Gaussian, Inc.),
 the Gaussian(R) 94 system (copyright 1995, Gaussian, Inc.),
 the Gaussian 92(TM) system (copyright 1992, Gaussian, Inc.),
 the Gaussian 90(TM) system (copyright 1990, Gaussian, Inc.),
 the Gaussian 88(TM) system (copyright 1988, Gaussian, Inc.),
 the Gaussian 86(TM) system (copyright 1986, Carnegie Mellon
 University), and the Gaussian 82(TM) system (copyright 1983,
 Carnegie Mellon University). Gaussian is a federally registered
 trademark of Gaussian, Inc.
  
 This software contains proprietary and confidential information,
 including trade secrets, belonging to Gaussian, Inc.
  
 This software is provided under written license and may be
 used, copied, transmitted, or stored only in accord with that
 written license.
  
 The following legend is applicable only to US Government
 contracts under FAR:
  
                    RESTRICTED RIGHTS LEGEND
  
 Use, reproduction and disclosure by the US Government is
 subject to restrictions as set forth in subparagraphs (a)
 and (c) of the Commercial Computer Software - Restricted
 Rights clause in FAR 52.227-19.
  
 Gaussian, Inc.
 340 Quinnipiac St., Bldg. 40, Wallingford CT 06492
  
  
 ---------------------------------------------------------------
 Warning -- This program may not be used in any manner that
 competes with the business of Gaussian, Inc. or will provide
 assistance to any competitor of Gaussian, Inc.  The licensee
 of this program is prohibited from giving any competitor of
 Gaussian, Inc. access to this program.  By using this program,
 the user acknowledges that Gaussian, Inc. is engaged in the
 business of creating and licensing software in the field of
 computational chemistry and represents and warrants to the
 licensee that it is not a competitor of Gaussian, Inc. and that
 it will not use this program in any manner prohibited above.
 ---------------------------------------------------------------
  

 Cite this work as:
 Gaussian 16, Revision C.01,
 M. J. Frisch, G. W. Trucks, H. B. Schlegel, G. E. Scuseria, 
 M. A. Robb, J. R. Cheeseman, G. Scalmani, V. Barone, 
 G. A. Petersson, H. Nakatsuji, X. Li, M. Caricato, A. V. Marenich, 
 J. Bloino, B. G. Janesko, R. Gomperts, B. Mennucci, H. P. Hratchian, 
 J. V. Ortiz, A. F. Izmaylov, J. L. Sonnenberg, D. Williams-Young, 
 F. Ding, F. Lipparini, F. Egidi, J. Goings, B. Peng, A. Petrone, 
 T. Henderson, D. Ranasinghe, V. G. Zakrzewski, J. Gao, N. Rega, 
 G. Zheng, W. Liang, M. Hada, M. Ehara, K. Toyota, R. Fukuda, 
 J. Hasegawa, M. Ishida, T. Nakajima, Y. Honda, O. Kitao, H. Nakai, 
 T. Vreven, K. Throssell, J. A. Montgomery, Jr., J. E. Peralta, 
 F. Ogliaro, M. J. Bearpark, J. J. Heyd, E. N. Brothers, K. N. Kudin, 
 V. N. Staroverov, T. A. Keith, R. Kobayashi, J. Normand, 
 K. Raghavachari, A. P. Rendell, J. C. Burant, S. S. Iyengar, 
 J. Tomasi, M. Cossi, J. M. Millam, M. Klene, C. Adamo, R. Cammi, 
 J. W. Ochterski, R. L. Martin, K. Morokuma, O. Farkas, 
 J. B. Foresman, and D. J. Fox, Gaussian, Inc., Wallingford CT, 2019.
 
 ******************************************
 Gaussian 16:  ES64L-G16RevC.01  3-Jul-2019
                31-May-2022 
 ******************************************
 %mem=12gb
 %nproc=8
 Will use up to    8 processors via shared memory.
 %chk=conf-746.chk
 ----------------------------------------------------------------------
 # B3LYP/6-31G* empiricaldispersion=gd3 opt=calcfc freq=noraman nosymm 
 integral(ultrafinegrid)
 ----------------------------------------------------------------------
 1/10=4,18=20,19=15,26=4,38=1/1,3;
 2/9=110,12=2,15=1,17=6,18=5,40=1/2;
 3/5=1,6=6,7=1,11=2,25=1,30=1,71=2,74=-5,75=-5,124=31,140=1/1,2,3;
 4//1;
 5/5=2,38=5/2;
 8/6=4,10=90,11=11/1;
 11/6=1,8=1,9=11,15=111,16=1,31=1/1,2,10;
 10/6=1,13=1,31=1/2;
 6/7=2,8=2,9=2,10=2,28=1/1;
 7/10=1,25=1,30=1/1,2,3,16;
 1/10=4,18=20,19=15,26=4/3(2);
 2/9=110,15=1/2;
 99//99;
 2/9=110,15=1/2;
 3/5=1,6=6,7=1,11=2,25=1,30=1,71=1,74=-5,75=-5,124=31/1,2,3;
 4/5=5,16=3,69=1/1;
 5/5=2,38=5/2;
 7/30=1/1,2,3,16;
 1/18=20,19=15,26=4/3(-5);
 2/9=110,15=1/2;
 6/7=2,8=2,9=2,10=2,19=2,28=1/1;
 99/9=1/99;
 ------------------------------------------------------------
 Candidate Structure: Conf:746 OPT and FREQ calc in gas phase
 ------------------------------------------------------------
 Symbolic Z-matrix:
 Charge =  1 Multiplicity = 1
 N                    -6.12718  -2.79244  -10.52076 
 C                    -7.25631  -3.41056  -9.80189 
 C                    -8.25588  -2.32921  -9.38578 
 O                    -8.99203  -1.83954  -10.24931 
 C                    -6.75898  -4.29226  -8.67296 
 C                    -5.98661  -5.47377  -9.23756 
 N                    -5.287    -6.20135  -8.32629 
 O                    -6.00314  -5.75049  -10.4277 
 H                    -6.39858  -1.92319  -10.99211 
 H                    -7.79201  -4.04442  -10.51381 
 H                    -6.13956  -3.73736  -7.98233 
 H                    -7.60661  -4.67854  -8.1015 
 H                    -4.77157  -6.99826  -8.65638 
 H                    -5.27675  -5.95949  -7.35282 
 H                    -5.37355  -2.56098  -9.84293 
 H                    -5.75926  -3.46946  -11.19273 
 N                    -8.29385  -1.97247  -8.07723 
 C                    -9.40779  -1.20432  -7.56808 
 C                    -8.95885  -0.02096  -6.70821 
 O                    -9.02038  -0.05876  -5.48459 
 C                    -10.36991  -2.09399  -6.77369 
 C                    -10.8695  -3.25057  -7.58895 
 C                    -11.80571  -3.0523   -8.60462 
 C                    -10.36542  -4.53398  -7.38779 
 C                    -12.2304  -4.11222  -9.403 
 C                    -10.77011  -5.5934   -8.19386 
 C                    -11.70867  -5.38826  -9.20189 
 H                    -7.49275  -2.13697  -7.48858 
 H                    -9.93354  -0.82664  -8.44536 
 H                    -9.8476   -2.44949  -5.88431 
 H                    -11.19787  -1.47124  -6.43193 
 H                    -12.18679  -2.04823  -8.77163 
 H                    -9.64258  -4.7038   -6.59704 
 H                    -12.96251  -3.93654  -10.18296 
 H                    -10.35845  -6.58131  -8.02712 
 H                    -12.03069  -6.21561  -9.82332 
 N                    -8.55807   1.1003   -7.35886 
 C                    -8.00653   1.13121  -8.69887 
 C                    -6.60158   0.51519  -8.77809 
 O                    -6.27563  -0.17268  -9.73622 
 C                    -8.02079   2.55614  -9.25737 
 C                    -7.1331    3.52116  -8.48323 
 N                    -6.59685   4.53147  -9.20368 
 O                    -6.93557   3.38608  -7.28053 
 H                    -8.26525   1.83814  -6.73114 
 H                    -8.60808   0.48758  -9.33844 
 H                    -9.04563   2.92658  -9.19365 
 H                    -7.73877   2.54577  -10.31296 
 H                    -6.00631   5.19021  -8.72587 
 H                    -6.78037   4.64049  -10.18443 
 N                    -5.75875   0.77902  -7.75989 
 C                    -4.55616   0.00615  -7.55801 
 C                    -4.93365  -1.51949  -7.64205 
 O                    -5.79402  -1.88307  -6.81797 
 C                    -3.97247   0.31552  -6.17873 
 C                    -2.98532  -0.7492   -5.67415 
 C                    -3.32514  -1.24207  -4.26826 
 N                    -4.67529  -1.86136  -4.21473 
 C                    -5.78163  -1.30387  -3.71199 
 N                    -5.73669  -0.20216  -2.91806 
 N                    -6.99413  -1.82672  -3.98252 
 O                    -4.31528  -2.18423  -8.46783 
 H                    -6.00146   1.49668  -7.09677 
 H                    -3.83515   0.19267  -8.35813 
 H                    -3.50354   1.30072  -6.20333 
 H                    -4.81397   0.4033   -5.48652 
 H                    -2.96234  -1.5982   -6.35614 
 H                    -1.97162  -0.34093  -5.67196 
 H                    -2.61485  -2.01425  -3.97056 
 H                    -3.24027  -0.43057  -3.54305 
 H                    -4.87719  -2.40203  -5.05113 
 H                    -6.52168  -0.0934   -2.28793 
 H                    -4.84299   0.01633  -2.49268 
 H                    -7.74378  -1.15642  -4.14992 
 H                    -7.00298  -2.58121  -4.65833 
 

 GradGradGradGradGradGradGradGradGradGradGradGradGradGradGradGradGradGrad
 Berny optimization.
 Initialization pass.
                           ----------------------------
                           !    Initial Parameters    !
                           ! (Angstroms and Degrees)  !
 --------------------------                            --------------------------
 ! Name  Definition              Value          Derivative Info.                !
 --------------------------------------------------------------------------------
 ! R1    R(1,2)                  1.4744         calculate D2E/DX2 analytically  !
 ! R2    R(1,9)                  1.0254         calculate D2E/DX2 analytically  !
 ! R3    R(1,15)                 1.0397         calculate D2E/DX2 analytically  !
 ! R4    R(1,16)                 1.0224         calculate D2E/DX2 analytically  !
 ! R5    R(2,3)                  1.5302         calculate D2E/DX2 analytically  !
 ! R6    R(2,5)                  1.5163         calculate D2E/DX2 analytically  !
 ! R7    R(2,10)                 1.0934         calculate D2E/DX2 analytically  !
 ! R8    R(3,4)                  1.2359         calculate D2E/DX2 analytically  !
 ! R9    R(3,17)                 1.3568         calculate D2E/DX2 analytically  !
 ! R10   R(5,6)                  1.5203         calculate D2E/DX2 analytically  !
 ! R11   R(5,11)                 1.081          calculate D2E/DX2 analytically  !
 ! R12   R(5,12)                 1.0928         calculate D2E/DX2 analytically  !
 ! R13   R(6,7)                  1.3599         calculate D2E/DX2 analytically  !
 ! R14   R(6,8)                  1.222          calculate D2E/DX2 analytically  !
 ! R15   R(7,13)                 1.0048         calculate D2E/DX2 analytically  !
 ! R16   R(7,14)                 1.0031         calculate D2E/DX2 analytically  !
 ! R17   R(17,18)                1.4457         calculate D2E/DX2 analytically  !
 ! R18   R(17,28)                1.0076         calculate D2E/DX2 analytically  !
 ! R19   R(18,19)                1.5301         calculate D2E/DX2 analytically  !
 ! R20   R(18,21)                1.5324         calculate D2E/DX2 analytically  !
 ! R21   R(18,29)                1.0903         calculate D2E/DX2 analytically  !
 ! R22   R(19,20)                1.2257         calculate D2E/DX2 analytically  !
 ! R23   R(19,37)                1.3569         calculate D2E/DX2 analytically  !
 ! R24   R(21,22)                1.5006         calculate D2E/DX2 analytically  !
 ! R25   R(21,30)                1.091          calculate D2E/DX2 analytically  !
 ! R26   R(21,31)                1.0909         calculate D2E/DX2 analytically  !
 ! R27   R(22,23)                1.3955         calculate D2E/DX2 analytically  !
 ! R28   R(22,24)                1.3934         calculate D2E/DX2 analytically  !
 ! R29   R(23,25)                1.3933         calculate D2E/DX2 analytically  !
 ! R30   R(23,32)                1.0869         calculate D2E/DX2 analytically  !
 ! R31   R(24,26)                1.3914         calculate D2E/DX2 analytically  !
 ! R32   R(24,33)                1.0847         calculate D2E/DX2 analytically  !
 ! R33   R(25,27)                1.3932         calculate D2E/DX2 analytically  !
 ! R34   R(25,34)                1.084          calculate D2E/DX2 analytically  !
 ! R35   R(26,27)                1.3925         calculate D2E/DX2 analytically  !
 ! R36   R(26,35)                1.0832         calculate D2E/DX2 analytically  !
 ! R37   R(27,36)                1.0837         calculate D2E/DX2 analytically  !
 ! R38   R(37,38)                1.4494         calculate D2E/DX2 analytically  !
 ! R39   R(37,45)                1.012          calculate D2E/DX2 analytically  !
 ! R40   R(38,39)                1.5361         calculate D2E/DX2 analytically  !
 ! R41   R(38,41)                1.5305         calculate D2E/DX2 analytically  !
 ! R42   R(38,46)                1.0886         calculate D2E/DX2 analytically  !
 ! R43   R(39,40)                1.2237         calculate D2E/DX2 analytically  !
 ! R44   R(39,51)                1.3479         calculate D2E/DX2 analytically  !
 ! R45   R(41,42)                1.5227         calculate D2E/DX2 analytically  !
 ! R46   R(41,47)                1.0916         calculate D2E/DX2 analytically  !
 ! R47   R(41,48)                1.0927         calculate D2E/DX2 analytically  !
 ! R48   R(42,43)                1.3518         calculate D2E/DX2 analytically  !
 ! R49   R(42,44)                1.2263         calculate D2E/DX2 analytically  !
 ! R50   R(43,49)                1.0055         calculate D2E/DX2 analytically  !
 ! R51   R(43,50)                1.0037         calculate D2E/DX2 analytically  !
 ! R52   R(51,52)                1.4437         calculate D2E/DX2 analytically  !
 ! R53   R(51,63)                1.0068         calculate D2E/DX2 analytically  !
 ! R54   R(52,53)                1.5739         calculate D2E/DX2 analytically  !
 ! R55   R(52,55)                1.5293         calculate D2E/DX2 analytically  !
 ! R56   R(52,64)                1.0931         calculate D2E/DX2 analytically  !
 ! R57   R(53,54)                1.2456         calculate D2E/DX2 analytically  !
 ! R58   R(53,62)                1.2273         calculate D2E/DX2 analytically  !
 ! R59   R(55,56)                1.5371         calculate D2E/DX2 analytically  !
 ! R60   R(55,65)                1.0914         calculate D2E/DX2 analytically  !
 ! R61   R(55,66)                1.0932         calculate D2E/DX2 analytically  !
 ! R62   R(56,57)                1.528          calculate D2E/DX2 analytically  !
 ! R63   R(56,67)                1.0892         calculate D2E/DX2 analytically  !
 ! R64   R(56,68)                1.0928         calculate D2E/DX2 analytically  !
 ! R65   R(57,58)                1.4864         calculate D2E/DX2 analytically  !
 ! R66   R(57,69)                1.0906         calculate D2E/DX2 analytically  !
 ! R67   R(57,70)                1.0916         calculate D2E/DX2 analytically  !
 ! R68   R(58,59)                1.337          calculate D2E/DX2 analytically  !
 ! R69   R(58,71)                1.0162         calculate D2E/DX2 analytically  !
 ! R70   R(59,60)                1.3587         calculate D2E/DX2 analytically  !
 ! R71   R(59,61)                1.3479         calculate D2E/DX2 analytically  !
 ! R72   R(60,72)                1.0125         calculate D2E/DX2 analytically  !
 ! R73   R(60,73)                1.0136         calculate D2E/DX2 analytically  !
 ! R74   R(61,74)                1.0195         calculate D2E/DX2 analytically  !
 ! R75   R(61,75)                1.0129         calculate D2E/DX2 analytically  !
 ! A1    A(2,1,9)              112.138          calculate D2E/DX2 analytically  !
 ! A2    A(2,1,15)             109.3042         calculate D2E/DX2 analytically  !
 ! A3    A(2,1,16)             108.5682         calculate D2E/DX2 analytically  !
 ! A4    A(9,1,15)             107.6267         calculate D2E/DX2 analytically  !
 ! A5    A(9,1,16)             110.7618         calculate D2E/DX2 analytically  !
 ! A6    A(15,1,16)            108.3645         calculate D2E/DX2 analytically  !
 ! A7    A(1,2,3)              109.6683         calculate D2E/DX2 analytically  !
 ! A8    A(1,2,5)              110.8309         calculate D2E/DX2 analytically  !
 ! A9    A(1,2,10)             107.5048         calculate D2E/DX2 analytically  !
 ! A10   A(3,2,5)              115.0046         calculate D2E/DX2 analytically  !
 ! A11   A(3,2,10)             105.4663         calculate D2E/DX2 analytically  !
 ! A12   A(5,2,10)             107.9606         calculate D2E/DX2 analytically  !
 ! A13   A(2,3,4)              118.6247         calculate D2E/DX2 analytically  !
 ! A14   A(2,3,17)             117.7956         calculate D2E/DX2 analytically  !
 ! A15   A(4,3,17)             123.5747         calculate D2E/DX2 analytically  !
 ! A16   A(2,5,6)              110.0005         calculate D2E/DX2 analytically  !
 ! A17   A(2,5,11)             111.4148         calculate D2E/DX2 analytically  !
 ! A18   A(2,5,12)             109.9054         calculate D2E/DX2 analytically  !
 ! A19   A(6,5,11)             110.1868         calculate D2E/DX2 analytically  !
 ! A20   A(6,5,12)             108.2732         calculate D2E/DX2 analytically  !
 ! A21   A(11,5,12)            106.9662         calculate D2E/DX2 analytically  !
 ! A22   A(5,6,7)              115.3606         calculate D2E/DX2 analytically  !
 ! A23   A(5,6,8)              122.0599         calculate D2E/DX2 analytically  !
 ! A24   A(7,6,8)              122.5783         calculate D2E/DX2 analytically  !
 ! A25   A(6,7,13)             117.91           calculate D2E/DX2 analytically  !
 ! A26   A(6,7,14)             121.7739         calculate D2E/DX2 analytically  !
 ! A27   A(13,7,14)            120.316          calculate D2E/DX2 analytically  !
 ! A28   A(3,17,18)            120.0587         calculate D2E/DX2 analytically  !
 ! A29   A(3,17,28)            119.8831         calculate D2E/DX2 analytically  !
 ! A30   A(18,17,28)           119.5762         calculate D2E/DX2 analytically  !
 ! A31   A(17,18,19)           112.5041         calculate D2E/DX2 analytically  !
 ! A32   A(17,18,21)           110.9684         calculate D2E/DX2 analytically  !
 ! A33   A(17,18,29)           105.7971         calculate D2E/DX2 analytically  !
 ! A34   A(19,18,21)           109.9925         calculate D2E/DX2 analytically  !
 ! A35   A(19,18,29)           109.0121         calculate D2E/DX2 analytically  !
 ! A36   A(21,18,29)           108.3898         calculate D2E/DX2 analytically  !
 ! A37   A(18,19,20)           121.4938         calculate D2E/DX2 analytically  !
 ! A38   A(18,19,37)           117.1462         calculate D2E/DX2 analytically  !
 ! A39   A(20,19,37)           121.2646         calculate D2E/DX2 analytically  !
 ! A40   A(18,21,22)           112.0154         calculate D2E/DX2 analytically  !
 ! A41   A(18,21,30)           108.1321         calculate D2E/DX2 analytically  !
 ! A42   A(18,21,31)           107.9084         calculate D2E/DX2 analytically  !
 ! A43   A(22,21,30)           110.5563         calculate D2E/DX2 analytically  !
 ! A44   A(22,21,31)           110.946          calculate D2E/DX2 analytically  !
 ! A45   A(30,21,31)           107.0963         calculate D2E/DX2 analytically  !
 ! A46   A(21,22,23)           120.6137         calculate D2E/DX2 analytically  !
 ! A47   A(21,22,24)           120.7307         calculate D2E/DX2 analytically  !
 ! A48   A(23,22,24)           118.5956         calculate D2E/DX2 analytically  !
 ! A49   A(22,23,25)           120.8954         calculate D2E/DX2 analytically  !
 ! A50   A(22,23,32)           118.5761         calculate D2E/DX2 analytically  !
 ! A51   A(25,23,32)           120.5215         calculate D2E/DX2 analytically  !
 ! A52   A(22,24,26)           120.8268         calculate D2E/DX2 analytically  !
 ! A53   A(22,24,33)           119.3735         calculate D2E/DX2 analytically  !
 ! A54   A(26,24,33)           119.7978         calculate D2E/DX2 analytically  !
 ! A55   A(23,25,27)           119.9941         calculate D2E/DX2 analytically  !
 ! A56   A(23,25,34)           119.6602         calculate D2E/DX2 analytically  !
 ! A57   A(27,25,34)           120.3447         calculate D2E/DX2 analytically  !
 ! A58   A(24,26,27)           120.215          calculate D2E/DX2 analytically  !
 ! A59   A(24,26,35)           119.653          calculate D2E/DX2 analytically  !
 ! A60   A(27,26,35)           120.1293         calculate D2E/DX2 analytically  !
 ! A61   A(25,27,26)           119.4612         calculate D2E/DX2 analytically  !
 ! A62   A(25,27,36)           120.3452         calculate D2E/DX2 analytically  !
 ! A63   A(26,27,36)           120.1935         calculate D2E/DX2 analytically  !
 ! A64   A(19,37,38)           124.9833         calculate D2E/DX2 analytically  !
 ! A65   A(19,37,45)           112.9856         calculate D2E/DX2 analytically  !
 ! A66   A(38,37,45)           116.6025         calculate D2E/DX2 analytically  !
 ! A67   A(37,38,39)           112.7777         calculate D2E/DX2 analytically  !
 ! A68   A(37,38,41)           110.7121         calculate D2E/DX2 analytically  !
 ! A69   A(37,38,46)           108.6794         calculate D2E/DX2 analytically  !
 ! A70   A(39,38,41)           111.2879         calculate D2E/DX2 analytically  !
 ! A71   A(39,38,46)           103.768          calculate D2E/DX2 analytically  !
 ! A72   A(41,38,46)           109.3236         calculate D2E/DX2 analytically  !
 ! A73   A(38,39,40)           120.6259         calculate D2E/DX2 analytically  !
 ! A74   A(38,39,51)           117.0308         calculate D2E/DX2 analytically  !
 ! A75   A(40,39,51)           122.3405         calculate D2E/DX2 analytically  !
 ! A76   A(38,41,42)           113.5211         calculate D2E/DX2 analytically  !
 ! A77   A(38,41,47)           107.6609         calculate D2E/DX2 analytically  !
 ! A78   A(38,41,48)           109.9549         calculate D2E/DX2 analytically  !
 ! A79   A(42,41,47)           107.6123         calculate D2E/DX2 analytically  !
 ! A80   A(42,41,48)           110.2863         calculate D2E/DX2 analytically  !
 ! A81   A(47,41,48)           107.5735         calculate D2E/DX2 analytically  !
 ! A82   A(41,42,43)           115.7196         calculate D2E/DX2 analytically  !
 ! A83   A(41,42,44)           121.5157         calculate D2E/DX2 analytically  !
 ! A84   A(43,42,44)           122.7613         calculate D2E/DX2 analytically  !
 ! A85   A(42,43,49)           117.994          calculate D2E/DX2 analytically  !
 ! A86   A(42,43,50)           121.966          calculate D2E/DX2 analytically  !
 ! A87   A(49,43,50)           120.037          calculate D2E/DX2 analytically  !
 ! A88   A(39,51,52)           121.448          calculate D2E/DX2 analytically  !
 ! A89   A(39,51,63)           119.0996         calculate D2E/DX2 analytically  !
 ! A90   A(52,51,63)           119.3599         calculate D2E/DX2 analytically  !
 ! A91   A(51,52,53)           108.1602         calculate D2E/DX2 analytically  !
 ! A92   A(51,52,55)           109.6182         calculate D2E/DX2 analytically  !
 ! A93   A(51,52,64)           110.839          calculate D2E/DX2 analytically  !
 ! A94   A(53,52,55)           109.6201         calculate D2E/DX2 analytically  !
 ! A95   A(53,52,64)           106.53           calculate D2E/DX2 analytically  !
 ! A96   A(55,52,64)           111.9561         calculate D2E/DX2 analytically  !
 ! A97   A(52,53,54)           114.4111         calculate D2E/DX2 analytically  !
 ! A98   A(52,53,62)           116.1114         calculate D2E/DX2 analytically  !
 ! A99   A(54,53,62)           129.4266         calculate D2E/DX2 analytically  !
 ! A100  A(52,55,56)           113.6441         calculate D2E/DX2 analytically  !
 ! A101  A(52,55,65)           109.0427         calculate D2E/DX2 analytically  !
 ! A102  A(52,55,66)           107.0697         calculate D2E/DX2 analytically  !
 ! A103  A(56,55,65)           110.9007         calculate D2E/DX2 analytically  !
 ! A104  A(56,55,66)           110.0065         calculate D2E/DX2 analytically  !
 ! A105  A(65,55,66)           105.815          calculate D2E/DX2 analytically  !
 ! A106  A(55,56,57)           112.4966         calculate D2E/DX2 analytically  !
 ! A107  A(55,56,67)           110.3603         calculate D2E/DX2 analytically  !
 ! A108  A(55,56,68)           109.7302         calculate D2E/DX2 analytically  !
 ! A109  A(57,56,67)           109.229          calculate D2E/DX2 analytically  !
 ! A110  A(57,56,68)           108.962          calculate D2E/DX2 analytically  !
 ! A111  A(67,56,68)           105.8354         calculate D2E/DX2 analytically  !
 ! A112  A(56,57,58)           111.6869         calculate D2E/DX2 analytically  !
 ! A113  A(56,57,69)           109.5536         calculate D2E/DX2 analytically  !
 ! A114  A(56,57,70)           110.7419         calculate D2E/DX2 analytically  !
 ! A115  A(58,57,69)           106.6648         calculate D2E/DX2 analytically  !
 ! A116  A(58,57,70)           110.8799         calculate D2E/DX2 analytically  !
 ! A117  A(69,57,70)           107.1194         calculate D2E/DX2 analytically  !
 ! A118  A(57,58,59)           126.2616         calculate D2E/DX2 analytically  !
 ! A119  A(57,58,71)           111.8701         calculate D2E/DX2 analytically  !
 ! A120  A(59,58,71)           111.5269         calculate D2E/DX2 analytically  !
 ! A121  A(58,59,60)           122.036          calculate D2E/DX2 analytically  !
 ! A122  A(58,59,61)           120.4754         calculate D2E/DX2 analytically  !
 ! A123  A(60,59,61)           117.4887         calculate D2E/DX2 analytically  !
 ! A124  A(59,60,72)           115.1584         calculate D2E/DX2 analytically  !
 ! A125  A(59,60,73)           116.6901         calculate D2E/DX2 analytically  !
 ! A126  A(72,60,73)           113.532          calculate D2E/DX2 analytically  !
 ! A127  A(59,61,74)           116.0649         calculate D2E/DX2 analytically  !
 ! A128  A(59,61,75)           115.5127         calculate D2E/DX2 analytically  !
 ! A129  A(74,61,75)           111.9481         calculate D2E/DX2 analytically  !
 ! D1    D(9,1,2,3)            -27.4866         calculate D2E/DX2 analytically  !
 ! D2    D(9,1,2,5)           -155.5307         calculate D2E/DX2 analytically  !
 ! D3    D(9,1,2,10)            86.6977         calculate D2E/DX2 analytically  !
 ! D4    D(15,1,2,3)            91.7813         calculate D2E/DX2 analytically  !
 ! D5    D(15,1,2,5)           -36.2628         calculate D2E/DX2 analytically  !
 ! D6    D(15,1,2,10)         -154.0344         calculate D2E/DX2 analytically  !
 ! D7    D(16,1,2,3)          -150.1957         calculate D2E/DX2 analytically  !
 ! D8    D(16,1,2,5)            81.7603         calculate D2E/DX2 analytically  !
 ! D9    D(16,1,2,10)          -36.0114         calculate D2E/DX2 analytically  !
 ! D10   D(1,2,3,4)             75.1482         calculate D2E/DX2 analytically  !
 ! D11   D(1,2,3,17)          -105.6328         calculate D2E/DX2 analytically  !
 ! D12   D(5,2,3,4)           -159.1615         calculate D2E/DX2 analytically  !
 ! D13   D(5,2,3,17)            20.0575         calculate D2E/DX2 analytically  !
 ! D14   D(10,2,3,4)           -40.3396         calculate D2E/DX2 analytically  !
 ! D15   D(10,2,3,17)          138.8794         calculate D2E/DX2 analytically  !
 ! D16   D(1,2,5,6)            -65.375          calculate D2E/DX2 analytically  !
 ! D17   D(1,2,5,11)            57.1192         calculate D2E/DX2 analytically  !
 ! D18   D(1,2,5,12)           175.503          calculate D2E/DX2 analytically  !
 ! D19   D(3,2,5,6)            169.5384         calculate D2E/DX2 analytically  !
 ! D20   D(3,2,5,11)           -67.9674         calculate D2E/DX2 analytically  !
 ! D21   D(3,2,5,12)            50.4165         calculate D2E/DX2 analytically  !
 ! D22   D(10,2,5,6)            52.1182         calculate D2E/DX2 analytically  !
 ! D23   D(10,2,5,11)          174.6124         calculate D2E/DX2 analytically  !
 ! D24   D(10,2,5,12)          -67.0038         calculate D2E/DX2 analytically  !
 ! D25   D(2,3,17,18)         -165.4101         calculate D2E/DX2 analytically  !
 ! D26   D(2,3,17,28)           22.5876         calculate D2E/DX2 analytically  !
 ! D27   D(4,3,17,18)           13.7671         calculate D2E/DX2 analytically  !
 ! D28   D(4,3,17,28)         -158.2352         calculate D2E/DX2 analytically  !
 ! D29   D(2,5,6,7)            168.5623         calculate D2E/DX2 analytically  !
 ! D30   D(2,5,6,8)            -11.8428         calculate D2E/DX2 analytically  !
 ! D31   D(11,5,6,7)            45.3459         calculate D2E/DX2 analytically  !
 ! D32   D(11,5,6,8)          -135.0593         calculate D2E/DX2 analytically  !
 ! D33   D(12,5,6,7)           -71.3221         calculate D2E/DX2 analytically  !
 ! D34   D(12,5,6,8)           108.2728         calculate D2E/DX2 analytically  !
 ! D35   D(5,6,7,13)           179.2525         calculate D2E/DX2 analytically  !
 ! D36   D(5,6,7,14)            -0.8413         calculate D2E/DX2 analytically  !
 ! D37   D(8,6,7,13)            -0.34           calculate D2E/DX2 analytically  !
 ! D38   D(8,6,7,14)           179.5662         calculate D2E/DX2 analytically  !
 ! D39   D(3,17,18,19)        -133.0045         calculate D2E/DX2 analytically  !
 ! D40   D(3,17,18,21)         103.2782         calculate D2E/DX2 analytically  !
 ! D41   D(3,17,18,29)         -14.079          calculate D2E/DX2 analytically  !
 ! D42   D(28,17,18,19)         39.0223         calculate D2E/DX2 analytically  !
 ! D43   D(28,17,18,21)        -84.695          calculate D2E/DX2 analytically  !
 ! D44   D(28,17,18,29)        157.9478         calculate D2E/DX2 analytically  !
 ! D45   D(17,18,19,20)       -102.7527         calculate D2E/DX2 analytically  !
 ! D46   D(17,18,19,37)         80.7578         calculate D2E/DX2 analytically  !
 ! D47   D(21,18,19,20)         21.5052         calculate D2E/DX2 analytically  !
 ! D48   D(21,18,19,37)       -154.9843         calculate D2E/DX2 analytically  !
 ! D49   D(29,18,19,20)        140.2194         calculate D2E/DX2 analytically  !
 ! D50   D(29,18,19,37)        -36.2701         calculate D2E/DX2 analytically  !
 ! D51   D(17,18,21,22)        -56.4481         calculate D2E/DX2 analytically  !
 ! D52   D(17,18,21,30)         65.6212         calculate D2E/DX2 analytically  !
 ! D53   D(17,18,21,31)       -178.8532         calculate D2E/DX2 analytically  !
 ! D54   D(19,18,21,22)        178.4097         calculate D2E/DX2 analytically  !
 ! D55   D(19,18,21,30)        -59.521          calculate D2E/DX2 analytically  !
 ! D56   D(19,18,21,31)         56.0045         calculate D2E/DX2 analytically  !
 ! D57   D(29,18,21,22)         59.3141         calculate D2E/DX2 analytically  !
 ! D58   D(29,18,21,30)       -178.6167         calculate D2E/DX2 analytically  !
 ! D59   D(29,18,21,31)        -63.0911         calculate D2E/DX2 analytically  !
 ! D60   D(18,19,37,38)        -26.4062         calculate D2E/DX2 analytically  !
 ! D61   D(18,19,37,45)       -179.3442         calculate D2E/DX2 analytically  !
 ! D62   D(20,19,37,38)        157.0957         calculate D2E/DX2 analytically  !
 ! D63   D(20,19,37,45)          4.1577         calculate D2E/DX2 analytically  !
 ! D64   D(18,21,22,23)        -73.2857         calculate D2E/DX2 analytically  !
 ! D65   D(18,21,22,24)        103.8589         calculate D2E/DX2 analytically  !
 ! D66   D(30,21,22,23)        166.041          calculate D2E/DX2 analytically  !
 ! D67   D(30,21,22,24)        -16.8144         calculate D2E/DX2 analytically  !
 ! D68   D(31,21,22,23)         47.3731         calculate D2E/DX2 analytically  !
 ! D69   D(31,21,22,24)       -135.4822         calculate D2E/DX2 analytically  !
 ! D70   D(21,22,23,25)        177.21           calculate D2E/DX2 analytically  !
 ! D71   D(21,22,23,32)         -1.8318         calculate D2E/DX2 analytically  !
 ! D72   D(24,22,23,25)          0.0054         calculate D2E/DX2 analytically  !
 ! D73   D(24,22,23,32)       -179.0364         calculate D2E/DX2 analytically  !
 ! D74   D(21,22,24,26)       -176.2547         calculate D2E/DX2 analytically  !
 ! D75   D(21,22,24,33)          3.2479         calculate D2E/DX2 analytically  !
 ! D76   D(23,22,24,26)          0.9466         calculate D2E/DX2 analytically  !
 ! D77   D(23,22,24,33)       -179.5509         calculate D2E/DX2 analytically  !
 ! D78   D(22,23,25,27)         -0.6936         calculate D2E/DX2 analytically  !
 ! D79   D(22,23,25,34)        179.6774         calculate D2E/DX2 analytically  !
 ! D80   D(32,23,25,27)        178.3295         calculate D2E/DX2 analytically  !
 ! D81   D(32,23,25,34)         -1.2994         calculate D2E/DX2 analytically  !
 ! D82   D(22,24,26,27)         -1.2137         calculate D2E/DX2 analytically  !
 ! D83   D(22,24,26,35)        179.3797         calculate D2E/DX2 analytically  !
 ! D84   D(33,24,26,27)        179.2859         calculate D2E/DX2 analytically  !
 ! D85   D(33,24,26,35)         -0.1207         calculate D2E/DX2 analytically  !
 ! D86   D(23,25,27,26)          0.4329         calculate D2E/DX2 analytically  !
 ! D87   D(23,25,27,36)       -179.6452         calculate D2E/DX2 analytically  !
 ! D88   D(34,25,27,26)       -179.9407         calculate D2E/DX2 analytically  !
 ! D89   D(34,25,27,36)         -0.0189         calculate D2E/DX2 analytically  !
 ! D90   D(24,26,27,25)          0.509          calculate D2E/DX2 analytically  !
 ! D91   D(24,26,27,36)       -179.413          calculate D2E/DX2 analytically  !
 ! D92   D(35,26,27,25)        179.9128         calculate D2E/DX2 analytically  !
 ! D93   D(35,26,27,36)         -0.0092         calculate D2E/DX2 analytically  !
 ! D94   D(19,37,38,39)        -69.9912         calculate D2E/DX2 analytically  !
 ! D95   D(19,37,38,41)        164.5765         calculate D2E/DX2 analytically  !
 ! D96   D(19,37,38,46)         44.4925         calculate D2E/DX2 analytically  !
 ! D97   D(45,37,38,39)         82.0769         calculate D2E/DX2 analytically  !
 ! D98   D(45,37,38,41)        -43.3554         calculate D2E/DX2 analytically  !
 ! D99   D(45,37,38,46)       -163.4394         calculate D2E/DX2 analytically  !
 ! D100  D(37,38,39,40)        140.9357         calculate D2E/DX2 analytically  !
 ! D101  D(37,38,39,51)        -39.6641         calculate D2E/DX2 analytically  !
 ! D102  D(41,38,39,40)        -93.9445         calculate D2E/DX2 analytically  !
 ! D103  D(41,38,39,51)         85.4557         calculate D2E/DX2 analytically  !
 ! D104  D(46,38,39,40)         23.5146         calculate D2E/DX2 analytically  !
 ! D105  D(46,38,39,51)       -157.0852         calculate D2E/DX2 analytically  !
 ! D106  D(37,38,41,42)         64.0103         calculate D2E/DX2 analytically  !
 ! D107  D(37,38,41,47)        -54.9952         calculate D2E/DX2 analytically  !
 ! D108  D(37,38,41,48)       -171.9124         calculate D2E/DX2 analytically  !
 ! D109  D(39,38,41,42)        -62.2565         calculate D2E/DX2 analytically  !
 ! D110  D(39,38,41,47)        178.7381         calculate D2E/DX2 analytically  !
 ! D111  D(39,38,41,48)         61.8208         calculate D2E/DX2 analytically  !
 ! D112  D(46,38,41,42)       -176.2916         calculate D2E/DX2 analytically  !
 ! D113  D(46,38,41,47)         64.7029         calculate D2E/DX2 analytically  !
 ! D114  D(46,38,41,48)        -52.2143         calculate D2E/DX2 analytically  !
 ! D115  D(38,39,51,52)        164.4828         calculate D2E/DX2 analytically  !
 ! D116  D(38,39,51,63)        -11.9979         calculate D2E/DX2 analytically  !
 ! D117  D(40,39,51,52)        -16.1281         calculate D2E/DX2 analytically  !
 ! D118  D(40,39,51,63)        167.3912         calculate D2E/DX2 analytically  !
 ! D119  D(38,41,42,43)        149.7246         calculate D2E/DX2 analytically  !
 ! D120  D(38,41,42,44)        -30.9233         calculate D2E/DX2 analytically  !
 ! D121  D(47,41,42,43)        -91.2421         calculate D2E/DX2 analytically  !
 ! D122  D(47,41,42,44)         88.1101         calculate D2E/DX2 analytically  !
 ! D123  D(48,41,42,43)         25.8274         calculate D2E/DX2 analytically  !
 ! D124  D(48,41,42,44)       -154.8205         calculate D2E/DX2 analytically  !
 ! D125  D(41,42,43,49)        179.876          calculate D2E/DX2 analytically  !
 ! D126  D(41,42,43,50)          0.5106         calculate D2E/DX2 analytically  !
 ! D127  D(44,42,43,49)          0.5327         calculate D2E/DX2 analytically  !
 ! D128  D(44,42,43,50)       -178.8327         calculate D2E/DX2 analytically  !
 ! D129  D(39,51,52,53)        -47.9758         calculate D2E/DX2 analytically  !
 ! D130  D(39,51,52,55)       -167.4532         calculate D2E/DX2 analytically  !
 ! D131  D(39,51,52,64)         68.4634         calculate D2E/DX2 analytically  !
 ! D132  D(63,51,52,53)        128.4959         calculate D2E/DX2 analytically  !
 ! D133  D(63,51,52,55)          9.0186         calculate D2E/DX2 analytically  !
 ! D134  D(63,51,52,64)       -115.0648         calculate D2E/DX2 analytically  !
 ! D135  D(51,52,53,54)        -58.243          calculate D2E/DX2 analytically  !
 ! D136  D(51,52,53,62)        124.105          calculate D2E/DX2 analytically  !
 ! D137  D(55,52,53,54)         61.2332         calculate D2E/DX2 analytically  !
 ! D138  D(55,52,53,62)       -116.4189         calculate D2E/DX2 analytically  !
 ! D139  D(64,52,53,54)       -177.4444         calculate D2E/DX2 analytically  !
 ! D140  D(64,52,53,62)          4.9035         calculate D2E/DX2 analytically  !
 ! D141  D(51,52,55,56)        161.2361         calculate D2E/DX2 analytically  !
 ! D142  D(51,52,55,65)        -74.4935         calculate D2E/DX2 analytically  !
 ! D143  D(51,52,55,66)         39.5596         calculate D2E/DX2 analytically  !
 ! D144  D(53,52,55,56)         42.6589         calculate D2E/DX2 analytically  !
 ! D145  D(53,52,55,65)        166.9294         calculate D2E/DX2 analytically  !
 ! D146  D(53,52,55,66)        -79.0176         calculate D2E/DX2 analytically  !
 ! D147  D(64,52,55,56)        -75.3355         calculate D2E/DX2 analytically  !
 ! D148  D(64,52,55,65)         48.935          calculate D2E/DX2 analytically  !
 ! D149  D(64,52,55,66)        162.988          calculate D2E/DX2 analytically  !
 ! D150  D(52,55,56,57)       -128.4436         calculate D2E/DX2 analytically  !
 ! D151  D(52,55,56,67)         -6.173          calculate D2E/DX2 analytically  !
 ! D152  D(52,55,56,68)        110.0783         calculate D2E/DX2 analytically  !
 ! D153  D(65,55,56,57)        108.2959         calculate D2E/DX2 analytically  !
 ! D154  D(65,55,56,67)       -129.4335         calculate D2E/DX2 analytically  !
 ! D155  D(65,55,56,68)        -13.1822         calculate D2E/DX2 analytically  !
 ! D156  D(66,55,56,57)         -8.416          calculate D2E/DX2 analytically  !
 ! D157  D(66,55,56,67)        113.8546         calculate D2E/DX2 analytically  !
 ! D158  D(66,55,56,68)       -129.8941         calculate D2E/DX2 analytically  !
 ! D159  D(55,56,57,58)         60.3787         calculate D2E/DX2 analytically  !
 ! D160  D(55,56,57,69)        178.3319         calculate D2E/DX2 analytically  !
 ! D161  D(55,56,57,70)        -63.7288         calculate D2E/DX2 analytically  !
 ! D162  D(67,56,57,58)        -62.5289         calculate D2E/DX2 analytically  !
 ! D163  D(67,56,57,69)         55.4243         calculate D2E/DX2 analytically  !
 ! D164  D(67,56,57,70)        173.3636         calculate D2E/DX2 analytically  !
 ! D165  D(68,56,57,58)       -177.7064         calculate D2E/DX2 analytically  !
 ! D166  D(68,56,57,69)        -59.7532         calculate D2E/DX2 analytically  !
 ! D167  D(68,56,57,70)         58.1861         calculate D2E/DX2 analytically  !
 ! D168  D(56,57,58,59)       -103.6583         calculate D2E/DX2 analytically  !
 ! D169  D(56,57,58,71)         38.044          calculate D2E/DX2 analytically  !
 ! D170  D(69,57,58,59)        136.6707         calculate D2E/DX2 analytically  !
 ! D171  D(69,57,58,71)        -81.627          calculate D2E/DX2 analytically  !
 ! D172  D(70,57,58,59)         20.3717         calculate D2E/DX2 analytically  !
 ! D173  D(70,57,58,71)        162.074          calculate D2E/DX2 analytically  !
 ! D174  D(57,58,59,60)        -14.8917         calculate D2E/DX2 analytically  !
 ! D175  D(57,58,59,61)        165.0963         calculate D2E/DX2 analytically  !
 ! D176  D(71,58,59,60)       -156.7016         calculate D2E/DX2 analytically  !
 ! D177  D(71,58,59,61)         23.2863         calculate D2E/DX2 analytically  !
 ! D178  D(58,59,60,72)       -154.9066         calculate D2E/DX2 analytically  !
 ! D179  D(58,59,60,73)        -18.0341         calculate D2E/DX2 analytically  !
 ! D180  D(61,59,60,72)         25.1051         calculate D2E/DX2 analytically  !
 ! D181  D(61,59,60,73)        161.9776         calculate D2E/DX2 analytically  !
 ! D182  D(58,59,61,74)       -140.5779         calculate D2E/DX2 analytically  !
 ! D183  D(58,59,61,75)         -6.5923         calculate D2E/DX2 analytically  !
 ! D184  D(60,59,61,74)         39.4106         calculate D2E/DX2 analytically  !
 ! D185  D(60,59,61,75)        173.3962         calculate D2E/DX2 analytically  !
 --------------------------------------------------------------------------------
 Trust Radius=3.00D-01 FncErr=1.00D-07 GrdErr=1.00D-06 EigMax=2.50D+02 EigMin=1.00D-04
 Number of steps in this run=    399 maximum allowed number of steps=    450.
 GradGradGradGradGradGradGradGradGradGradGradGradGradGradGradGradGradGrad

 Symmetry turned off by external request.
 Stoichiometry    C23H36N9O7(1+)
 Framework group  C1[X(C23H36N9O7)]
 Deg. of freedom   219
 Full point group                 C1      NOp   1
                          Input orientation:                          
 ---------------------------------------------------------------------
 Center     Atomic      Atomic             Coordinates (Angstroms)
 Number     Number       Type             X           Y           Z
 ---------------------------------------------------------------------
      1          7           0       -6.127184   -2.792437  -10.520756
      2          6           0       -7.256311   -3.410564   -9.801889
      3          6           0       -8.255883   -2.329208   -9.385777
      4          8           0       -8.992028   -1.839542  -10.249313
      5          6           0       -6.758984   -4.292262   -8.672955
      6          6           0       -5.986614   -5.473774   -9.237556
      7          7           0       -5.287000   -6.201349   -8.326286
      8          8           0       -6.003142   -5.750488  -10.427703
      9          1           0       -6.398579   -1.923186  -10.992108
     10          1           0       -7.792009   -4.044420  -10.513808
     11          1           0       -6.139559   -3.737364   -7.982326
     12          1           0       -7.606609   -4.678542   -8.101499
     13          1           0       -4.771572   -6.998261   -8.656378
     14          1           0       -5.276746   -5.959490   -7.352821
     15          1           0       -5.373548   -2.560979   -9.842932
     16          1           0       -5.759262   -3.469464  -11.192730
     17          7           0       -8.293845   -1.972470   -8.077226
     18          6           0       -9.407795   -1.204315   -7.568081
     19          6           0       -8.958854   -0.020957   -6.708212
     20          8           0       -9.020382   -0.058763   -5.484595
     21          6           0      -10.369914   -2.093985   -6.773693
     22          6           0      -10.869499   -3.250570   -7.588948
     23          6           0      -11.805715   -3.052296   -8.604618
     24          6           0      -10.365418   -4.533978   -7.387788
     25          6           0      -12.230405   -4.112216   -9.403005
     26          6           0      -10.770110   -5.593404   -8.193858
     27          6           0      -11.708670   -5.388264   -9.201895
     28          1           0       -7.492746   -2.136967   -7.488580
     29          1           0       -9.933538   -0.826645   -8.445357
     30          1           0       -9.847604   -2.449489   -5.884308
     31          1           0      -11.197874   -1.471243   -6.431932
     32          1           0      -12.186791   -2.048233   -8.771628
     33          1           0       -9.642582   -4.703804   -6.597042
     34          1           0      -12.962506   -3.936539  -10.182959
     35          1           0      -10.358450   -6.581312   -8.027120
     36          1           0      -12.030691   -6.215606   -9.823318
     37          7           0       -8.558071    1.100299   -7.358863
     38          6           0       -8.006535    1.131210   -8.698875
     39          6           0       -6.601583    0.515188   -8.778089
     40          8           0       -6.275629   -0.172678   -9.736216
     41          6           0       -8.020787    2.556141   -9.257372
     42          6           0       -7.133105    3.521164   -8.483226
     43          7           0       -6.596850    4.531467   -9.203679
     44          8           0       -6.935568    3.386084   -7.280526
     45          1           0       -8.265250    1.838145   -6.731140
     46          1           0       -8.608077    0.487583   -9.338437
     47          1           0       -9.045627    2.926581   -9.193654
     48          1           0       -7.738771    2.545769  -10.312958
     49          1           0       -6.006313    5.190214   -8.725873
     50          1           0       -6.780367    4.640485  -10.184433
     51          7           0       -5.758748    0.779025   -7.759894
     52          6           0       -4.556164    0.006154   -7.558011
     53          6           0       -4.933651   -1.519493   -7.642047
     54          8           0       -5.794016   -1.883072   -6.817966
     55          6           0       -3.972467    0.315516   -6.178734
     56          6           0       -2.985322   -0.749200   -5.674154
     57          6           0       -3.325138   -1.242072   -4.268264
     58          7           0       -4.675289   -1.861355   -4.214725
     59          6           0       -5.781631   -1.303870   -3.711988
     60          7           0       -5.736694   -0.202158   -2.918060
     61          7           0       -6.994131   -1.826722   -3.982522
     62          8           0       -4.315279   -2.184233   -8.467829
     63          1           0       -6.001460    1.496685   -7.096771
     64          1           0       -3.835147    0.192668   -8.358135
     65          1           0       -3.503536    1.300722   -6.203329
     66          1           0       -4.813968    0.403298   -5.486523
     67          1           0       -2.962339   -1.598197   -6.356139
     68          1           0       -1.971623   -0.340933   -5.671964
     69          1           0       -2.614849   -2.014248   -3.970564
     70          1           0       -3.240274   -0.430566   -3.543049
     71          1           0       -4.877190   -2.402028   -5.051131
     72          1           0       -6.521676   -0.093399   -2.287934
     73          1           0       -4.842989    0.016327   -2.492681
     74          1           0       -7.743776   -1.156416   -4.149922
     75          1           0       -7.002984   -2.581207   -4.658330
 ---------------------------------------------------------------------
 Rotational constants (GHZ):           0.1141208           0.0806622           0.0694173
 Standard basis: 6-31G(d) (6D, 7F)
   657 basis functions,  1236 primitive gaussians,   657 cartesian basis functions
   146 alpha electrons      146 beta electrons
       nuclear repulsion energy      5140.3425852214 Hartrees.
 NAtoms=   75 NActive=   75 NUniq=   75 SFac= 1.00D+00 NAtFMM=   60 NAOKFM=T Big=T
 Integral buffers will be    131072 words long.
 Raffenetti 2 integral format.
 Two-electron integral symmetry is turned off.
 Nuclear repulsion after empirical dispersion term =     5140.2240572452 Hartrees.
 One-electron integrals computed using PRISM.
 NBasis=   657 RedAO= T EigKep=  4.49D-04  NBF=   657
 NBsUse=   657 1.00D-06 EigRej= -1.00D+00 NBFU=   657
 ExpMin= 1.61D-01 ExpMax= 5.48D+03 ExpMxC= 8.25D+02 IAcc=3 IRadAn=         5 AccDes= 0.00D+00
 Harris functional with IExCor=  402 and IRadAn=       5 diagonalized for initial guess.
 HarFok:  IExCor=  402 AccDes= 0.00D+00 IRadAn=         5 IDoV= 1 UseB2=F ITyADJ=14
 ICtDFT=  3500011 ScaDFX=  1.000000  1.000000  1.000000  1.000000
 FoFCou: FMM=F IPFlag=           0 FMFlag=      100000 FMFlg1=        2001
         NFxFlg=           0 DoJE=T BraDBF=F KetDBF=T FulRan=T
         wScrn=  0.000000 ICntrl=       500 IOpCl=  0 I1Cent=   200000004 NGrid=           0
         NMat0=    1 NMatS0=      1 NMatT0=    0 NMatD0=    1 NMtDS0=    0 NMtDT0=    0
 Symmetry not used in FoFCou.
 Requested convergence on RMS density matrix=1.00D-08 within 128 cycles.
 Requested convergence on MAX density matrix=1.00D-06.
 Requested convergence on             energy=1.00D-06.
 No special actions if energy rises.
 Integral accuracy reduced to 1.0D-05 until final iterations.
 Initial convergence to 1.0D-05 achieved.  Increase integral accuracy.
 SCF Done:  E(RB3LYP) =  -1917.49342317     A.U. after   15 cycles
            NFock= 15  Conv=0.64D-08     -V/T= 2.0089
 DoSCS=F DFT=T ScalE2(SS,OS)=  1.000000  1.000000
 Range of M.O.s used for correlation:     1   657
 NBasis=   657 NAE=   146 NBE=   146 NFC=     0 NFV=     0
 NROrb=    657 NOA=   146 NOB=   146 NVA=   511 NVB=   511
 Symmetrizing basis deriv contribution to polar:
 IMax=3 JMax=2 DiffMx= 0.00D+00
 G2DrvN: will do    76 centers at a time, making    1 passes.
 Calling FoFCou, ICntrl=  3107 FMM=T I1Cent=   0 AccDes= 0.00D+00.
 End of G2Drv F.D. properties file   721 does not exist.
 End of G2Drv F.D. properties file   722 does not exist.
 End of G2Drv F.D. properties file   788 does not exist.
          IDoAtm=11111111111111111111111111111111111111111111111111
          IDoAtm=1111111111111111111111111
          Differentiating once with respect to nuclear coordinates.
 CalDSu exits because no D1Ps are significant.
          There are   228 degrees of freedom in the 1st order CPHF.  IDoFFX=6 NUNeed=     0.
    222 vectors produced by pass  0 Test12= 7.46D-14 1.00D-09 XBig12= 1.82D-01 1.16D-01.
 AX will form    72 AO Fock derivatives at one time.
    222 vectors produced by pass  1 Test12= 7.46D-14 1.00D-09 XBig12= 3.33D-02 2.38D-02.
    222 vectors produced by pass  2 Test12= 7.46D-14 1.00D-09 XBig12= 2.47D-04 1.84D-03.
    222 vectors produced by pass  3 Test12= 7.46D-14 1.00D-09 XBig12= 8.37D-07 8.10D-05.
    222 vectors produced by pass  4 Test12= 7.46D-14 1.00D-09 XBig12= 1.15D-09 2.27D-06.
    171 vectors produced by pass  5 Test12= 7.46D-14 1.00D-09 XBig12= 1.11D-12 5.84D-08.
     11 vectors produced by pass  6 Test12= 7.46D-14 1.00D-09 XBig12= 9.49D-16 2.84D-09.
 InvSVY:  IOpt=1 It=  1 EMax= 6.66D-16
 Solved reduced A of dimension  1292 with   228 vectors.
 End of Minotr F.D. properties file   721 does not exist.
 End of Minotr F.D. properties file   722 does not exist.
 End of Minotr F.D. properties file   788 does not exist.

 **********************************************************************

            Population analysis using the SCF Density.

 **********************************************************************

 Alpha  occ. eigenvalues --  -19.22241 -19.21779 -19.21458 -19.21030 -19.21007
 Alpha  occ. eigenvalues --  -19.20192 -19.19276 -14.53575 -14.51220 -14.50832
 Alpha  occ. eigenvalues --  -14.49447 -14.46202 -14.45099 -14.44905 -14.44899
 Alpha  occ. eigenvalues --  -14.44848 -10.47062 -10.39875 -10.38635 -10.38604
 Alpha  occ. eigenvalues --  -10.38580 -10.38102 -10.37085 -10.35759 -10.34953
 Alpha  occ. eigenvalues --  -10.33448 -10.31945 -10.30818 -10.30398 -10.29927
 Alpha  occ. eigenvalues --  -10.29139 -10.29041 -10.26913 -10.26537 -10.25977
 Alpha  occ. eigenvalues --  -10.25815 -10.25621 -10.25567 -10.25490  -1.15626
 Alpha  occ. eigenvalues --   -1.14947  -1.14460  -1.13878  -1.13399  -1.13350
 Alpha  occ. eigenvalues --   -1.12810  -1.09243  -1.05706  -1.05031  -1.03587
 Alpha  occ. eigenvalues --   -1.03243  -1.02215  -1.01279  -1.01199  -0.99910
 Alpha  occ. eigenvalues --   -0.92853  -0.91151  -0.89692  -0.88557  -0.86610
 Alpha  occ. eigenvalues --   -0.85090  -0.81773  -0.81358  -0.79382  -0.78511
 Alpha  occ. eigenvalues --   -0.77542  -0.75858  -0.74542  -0.72754  -0.71541
 Alpha  occ. eigenvalues --   -0.70263  -0.69976  -0.68836  -0.68574  -0.68326
 Alpha  occ. eigenvalues --   -0.67910  -0.67427  -0.67065  -0.66796  -0.65521
 Alpha  occ. eigenvalues --   -0.64689  -0.63737  -0.63518  -0.63248  -0.62227
 Alpha  occ. eigenvalues --   -0.61776  -0.61181  -0.60475  -0.59799  -0.59019
 Alpha  occ. eigenvalues --   -0.58305  -0.57992  -0.57486  -0.57021  -0.56683
 Alpha  occ. eigenvalues --   -0.56414  -0.55199  -0.54796  -0.54417  -0.54176
 Alpha  occ. eigenvalues --   -0.53815  -0.53383  -0.52824  -0.52476  -0.52301
 Alpha  occ. eigenvalues --   -0.52182  -0.51364  -0.51226  -0.50592  -0.50464
 Alpha  occ. eigenvalues --   -0.50063  -0.49314  -0.49170  -0.48849  -0.48430
 Alpha  occ. eigenvalues --   -0.48125  -0.47759  -0.47149  -0.46949  -0.46266
 Alpha  occ. eigenvalues --   -0.46212  -0.46036  -0.45515  -0.45089  -0.44679
 Alpha  occ. eigenvalues --   -0.44231  -0.42686  -0.42220  -0.41013  -0.40838
 Alpha  occ. eigenvalues --   -0.40308  -0.38319  -0.37575  -0.37051  -0.36475
 Alpha  occ. eigenvalues --   -0.36242  -0.36163  -0.35687  -0.35407  -0.34783
 Alpha  occ. eigenvalues --   -0.34241  -0.34034  -0.33330  -0.32166  -0.31861
 Alpha  occ. eigenvalues --   -0.31173
 Alpha virt. eigenvalues --   -0.12854  -0.09663  -0.08980  -0.07991  -0.07374
 Alpha virt. eigenvalues --   -0.07202  -0.07038  -0.06780  -0.06179  -0.05430
 Alpha virt. eigenvalues --   -0.03670  -0.01930  -0.01890  -0.01721  -0.01024
 Alpha virt. eigenvalues --   -0.00266   0.00562   0.01323   0.01927   0.02093
 Alpha virt. eigenvalues --    0.02352   0.02521   0.03500   0.03525   0.04210
 Alpha virt. eigenvalues --    0.04737   0.04855   0.05123   0.05212   0.06404
 Alpha virt. eigenvalues --    0.06534   0.06749   0.07106   0.07255   0.07869
 Alpha virt. eigenvalues --    0.08121   0.08439   0.08640   0.08930   0.09106
 Alpha virt. eigenvalues --    0.09998   0.10042   0.10497   0.10983   0.11300
 Alpha virt. eigenvalues --    0.11413   0.11920   0.12307   0.12553   0.12927
 Alpha virt. eigenvalues --    0.13263   0.13829   0.14218   0.14771   0.15562
 Alpha virt. eigenvalues --    0.16013   0.16447   0.17182   0.17519   0.17852
 Alpha virt. eigenvalues --    0.18654   0.19762   0.20054   0.20903   0.21255
 Alpha virt. eigenvalues --    0.23932   0.24142   0.24629   0.24703   0.25040
 Alpha virt. eigenvalues --    0.25411   0.26194   0.26673   0.27695   0.28005
 Alpha virt. eigenvalues --    0.28184   0.28932   0.30416   0.31344   0.32113
 Alpha virt. eigenvalues --    0.33089   0.35479   0.36460   0.38177   0.38307
 Alpha virt. eigenvalues --    0.38509   0.39543   0.40400   0.41259   0.41876
 Alpha virt. eigenvalues --    0.42249   0.43299   0.43632   0.43955   0.44586
 Alpha virt. eigenvalues --    0.45664   0.45838   0.46464   0.46673   0.47279
 Alpha virt. eigenvalues --    0.47697   0.47898   0.48293   0.48451   0.48633
 Alpha virt. eigenvalues --    0.49400   0.49872   0.50542   0.50639   0.51579
 Alpha virt. eigenvalues --    0.51930   0.52023   0.52141   0.52739   0.53002
 Alpha virt. eigenvalues --    0.53249   0.53618   0.54113   0.54565   0.54716
 Alpha virt. eigenvalues --    0.55010   0.55139   0.55331   0.56039   0.56357
 Alpha virt. eigenvalues --    0.56536   0.56673   0.57089   0.57240   0.57633
 Alpha virt. eigenvalues --    0.57766   0.58410   0.58896   0.59111   0.60198
 Alpha virt. eigenvalues --    0.60701   0.61366   0.61499   0.62088   0.62178
 Alpha virt. eigenvalues --    0.62935   0.63581   0.64487   0.64875   0.65249
 Alpha virt. eigenvalues --    0.65847   0.66921   0.66942   0.67844   0.68838
 Alpha virt. eigenvalues --    0.69186   0.69338   0.70549   0.70682   0.71148
 Alpha virt. eigenvalues --    0.71297   0.72023   0.72354   0.72634   0.73473
 Alpha virt. eigenvalues --    0.73648   0.73984   0.74292   0.74561   0.75262
 Alpha virt. eigenvalues --    0.75860   0.75918   0.76359   0.76551   0.77101
 Alpha virt. eigenvalues --    0.77515   0.77628   0.77795   0.78094   0.78529
 Alpha virt. eigenvalues --    0.78734   0.78974   0.79348   0.79756   0.79957
 Alpha virt. eigenvalues --    0.80571   0.81015   0.81848   0.82098   0.82189
 Alpha virt. eigenvalues --    0.82678   0.82870   0.83273   0.83820   0.84191
 Alpha virt. eigenvalues --    0.85079   0.85466   0.85674   0.86377   0.86881
 Alpha virt. eigenvalues --    0.87182   0.87688   0.87819   0.88446   0.89391
 Alpha virt. eigenvalues --    0.89567   0.90555   0.91144   0.91961   0.92370
 Alpha virt. eigenvalues --    0.92683   0.92906   0.93384   0.94334   0.95441
 Alpha virt. eigenvalues --    0.95805   0.96480   0.97566   0.98664   0.99068
 Alpha virt. eigenvalues --    0.99976   1.00319   1.00639   1.01462   1.01701
 Alpha virt. eigenvalues --    1.02946   1.03505   1.03653   1.04597   1.05473
 Alpha virt. eigenvalues --    1.05611   1.06990   1.07536   1.08094   1.09407
 Alpha virt. eigenvalues --    1.10101   1.10665   1.11271   1.12226   1.13217
 Alpha virt. eigenvalues --    1.13522   1.13786   1.15010   1.15320   1.15866
 Alpha virt. eigenvalues --    1.16858   1.18096   1.18747   1.19412   1.19915
 Alpha virt. eigenvalues --    1.20685   1.21276   1.21729   1.22327   1.23619
 Alpha virt. eigenvalues --    1.24133   1.25036   1.26876   1.27529   1.28645
 Alpha virt. eigenvalues --    1.29219   1.29619   1.30366   1.31357   1.31542
 Alpha virt. eigenvalues --    1.32329   1.33600   1.34149   1.34687   1.36304
 Alpha virt. eigenvalues --    1.36404   1.36997   1.38045   1.38669   1.40336
 Alpha virt. eigenvalues --    1.41695   1.41786   1.42724   1.43274   1.44453
 Alpha virt. eigenvalues --    1.44569   1.45009   1.45651   1.47361   1.48247
 Alpha virt. eigenvalues --    1.48307   1.49218   1.49664   1.51173   1.52346
 Alpha virt. eigenvalues --    1.53027   1.53672   1.54614   1.55196   1.56362
 Alpha virt. eigenvalues --    1.56653   1.56969   1.58649   1.59573   1.59756
 Alpha virt. eigenvalues --    1.61000   1.61293   1.63586   1.63918   1.64329
 Alpha virt. eigenvalues --    1.64817   1.65749   1.65970   1.67829   1.68184
 Alpha virt. eigenvalues --    1.68711   1.68934   1.69417   1.70453   1.70701
 Alpha virt. eigenvalues --    1.71455   1.72887   1.73404   1.73841   1.74102
 Alpha virt. eigenvalues --    1.74499   1.74995   1.75938   1.76270   1.76497
 Alpha virt. eigenvalues --    1.77847   1.78095   1.78493   1.78614   1.79400
 Alpha virt. eigenvalues --    1.79815   1.80095   1.81499   1.81578   1.82169
 Alpha virt. eigenvalues --    1.82914   1.83065   1.83610   1.84257   1.85089
 Alpha virt. eigenvalues --    1.85974   1.86360   1.86825   1.87314   1.87902
 Alpha virt. eigenvalues --    1.88359   1.89249   1.89590   1.90362   1.90697
 Alpha virt. eigenvalues --    1.91570   1.91938   1.92626   1.92875   1.93389
 Alpha virt. eigenvalues --    1.94198   1.94934   1.96117   1.97180   1.98388
 Alpha virt. eigenvalues --    1.98667   1.99327   1.99473   2.00258   2.00371
 Alpha virt. eigenvalues --    2.00944   2.01543   2.02494   2.03534   2.04469
 Alpha virt. eigenvalues --    2.05420   2.05767   2.05998   2.06136   2.07428
 Alpha virt. eigenvalues --    2.07629   2.07876   2.08872   2.09432   2.09582
 Alpha virt. eigenvalues --    2.10917   2.11847   2.12628   2.13512   2.15052
 Alpha virt. eigenvalues --    2.15927   2.16708   2.17641   2.18253   2.18610
 Alpha virt. eigenvalues --    2.19395   2.20671   2.21118   2.22143   2.23066
 Alpha virt. eigenvalues --    2.24007   2.24564   2.24736   2.25937   2.27534
 Alpha virt. eigenvalues --    2.27737   2.28762   2.30314   2.31476   2.32659
 Alpha virt. eigenvalues --    2.33224   2.33576   2.34725   2.35556   2.35605
 Alpha virt. eigenvalues --    2.35879   2.36721   2.38162   2.39029   2.40763
 Alpha virt. eigenvalues --    2.41229   2.41795   2.43179   2.43786   2.44287
 Alpha virt. eigenvalues --    2.44893   2.45370   2.47618   2.48105   2.48681
 Alpha virt. eigenvalues --    2.49977   2.50713   2.51479   2.52024   2.53089
 Alpha virt. eigenvalues --    2.53358   2.54321   2.54986   2.55097   2.55303
 Alpha virt. eigenvalues --    2.57603   2.58507   2.58922   2.59585   2.60824
 Alpha virt. eigenvalues --    2.61551   2.62097   2.63499   2.65943   2.66409
 Alpha virt. eigenvalues --    2.68024   2.68230   2.68611   2.68766   2.70788
 Alpha virt. eigenvalues --    2.72165   2.73577   2.76910   2.77317   2.81127
 Alpha virt. eigenvalues --    2.82561   2.83531   2.83733   2.86515   2.87849
 Alpha virt. eigenvalues --    2.89778   2.91428   2.91796   2.92178   2.92880
 Alpha virt. eigenvalues --    2.95461   2.96038   2.96898   2.98651   2.99460
 Alpha virt. eigenvalues --    3.01170   3.02196   3.06683   3.08416   3.11265
 Alpha virt. eigenvalues --    3.13235   3.35785   3.69264   3.71210   3.72539
 Alpha virt. eigenvalues --    3.76557   3.79127   3.87800   3.89574   3.93724
 Alpha virt. eigenvalues --    3.97316   3.98295   4.01745   4.02602   4.04995
 Alpha virt. eigenvalues --    4.06241   4.06818   4.09016   4.10358   4.13718
 Alpha virt. eigenvalues --    4.16038   4.18456   4.19854   4.22462   4.24705
 Alpha virt. eigenvalues --    4.26497   4.31921   4.33930   4.36474   4.38081
 Alpha virt. eigenvalues --    4.40833   4.43698   4.44689   4.46418   4.47227
 Alpha virt. eigenvalues --    4.57450   4.62009   4.65475   4.68051   4.71592
 Alpha virt. eigenvalues --    4.73820
          Condensed to atoms (all electrons):
 Mulliken charges:
               1
     1  N   -0.763759
     2  C   -0.094991
     3  C    0.628161
     4  O   -0.524974
     5  C   -0.448629
     6  C    0.618659
     7  N   -0.743533
     8  O   -0.516239
     9  H    0.426073
    10  H    0.237630
    11  H    0.209629
    12  H    0.203613
    13  H    0.361024
    14  H    0.342883
    15  H    0.453980
    16  H    0.409652
    17  N   -0.648403
    18  C   -0.071693
    19  C    0.609979
    20  O   -0.542227
    21  C   -0.345490
    22  C    0.176399
    23  C   -0.161790
    24  C   -0.191589
    25  C   -0.126522
    26  C   -0.134727
    27  C   -0.128467
    28  H    0.396139
    29  H    0.205278
    30  H    0.135604
    31  H    0.172893
    32  H    0.131607
    33  H    0.103899
    34  H    0.147221
    35  H    0.135763
    36  H    0.146519
    37  N   -0.596872
    38  C   -0.092342
    39  C    0.644727
    40  O   -0.583534
    41  C   -0.385199
    42  C    0.613574
    43  N   -0.731396
    44  O   -0.534761
    45  H    0.358646
    46  H    0.213681
    47  H    0.210822
    48  H    0.182570
    49  H    0.362263
    50  H    0.360709
    51  N   -0.623588
    52  C    0.037753
    53  C    0.599932
    54  O   -0.639513
    55  C   -0.328988
    56  C   -0.302746
    57  C   -0.176926
    58  N   -0.561215
    59  C    0.717349
    60  N   -0.716838
    61  N   -0.742758
    62  O   -0.583196
    63  H    0.360160
    64  H    0.166374
    65  H    0.170779
    66  H    0.148352
    67  H    0.195665
    68  H    0.179586
    69  H    0.198666
    70  H    0.165065
    71  H    0.371840
    72  H    0.381963
    73  H    0.372743
    74  H    0.408697
    75  H    0.368384
 Sum of Mulliken charges =   1.00000
 Mulliken charges with hydrogens summed into heavy atoms:
               1
     1  N    0.525945
     2  C    0.142639
     3  C    0.628161
     4  O   -0.524974
     5  C   -0.035387
     6  C    0.618659
     7  N   -0.039627
     8  O   -0.516239
    17  N   -0.252265
    18  C    0.133585
    19  C    0.609979
    20  O   -0.542227
    21  C   -0.036992
    22  C    0.176399
    23  C   -0.030183
    24  C   -0.087689
    25  C    0.020699
    26  C    0.001036
    27  C    0.018051
    37  N   -0.238226
    38  C    0.121339
    39  C    0.644727
    40  O   -0.583534
    41  C    0.008193
    42  C    0.613574
    43  N   -0.008425
    44  O   -0.534761
    51  N   -0.263428
    52  C    0.204127
    53  C    0.599932
    54  O   -0.639513
    55  C   -0.009858
    56  C    0.072505
    57  C    0.186806
    58  N   -0.189375
    59  C    0.717349
    60  N    0.037868
    61  N    0.034324
    62  O   -0.583196
 APT charges:
               1
     1  N   -1.259509
     2  C   -2.271301
     3  C   -1.693679
     4  O    2.570007
     5  C    0.730258
     6  C   -2.363094
     7  N   -0.641318
     8  O    2.587826
     9  H    1.215896
    10  H    2.080280
    11  H   -0.822911
    12  H    0.510463
    13  H    1.393670
    14  H   -1.164457
    15  H   -0.702087
    16  H    1.635520
    17  N    0.403038
    18  C   -1.928605
    19  C    1.930561
    20  O   -2.025449
    21  C   -0.364236
    22  C   -2.492868
    23  C   -0.241946
    24  C   -0.875926
    25  C    0.145666
    26  C   -0.721589
    27  C    0.071680
    28  H   -0.917231
    29  H    1.662400
    30  H   -0.809136
    31  H    0.999565
    32  H    0.727108
    33  H   -1.205614
    34  H    2.473751
    35  H    0.322510
    36  H    2.244593
    37  N    0.766029
    38  C   -1.324030
    39  C   -0.000842
    40  O    0.936490
    41  C   -2.835318
    42  C    2.433246
    43  N   -1.307922
    44  O   -2.874944
    45  H   -0.476258
    46  H    1.428690
    47  H    1.434052
    48  H    1.274100
    49  H   -0.458998
    50  H    2.394890
    51  N   -0.876258
    52  C   -0.850124
    53  C   -0.083033
    54  O   -0.728118
    55  C   -0.632960
    56  C   -0.811681
    57  C    0.369251
    58  N   -1.696224
    59  C    0.072258
    60  N   -0.580428
    61  N   -1.322480
    62  O    0.026511
    63  H   -0.144923
    64  H    0.699434
    65  H    0.222395
    66  H    0.216972
    67  H    0.811163
    68  H   -0.002688
    69  H    0.072622
    70  H   -0.231603
    71  H    1.107610
    72  H    0.953742
    73  H   -0.550774
    74  H    1.120026
    75  H    1.246284
 Sum of APT charges =   1.00000
 APT charges with hydrogens summed into heavy atoms:
               1
     1  N    0.889820
     2  C   -0.191021
     3  C   -1.693679
     4  O    2.570007
     5  C    0.417810
     6  C   -2.363094
     7  N   -0.412105
     8  O    2.587826
    17  N   -0.514192
    18  C   -0.266205
    19  C    1.930561
    20  O   -2.025449
    21  C   -0.173807
    22  C   -2.492868
    23  C    0.485163
    24  C   -2.081540
    25  C    2.619416
    26  C   -0.399079
    27  C    2.316273
    37  N    0.289771
    38  C    0.104660
    39  C   -0.000842
    40  O    0.936490
    41  C   -0.127167
    42  C    2.433246
    43  N    0.627970
    44  O   -2.874944
    51  N   -1.021182
    52  C   -0.150689
    53  C   -0.083033
    54  O   -0.728118
    55  C   -0.193592
    56  C   -0.003205
    57  C    0.210271
    58  N   -0.588615
    59  C    0.072258
    60  N   -0.177461
    61  N    1.043831
    62  O    0.026511
 Electronic spatial extent (au):  <R**2>=         135749.7944
 Charge=              1.0000 electrons
 Dipole moment (field-independent basis, Debye):
    X=            -27.5673    Y=             -3.1855    Z=            -30.1588  Tot=             40.9836
 Quadrupole moment (field-independent basis, Debye-Ang):
   XX=            -46.5418   YY=           -156.5133   ZZ=             19.7140
   XY=             16.8648   XZ=            193.2630   YZ=              1.1247
 Traceless Quadrupole moment (field-independent basis, Debye-Ang):
   XX=             14.5719   YY=            -95.3996   ZZ=             80.8277
   XY=             16.8648   XZ=            193.2630   YZ=              1.1247
 Octapole moment (field-independent basis, Debye-Ang**2):
  XXX=           3616.7377  YYY=            887.8794  ZZZ=           2909.3549  XYY=           1216.8448
  XXY=            220.5364  XXZ=            324.1457  XZZ=            -38.6778  YZZ=            515.2483
  YYZ=           1156.7139  XYZ=             -1.5822
 Hexadecapole moment (field-independent basis, Debye-Ang**3):
 XXXX=         -68968.7366 YYYY=         -10165.4059 ZZZZ=         -62213.3202 XXXY=          -7330.0383
 XXXZ=         -27148.0132 YYYX=          -7692.4127 YYYZ=          -7982.3936 ZZZX=         -22869.5406
 ZZZY=         -11265.2337 XXYY=         -12467.6238 XXZZ=         -14589.4335 YYZZ=         -11460.6122
 XXYZ=          -2433.1640 YYXZ=          -9179.4017 ZZXY=          -3850.3768
 N-N= 5.140224057245D+03 E-N=-1.472354011565D+04  KE= 1.900650145475D+03
  Exact polarizability:       0.000       0.000       0.000       0.000       0.000       0.000
 Approx polarizability:     413.104     -14.262     453.069      39.713      26.388     499.493
 Calling FoFJK, ICntrl=    100127 FMM=F ISym2X=0 I1Cent= 0 IOpClX= 0 NMat=1 NMatS=1 NMatT=0.
 -------------------------------------------------------------------
 Center     Atomic                   Forces (Hartrees/Bohr)
 Number     Number              X              Y              Z
 -------------------------------------------------------------------
      1        7           0.010212458   -0.000835808   -0.010447072
      2        6          -0.020647695   -0.008082186    0.011645427
      3        6          -0.011077778    0.013459998   -0.009175758
      4        8           0.007568549   -0.007319557    0.006390614
      5        6           0.002416409   -0.008827299   -0.001387135
      6        6           0.004257253   -0.003886598    0.010465546
      7        7          -0.006640242    0.005868857   -0.006325430
      8        8           0.001789290    0.001415803   -0.012493641
      9        1          -0.001687858    0.002270452    0.001365812
     10        1           0.000204544    0.003524802   -0.001065923
     11        1           0.004918949    0.003534334    0.005287210
     12        1          -0.004411309    0.000820687   -0.001869343
     13        1           0.003237221   -0.004875967    0.000343797
     14        1           0.001937600   -0.000610637    0.004806579
     15        1           0.007939399    0.006762661    0.004389773
     16        1           0.002090686   -0.003118643   -0.001590189
     17        7          -0.005001173   -0.001152403   -0.009894064
     18        6          -0.006604750    0.002270895   -0.000031395
     19        6           0.001826111   -0.002082044   -0.008608080
     20        8           0.002825688   -0.001793526    0.015740606
     21        6          -0.000454324   -0.001057027    0.003056079
     22        6          -0.000277079   -0.000155412   -0.000279468
     23        6          -0.001201774    0.001813100   -0.001307239
     24        6           0.002706635   -0.001109347   -0.000361021
     25        6          -0.000825572    0.002943738   -0.000520018
     26        6           0.000174801   -0.003591824    0.000094067
     27        6           0.000036426   -0.000806415   -0.000754368
     28        1           0.008918223   -0.003417117    0.007628736
     29        1          -0.001453846    0.001312083   -0.000778735
     30        1          -0.000217626   -0.000435876    0.003493319
     31        1          -0.002338271    0.001682530    0.002349915
     32        1          -0.001898335   -0.000224915   -0.001246516
     33        1           0.001488128   -0.000627042    0.002415195
     34        1          -0.000962422   -0.000056014   -0.001254740
     35        1           0.000495073   -0.002736868    0.000348531
     36        1          -0.000567006   -0.001229945   -0.001049815
     37        7          -0.002788626   -0.000914586    0.005503247
     38        6           0.002366516   -0.000872789   -0.001562616
     39        6           0.003013168    0.014248499    0.007888039
     40        8           0.002429596   -0.012817813   -0.013972720
     41        6          -0.002104993    0.002685276   -0.003900523
     42        6          -0.002523721    0.000711259   -0.010480739
     43        7          -0.002457925   -0.006519787    0.004925925
     44        8           0.004649673    0.001411090    0.013842331
     45        1           0.003177726    0.004917898   -0.000258022
     46        1          -0.001708656    0.001466741   -0.004446986
     47        1          -0.003616587    0.002271932   -0.001063607
     48        1          -0.000484270   -0.002516771   -0.001567521
     49        1           0.002235399    0.005605233    0.000901134
     50        1           0.000929000    0.002427824   -0.004758289
     51        7          -0.002962463    0.001237419   -0.000706122
     52        6           0.002521877   -0.011939789   -0.005169589
     53        6           0.016041686    0.044110922    0.000362849
     54        8          -0.026147088   -0.020544533    0.027072785
     55        6          -0.002919110    0.005411700   -0.001809169
     56        6          -0.000941492    0.006484386   -0.000931790
     57        6           0.001349091   -0.008500053    0.003710002
     58        7           0.000191690    0.008042270    0.001800565
     59        6           0.004958936    0.005650276   -0.001468378
     60        7           0.003084683   -0.008725568    0.001993860
     61        7           0.001630878   -0.000984994   -0.001543907
     62        8           0.010407814   -0.028457948   -0.023585339
     63        1          -0.004059782    0.002969125    0.003780473
     64        1           0.001493834    0.001286818   -0.000003927
     65        1           0.002071247    0.002739319    0.000803407
     66        1          -0.001719442   -0.000753193    0.001019346
     67        1           0.001474853   -0.003947971   -0.001532889
     68        1           0.002358200   -0.001908815    0.003036045
     69        1           0.001923766   -0.000920716    0.002697182
     70        1          -0.001882341    0.000330877    0.000828352
     71        1          -0.001347270   -0.001952203   -0.005404296
     72        1          -0.001190291    0.002707504   -0.000298354
     73        1          -0.002871616    0.002732101   -0.001630067
     74        1          -0.005332702    0.001070820   -0.000515337
     75        1          -0.000027643    0.002110767   -0.002936613
 -------------------------------------------------------------------
 Cartesian Forces:  Max     0.044110922 RMS     0.006853797
 FormGI is forming the generalized inverse of G from B-inverse, IUseBI=4.

 GradGradGradGradGradGradGradGradGradGradGradGradGradGradGradGradGradGrad
 Berny optimization.
 Internal  Forces:  Max     0.041968426 RMS     0.006380926
 Search for a local minimum.
 Step number   1 out of a maximum of  399
 All quantities printed in internal units (Hartrees-Bohrs-Radians)
 Mixed Optimization -- RFO/linear search
 Second derivative matrix not updated -- analytic derivatives used.
 ITU=  0
     Eigenvalues ---   -0.00229   0.00021   0.00081   0.00095   0.00139
     Eigenvalues ---    0.00171   0.00208   0.00278   0.00303   0.00372
     Eigenvalues ---    0.00441   0.00466   0.00535   0.00565   0.00586
     Eigenvalues ---    0.00726   0.00904   0.00962   0.01067   0.01232
     Eigenvalues ---    0.01487   0.01532   0.01553   0.01597   0.01684
     Eigenvalues ---    0.01742   0.01747   0.01781   0.01841   0.01900
     Eigenvalues ---    0.01990   0.02130   0.02354   0.02397   0.02489
     Eigenvalues ---    0.02591   0.02656   0.02687   0.02790   0.02866
     Eigenvalues ---    0.03501   0.03555   0.03713   0.03800   0.03838
     Eigenvalues ---    0.04097   0.04165   0.04239   0.04252   0.04318
     Eigenvalues ---    0.04361   0.04487   0.04517   0.04535   0.04679
     Eigenvalues ---    0.04700   0.04723   0.04797   0.04920   0.04979
     Eigenvalues ---    0.05056   0.05285   0.05398   0.05621   0.05648
     Eigenvalues ---    0.06024   0.06156   0.06268   0.06433   0.06999
     Eigenvalues ---    0.07490   0.07770   0.07938   0.08170   0.08260
     Eigenvalues ---    0.08322   0.08375   0.08816   0.08840   0.10493
     Eigenvalues ---    0.10958   0.11027   0.11078   0.11235   0.11322
     Eigenvalues ---    0.11750   0.11765   0.11872   0.11943   0.12283
     Eigenvalues ---    0.12402   0.12585   0.12676   0.13061   0.13159
     Eigenvalues ---    0.13266   0.13575   0.13583   0.13677   0.13699
     Eigenvalues ---    0.14177   0.14394   0.14608   0.14734   0.15901
     Eigenvalues ---    0.16606   0.16833   0.17217   0.18770   0.19159
     Eigenvalues ---    0.19264   0.19453   0.19656   0.19749   0.20008
     Eigenvalues ---    0.20462   0.20611   0.20679   0.20976   0.21773
     Eigenvalues ---    0.21909   0.22223   0.22334   0.22537   0.22759
     Eigenvalues ---    0.23154   0.24086   0.24326   0.24643   0.24975
     Eigenvalues ---    0.25194   0.25611   0.25777   0.26571   0.26733
     Eigenvalues ---    0.27267   0.27695   0.28397   0.28566   0.29656
     Eigenvalues ---    0.30078   0.30481   0.31024   0.31844   0.32144
     Eigenvalues ---    0.32696   0.33225   0.33749   0.33972   0.34039
     Eigenvalues ---    0.34194   0.34321   0.34360   0.34435   0.34458
     Eigenvalues ---    0.34523   0.34626   0.34708   0.34874   0.34950
     Eigenvalues ---    0.35074   0.35191   0.35337   0.35590   0.35829
     Eigenvalues ---    0.36063   0.36271   0.36449   0.36604   0.36699
     Eigenvalues ---    0.36849   0.36879   0.37279   0.38779   0.40466
     Eigenvalues ---    0.41220   0.41533   0.42662   0.42703   0.43110
     Eigenvalues ---    0.43487   0.43903   0.44079   0.45070   0.45283
     Eigenvalues ---    0.45602   0.46085   0.46633   0.46905   0.47105
     Eigenvalues ---    0.47308   0.47394   0.47492   0.48093   0.48404
     Eigenvalues ---    0.48525   0.49329   0.49553   0.49600   0.49768
     Eigenvalues ---    0.49910   0.50313   0.52411   0.52542   0.55249
     Eigenvalues ---    0.55644   0.63372   0.63859   0.66674   0.78424
     Eigenvalues ---    0.83374   0.83506   0.84850   0.85467   0.87409
     Eigenvalues ---    1.01918   1.07185   2.10726   6.07854
 RFO step:  Lambda=-3.39441725D-02 EMin=-2.28542765D-03
 Linear search not attempted -- first point.
 Iteration  1 RMS(Cart)=  0.18003411 RMS(Int)=  0.01382370
 Iteration  2 RMS(Cart)=  0.03386312 RMS(Int)=  0.00114096
 Iteration  3 RMS(Cart)=  0.00149097 RMS(Int)=  0.00017238
 Iteration  4 RMS(Cart)=  0.00000650 RMS(Int)=  0.00017232
 Iteration  5 RMS(Cart)=  0.00000000 RMS(Int)=  0.00017232
 Variable       Old X    -DE/DX   Delta X   Delta X   Delta X     New X
                                 (Linear)    (Quad)   (Total)
    R1        2.78616   0.01940   0.00000   0.05504   0.05504   2.84120
    R2        1.93771   0.00174   0.00000   0.00355   0.00355   1.94126
    R3        1.96476   0.01012   0.00000   0.01898   0.01898   1.98374
    R4        1.93204   0.00386   0.00000   0.00814   0.00814   1.94018
    R5        2.89173   0.00709   0.00000   0.02099   0.02099   2.91272
    R6        2.86542   0.00541   0.00000   0.01634   0.01634   2.88176
    R7        2.06627  -0.00145   0.00000  -0.00497  -0.00497   2.06130
    R8        2.33546  -0.01187   0.00000  -0.01851  -0.01851   2.31695
    R9        2.56405  -0.00030   0.00000   0.00251   0.00251   2.56656
   R10        2.87294   0.00514   0.00000   0.01806   0.01806   2.89100
   R11        2.04280   0.00801   0.00000   0.02187   0.02187   2.06467
   R12        2.06512   0.00215   0.00000   0.00641   0.00641   2.07153
   R13        2.56978  -0.00174   0.00000  -0.01319  -0.01319   2.55658
   R14        2.30925   0.01182   0.00000   0.01702   0.01702   2.32627
   R15        1.89887   0.00541   0.00000   0.01084   0.01084   1.90970
[...]
 0.00006670,0.00004190,0.00007149,-0.00003138,0.00012119,-0.00003617,-0
 .00001009,-0.00001243,0.00000805,-0.00000818,-0.00000713,0.00000237,-0
 .00000934,0.00000399,-0.00000331,0.00001151,-0.00000107,-0.00001305,0.
 00002234,-0.00001027,-0.00000847,0.00001236,-0.00000915,0.00022861,0.0
 0001635,0.00024760,-0.00019230,0.00001694,-0.00010764,-0.00001461,-0.0
 0031064,-0.00014574,0.00030277,0.00005599,0.00027840,0.00003476,0.0000
 4207,-0.00004348,0.00046987,0.00076680,-0.00009179,-0.00041151,-0.0017
 2544,-0.00085419,0.00073211,-0.00000680,0.00012159,-0.01161826,0.01187
 054,-0.01176318,-0.21834660,0.03463976,-0.22995076,-0.00016439,-0.0028
 6925,-0.00012777,0.00010521,0.00023677,0.00018063,-0.00008147,-0.00002
 874,0.00000375,0.00003423,0.00001821,0.00002238,0.00002726,-0.00002516
 ,0.00002205,-0.00012720,0.00001965,-0.00003315,-0.00006105,0.00003076,
 0.00036581,-0.00000747,-0.00005578,-0.00003231,-0.00001247,0.00037392,
 0.00012693,0.00175063,0.00037346,-0.00072900,-0.00034959,0.00001650,-0
 .00031073,0.01100083,-0.00027883,0.00913268,0.21773327,-0.04237343,0.2
 3272452,-0.00008717,-0.00002520,-0.00016878,0.00011318,0.00002891,0.00
 002335,0.00001188,0.00000387,-0.00009846,-0.00006429,0.00002806,0.0000
 5111,-0.00003332,-0.00000615,0.00002955,0.00007411,0.00005061,-0.00003
 582,-0.00003176,-0.00002934,0.00000242,-0.00006916,-0.00003590,0.00001
 748,0.00001160,0.00002687,0.00002469,-0.00002262,0.00000219,0.00000496
 ,0.00003963,0.00001975,-0.00000136,0.00000248,-0.00000780,-0.00001866,
 0.00000512,0.00000037,0.00000548,0.00002000,-0.00000491,-0.00001057,0.
 00007077,0.00000466,0.00032724,-0.00000348,0.00003575,0.00001793,-0.00
 018862,0.00009473,0.00017798,0.00021031,-0.00016922,0.00008202,0.00087
 829,0.00086274,-0.00180089,-0.00154302,-0.00003406,0.00154133,-0.00000
 180,-0.00002214,0.00007704,-0.00002807,-0.00008100,-0.00002570,0.00000
 134,0.00002849,0.00002420,0.00001991,0.00002854,0.00006381,-0.00000593
 ,-0.00000774,0.00000058,-0.00001829,0.00000152,-0.00000326,-0.00001098
 ,0.00001754,0.00001751,0.00022509,0.00000655,0.00011273,-0.00000916,0.
 00005904,0.00000523,0.00011352,-0.00002226,-0.00005436,-0.00009952,-0.
 00002397,-0.00004399,-0.00000818,-0.00000038,-0.00001560,0.00002310,0.
 00000810,-0.00002270,0.00000429,0.00000399,0.00000038,0.00000246,0.000
 01440,-0.00000189,0.00000302,0.00000696,-0.00000281,-0.00057451,-0.000
 80045,0.00086636,0.00011596,-0.00001108,-0.00038169,0.00042323,-0.0001
 5338,0.00063952,-0.00017163,0.00003575,-0.00025704,-0.00007484,0.00002
 599,0.00003125,0.00010392,0.00002422,0.00019562,-0.00003866,0.00003205
 ,-0.00006619,-0.00022587,-0.00000984,-0.00022688,0.00027577,0.00010161
 ,0.00005067,-0.00003220,0.00001123,0.00003399,-0.00000216,0.00002697,-
 0.00003426,-0.00001486,-0.00005082,0.00001285,0.00001969,-0.00002199,0
 .00001533,0.00002495,-0.00000469,0.00000208,-0.00045252,0.00011861,-0.
 00036868,0.00020737,-0.00006266,0.00004342,-0.00058436,0.00021290,0.00
 106973,0.00104489,-0.00088963,-0.00183734,-0.00011862,0.00015621,0.000
 14016,0.00041292,-0.00001904,0.00002836,-0.00022713,0.00145688,-0.0017
 9564,-0.00008656,-0.00217305,-0.00253061,-0.02001285,0.01732491,0.0119
 1363,0.00197698,-0.00013772,0.00248036,-0.27067755,0.18832611,0.077133
 57,-0.00004239,-0.00052075,-0.00088482,0.00014936,-0.00001280,0.000343
 36,0.00000004,0.00000850,-0.00002904,0.00003961,-0.00002082,-0.0000291
 3,0.00001740,-0.00007692,-0.00005465,-0.00001030,-0.00002000,-0.000012
 81,0.00004329,-0.00002686,-0.00012770,-0.00045728,-0.00015219,0.000176
 82,-0.00001171,-0.00003951,0.00001764,-0.00030059,-0.00057421,0.000403
 41,-0.00099939,-0.00143894,-0.00165802,0.00009809,-0.00000345,0.000098
 95,0.28131850,-0.00000274,-0.00004197,-0.00002124,0.00002233,0.0000232
 4,0.00000033,-0.00002796,0.00003815,-0.00004469,0.00001130,-0.00005673
 ,0.00002665,-0.00000083,0.00000346,-0.00000118,0.00002753,0.00003571,-
 0.00001885,-0.00000402,-0.00002893,0.00001291,-0.00002499,-0.00002834,
 0.00001862,-0.00000548,0.00005412,0.00001240,-0.00000370,-0.00000072,0
 .00000196,0.00000961,0.00000522,-0.00000391,0.00000460,0.00000044,-0.0
 0000898,-0.00000354,-0.00000028,-0.00000557,0.00000546,-0.00000024,-0.
 00001400,-0.00000026,0.00001279,0.00001553,-0.00000275,0.00002284,0.00
 000491,-0.00005763,-0.00008646,0.00003938,0.00006584,0.00002630,-0.000
 06564,0.00033606,0.00035644,-0.00016794,0.00008548,-0.00093774,0.00080
 468,-0.00007863,0.00000864,-0.00007040,0.00002063,-0.00003724,0.000050
 10,-0.00001525,0.00002385,0.00000633,-0.00004272,-0.00000400,-0.000007
 32,0.00000608,-0.00000048,0.00001302,0.00000192,-0.00000558,0.00000681
 ,-0.00000221,0.00000152,0.00001025,0.00002672,0.00003049,-0.00001476,-
 0.00001292,-0.00002991,0.00001283,0.00009019,-0.00003173,-0.00005326,-
 0.00004198,0.00001083,-0.00003794,0.00000822,-0.00000266,-0.00000171,0
 .00002419,0.00000111,-0.00001561,0.00000451,0.00000471,0.00000260,0.00
 000177,-0.00000180,-0.00000605,0.00000388,0.00000436,0.00000034,-0.000
 16455,-0.00036107,0.00024567,-0.00010431,-0.00001973,-0.00001112,0.000
 00192,0.00004551,0.00008125,0.00003798,-0.00008850,-0.00007657,-0.0000
 1591,0.00002784,-0.00004290,-0.00000655,-0.00009934,0.00053135,0.00010
 039,0.00012903,-0.00019642,0.00001394,-0.00002299,-0.00056160,0.000075
 03,0.00008765,0.00035916,0.00002575,0.00000692,-0.00001762,0.00000170,
 -0.00001522,0.00000186,-0.00000550,-0.00001416,-0.00001528,-0.00003677
 ,-0.00001398,0.00002318,-0.00000591,0.00001657,0.00001762,0.00001028,-
 0.00009366,0.00005949,-0.00008399,0.00002255,-0.00011836,-0.00009883,-
 0.00024302,0.00008973,0.00092628,-0.00042264,-0.00048235,-0.00005956,0
 .00003374,0.00002016,0.00006962,-0.00013102,-0.00021305,0.00037591,0.0
 0009789,-0.00060549,0.00016864,0.00621265,-0.00322074,-0.00193571,-0.0
 0179585,0.00689171,-0.00229088,-0.00174789,0.00097435,0.18855889,-0.17
 847997,-0.10618299,0.00002266,-0.00007565,-0.00019269,-0.00007330,0.00
 017582,0.00014544,0.00002370,-0.00000705,0.00000674,-0.00001971,-0.000
 00435,0.00005487,0.00001197,0.00011442,-0.00008486,0.00001537,-0.00001
 168,-0.00000696,-0.00004032,0.00000765,0.00003648,-0.00033748,0.000006
 88,0.00008912,-0.00009081,0.00001447,0.00010439,-0.00092647,-0.0006538
 6,-0.00012594,-0.00091556,0.00056577,-0.00132582,0.00024925,-0.0001775
 6,0.00028342,-0.19633147,0.18424708,-0.00007326,0.00010240,-0.00010566
 ,0.00005239,-0.00002936,0.00001932,-0.00005447,-0.00002635,-0.00029043
 ,0.00001579,0.00007764,0.00013798,-0.00003978,-0.00000568,0.00004711,0
 .00002162,-0.00008219,-0.00003569,-0.00000770,0.00006843,0.00000793,-0
 .00001802,0.00005556,0.00001361,0.00001930,-0.00012155,-0.00004619,-0.
 00002031,0.00000669,0.00000550,0.00001731,0.00000525,0.00000321,-0.000
 00518,-0.00000645,-0.00000650,0.00000708,-0.00000659,0.00000211,0.0000
 0501,-0.00001352,-0.00000121,0.00005768,-0.00004354,0.00027309,0.00000
 160,-0.00002955,-0.00002364,-0.00003897,0.00041363,0.00036589,-0.00012
 369,-0.00027906,0.00015445,0.00109746,0.00086157,-0.00344896,0.0007578
 2,0.00062800,0.00341230,-0.00001173,0.00000820,0.00018759,-0.00001576,
 -0.00008091,-0.00010007,0.00002037,0.00004930,0.00001387,0.00006767,0.
 00005303,0.00006374,-0.00000760,-0.00001058,-0.00002020,-0.00001106,0.
 00000417,-0.00000845,-0.00000371,0.00002224,0.00000766,0.00015561,-0.0
 0006551,0.00013781,-0.00001913,0.00009755,-0.00000316,0.00003745,-0.00
 003318,-0.00000014,-0.00005064,-0.00003418,0.00001820,-0.00003109,-0.0
 0000656,-0.00000700,-0.00000678,-0.00000317,0.00000248,0.00000017,0.00
 000352,0.00000768,-0.00000603,0.00001686,0.00000771,-0.00000313,0.0000
 0677,0.00000259,-0.00039569,-0.00118135,0.00126297,0.00019761,0.000040
 39,-0.00061992,0.00027928,-0.00024122,0.00013410,-0.00027407,0.0002653
 6,0.00017819,-0.00008370,0.00005537,0.00009069,0.00016961,0.00033381,-
 0.00052202,-0.00017100,-0.00027938,0.00019885,-0.00015637,-0.00026285,
 0.00049906,0.00003462,0.00032225,-0.00031435,-0.00007379,-0.00000974,0
 .00007635,0.00000423,0.00003300,-0.00003524,-0.00002497,-0.00005419,0.
 00003636,0.00002578,0.00003445,0.00000696,0.00000738,0.00000563,-0.000
 02182,-0.00019371,0.00022369,-0.00016757,0.00018091,-0.00018330,0.0000
 9366,-0.00089373,-0.00037438,0.00137728,0.00163053,-0.00096825,-0.0023
 3337,0.00002010,0.00001330,-0.00009341,-0.00043206,-0.00001707,0.00000
 137,0.00007841,0.00044084,0.00097872,-0.00528106,-0.00350878,0.0011806
 8,-0.01248678,0.01783509,0.00611742,0.00103798,0.00092285,-0.00184054,
 0.07979978,-0.10596182,-0.08854628,0.00008666,-0.00028892,-0.00095350,
 0.00027518,-0.00023753,-0.00013069,0.00000385,0.00008107,-0.00001771,0
 .00002764,0.00001530,0.00000723,-0.00000922,-0.00006474,0.00007259,-0.
 00001020,0.00003573,-0.00000532,0.00000551,0.00002820,0.00012297,0.000
 04624,0.00008333,-0.00000837,0.00004083,-0.00004561,-0.00002954,0.0000
 0865,0.00046392,-0.00071963,-0.00124171,-0.00132792,0.00054108,0.00027
 150,0.00019449,-0.00054630,-0.08626778,0.10166516,0.08300876,-0.000289
 68,-0.00000194,-0.00068416,0.00035230,0.00008140,0.00006130,0.00005250
 ,-0.00005756,-0.00034355,-0.00018309,0.00013136,0.00019219,-0.00010704
 ,-0.00002710,0.00009990,0.00019354,0.00014451,-0.00009595,-0.00008267,
 -0.00007468,0.00001078,-0.00018210,-0.00010047,0.00004072,0.00002363,-
 0.00003766,0.00003870,-0.00007919,0.00000203,0.00001308,0.00013135,0.0
 0007173,-0.00000263,0.00000424,-0.00002490,-0.00005966,0.00001113,0.00
 000081,0.00001440,0.00005354,-0.00001547,-0.00003140,0.00025380,-0.000
 04417,0.00131699,-0.00002664,0.00011113,0.00004071,-0.00054840,0.00030
 311,0.00042662,0.00079543,-0.00057607,-0.00034485,0.00226138,0.0019241
 3,-0.00952388,0.00065465,-0.00068814,0.00641624,-0.00055188,0.00022016
 ,-0.00012065,0.00013518,-0.00034004,-0.00000216,-0.00000906,0.00019543
 ,0.00007748,0.00003728,0.00008738,0.00017358,0.00001233,-0.00002690,0.
 00001948,-0.00005011,0.00000666,-0.00000040,-0.00002641,0.00006414,0.0
 0005531,0.00084152,-0.00005975,0.00036119,-0.00011489,0.00017179,0.000
 08521,0.00010892,-0.00076446,-0.00024950,-0.00012392,-0.00005581,0.000
 02081,-0.00003304,-0.00001373,-0.00003207,0.00009009,0.00001893,-0.000
 08442,0.00001296,0.00002428,0.00001395,0.00000250,0.00004720,-0.000001
 52,0.00000819,0.00002300,-0.00000361,-0.00171005,-0.00289961,0.0029770
 6,0.00019331,0.00000038,-0.00140232,0.00119499,-0.00054461,0.00173255,
 -0.00056286,0.00029064,-0.00054736,-0.00022497,0.00010546,0.00013766,0
 .00025054,0.00021546,0.00000604,-0.00014580,-0.00010514,0.00001257,-0.
 00040334,-0.00019032,-0.00005260,0.00035549,0.00043718,0.00019819,-0.0
 0011110,0.00003055,0.00011087,0.00000452,0.00009090,-0.00008002,-0.000
 03637,-0.00013956,0.00005423,0.00003093,-0.00001589,0.00001374,0.00004
 055,-0.00000428,-0.00000755,-0.00108199,0.00060374,-0.00105042,0.00061
 204,-0.00040023,0.00036582,-0.00444633,-0.00048261,0.00599180,0.002947
 69,-0.00037606,-0.00427881,-0.00020739,0.00040815,0.00008522,-0.000182
 33,0.00001409,-0.00012399,-0.00047891,-0.00007499,0.00055248,0.0005420
 2,-0.00074394,0.00136514,-0.00455693,-0.02382095,-0.02771924,-0.003899
 16,0.00421152,-0.00272928,-0.07262819,-0.01532711,-0.05647776,0.000359
 18,-0.00197239,-0.00445662,0.00057729,-0.00060093,0.00066399,0.0000784
 1,0.00018996,-0.00011445,0.00022402,-0.00005451,-0.00006352,-0.0000764
 5,-0.00044093,-0.00009526,-0.00006472,0.00005748,0.00002153,0.00007869
 ,0.00002649,0.00004969,0.00026796,-0.00003501,-0.00001130,0.00019274,0
 .00005205,-0.00002266,-0.00257091,0.00261175,-0.00225777,-0.00017002,-
 0.00004436,0.00018617,-0.00021840,-0.00114815,-0.00099683,0.00923928,0
 .01242562,0.02197727,0.07295825,0.00017004,-0.00010954,0.00080870,-0.0
 0016051,-0.00000673,-0.00004239,-0.00013007,0.00008955,-0.00044315,0.0
 0021111,-0.00027316,0.00023834,0.00002030,0.00005958,-0.00002085,0.000
 04163,-0.00019906,-0.00009288,0.00001851,0.00010343,0.00005159,-0.0000
 2670,0.00010319,0.00009093,0.00002886,0.00028563,0.00002007,0.00004772
 ,0.00000486,0.00000292,-0.00007074,-0.00006897,-0.00002043,0.00001079,
 0.00001595,0.00000854,0.00000003,-0.00002017,-0.00002356,-0.00000134,-
 0.00002337,-0.00003400,-0.00013319,0.00007392,-0.00151330,0.00006101,-
 0.00010388,-0.00004134,0.00017531,-0.00035964,0.00015012,0.00020625,0.
 00030049,0.00000958,-0.00020471,0.00075536,0.00298453,-0.00180173,-0.0
 0149017,-0.00271039,-0.00053199,0.00011095,-0.00074103,0.00020075,-0.0
 0017179,0.00020607,-0.00004522,0.00012875,0.00000993,-0.00014248,0.000
 02683,-0.00015643,0.00003244,0.00000923,0.00003687,0.00006798,-0.00006
 153,0.00002784,0.00001028,0.00001199,0.00002751,-0.00061708,0.00006337
 ,-0.00049835,0.00000930,-0.00012932,0.00007767,-0.00036319,-0.00050103
 ,0.00000753,0.00017897,0.00004321,0.00009765,0.00001262,-0.00001519,0.
 00000725,0.00001410,-0.00010127,0.00004918,0.00001141,0.00001823,0.000
 01825,-0.00001176,0.00000212,-0.00000214,0.00000949,0.00001792,0.00001
 788,0.00002584,0.00053840,-0.00079809,-0.00022657,0.00003271,0.0004956
 1,-0.00005120,0.00020080,-0.00008518,0.00016715,-0.00045224,-0.0002610
 2,0.00003626,-0.00001444,-0.00011977,-0.00000939,-0.00011171,0.0006274
 9,0.00009858,0.00015077,-0.00022580,-0.00001790,0.00009714,-0.00060954
 ,0.00015666,-0.00026541,0.00029490,0.00007719,0.00004589,-0.00007727,0
 .00000146,-0.00004597,0.00001899,0.00000900,0.00003464,-0.00003307,-0.
 00002163,-0.00002035,0.00002156,0.00000321,0.00001787,0.00001780,-0.00
 038814,-0.00070037,0.00031792,-0.00012908,0.00070834,0.00054514,0.0043
 1680,0.00149073,-0.00797288,-0.00725236,-0.00512019,0.00530218,-0.0001
 9745,0.00029423,0.00066763,0.00043097,0.00035429,0.00033837,-0.0010425
 0,-0.00025480,-0.00043641,0.00238799,-0.00573012,0.00154948,-0.0130332
 5,0.00624136,0.00464594,0.00513845,0.00476369,-0.00002080,-0.01319185,
 -0.14737065,-0.17996657,-0.00094249,0.00214356,0.00499673,-0.00027014,
 0.00005505,0.00112929,-0.00018006,-0.00043157,0.00007394,-0.00002589,-
 0.00016721,-0.00024456,-0.00005452,-0.00037501,-0.00018290,0.00010006,
 -0.00020170,0.00000773,0.00003972,-0.00014223,-0.00021952,0.00031581,0
 .00001264,-0.00005633,-0.00011281,-0.00004627,-0.00010443,0.00457147,0
 .00093670,0.00250390,-0.00005589,-0.00080578,0.00053660,0.00027169,0.0
 0072668,-0.00107847,-0.00517324,-0.00670263,-0.00968905,0.02692983,0.1
 5152341,0.00014442,0.00018481,0.00104376,-0.00026822,-0.00013509,-0.00
 005798,-0.00023420,-0.00000711,-0.00094052,0.00034325,-0.00015277,0.00
 046785,-0.00000797,0.00005880,0.00003443,-0.00003778,-0.00048698,-0.00
 010022,0.00004538,0.00031957,0.00004624,0.00005320,0.00031277,0.000080
 98,0.00007687,-0.00005481,-0.00013425,0.00005383,0.00002119,0.00000358
 ,-0.00011134,-0.00010243,-0.00000034,-0.00000832,0.00001613,0.00003593
 ,0.00001518,-0.00003228,-0.00001928,-0.00002281,-0.00004225,-0.0000027
 8,-0.00008078,-0.00003436,-0.00170978,0.00009588,-0.00026131,-0.000114
 49,0.00048843,0.00037101,0.00052391,-0.00026084,-0.00034080,-0.0000844
 7,-0.00128258,0.00106714,-0.00465281,0.00022650,-0.00036261,-0.0000087
 9,-0.00003778,0.00001421,-0.00007737,0.00006107,-0.00012367,-0.0000826
 0,0.00001812,0.00011745,-0.00000014,0.00009771,0.00011298,-0.00004117,
 -0.00000531,-0.00000409,-0.00003780,0.00004049,-0.00003907,-0.00001678
 ,0.00001387,0.00001907,0.00000253,-0.00072085,-0.00021539,-0.00037426,
 0.00004107,0.00012059,0.00002597,-0.00026862,-0.00020062,0.00040364,0.
 00014909,-0.00001222,0.00012579,-0.00004968,-0.00001625,0.00000164,-0.
 00008357,-0.00011602,0.00012783,0.00000007,0.00000832,0.00002116,-0.00
 002238,0.00001751,0.00002124,-0.00000812,0.00001318,0.00001813,0.00011
 377,-0.00088057,0.00066509,0.00000412,0.00014138,-0.00048316,-0.000511
 41,0.00006106,-0.00128352,-0.00018801,0.00017871,0.00089353,-0.0000127
 3,0.00011317,-0.00004415,0.00030242,0.00049331,-0.00003068,-0.00016615
 ,-0.00031182,0.00002158,-0.00018983,-0.00046429,-0.00005967,-0.0000534
 8,0.00055237,0.00010620,-0.00001231,-0.00001627,0.00004428,0.00000736,
 -0.00004701,-0.00002364,-0.00004827,-0.00003863,0.00000363,0.00000400,
 0.00003980,0.00004988,0.00000262,0.00005355,-0.00001765,-0.00021743,-0
 .00096690,0.00069901,0.00047806,0.00032927,0.00031115,0.00504511,0.001
 05950,-0.01085028,-0.00895767,-0.00016359,0.00227977,0.00010094,-0.000
 07928,0.00040257,0.00080483,0.00017297,0.00057705,-0.00219335,-0.00000
 963,-0.00046616,0.00586873,-0.00353134,-0.00294685,-0.01527927,0.00219
 370,-0.01020978,0.00325522,0.00035386,0.00470730,-0.05534836,-0.183660
 96,-0.28223727,-0.00027539,0.00234916,0.00582821,0.00066239,0.00133739
 ,-0.00045304,-0.00027263,-0.00026285,0.00005923,-0.00017546,-0.0000513
 9,-0.00021478,0.00008689,-0.00006365,0.00011960,0.00005950,-0.00018000
 ,-0.00003147,-0.00000782,-0.00008056,-0.00049998,0.00038561,-0.0000208
 4,-0.00013671,0.00015930,0.00003144,-0.00002881,0.00009189,0.00130543,
 0.00440378,0.00001986,-0.00037203,-0.00071224,-0.00064686,-0.00039986,
 0.00178288,0.00056305,0.00131902,0.00012573,0.06808747,0.17948175,0.29
 312061\\-0.00000363,-0.00000010,0.00000886,0.00000139,0.00000667,-0.00
 000004,-0.00000334,-0.00000673,-0.00000113,0.00000024,0.00000056,-0.00
 000078,0.00000116,0.00000355,-0.00000601,-0.00000818,-0.00000595,0.000
 00397,0.00000371,0.00000544,0.00000079,0.00000575,-0.00000681,-0.00000
 399,0.00000051,-0.00000026,0.00000053,-0.00000215,-0.00000142,0.000002
 28,0.00000045,-0.00000480,0.00000405,-0.00000036,-0.00000038,0.0000000
 6,-0.00000094,-0.00000146,0.00000105,0.00000002,-0.00000101,-0.0000004
 2,0.00000171,-0.00000162,-0.00000114,0.00000470,-0.00000807,-0.0000058
 4,-0.00000042,0.00001761,0.00000054,-0.00001272,-0.00000411,0.00000318
 ,0.00000333,-0.00000293,-0.00000355,0.00000636,0.00000137,0.00000997,0
 .00000258,-0.00000088,-0.00000190,-0.00000303,0.00000319,0.00000087,-0
 .00000120,0.00000087,-0.00000108,-0.00000074,-0.00000095,-0.00000134,0
 .00000039,0.00000068,0.00000003,0.00000077,-0.00000025,-0.00000061,0.0
 0000026,-0.00000098,0.00000043,0.00000434,-0.00000914,-0.00000163,-0.0
 0000176,0.00000191,0.00000059,0.00000130,0.00000200,0.00000130,-0.0000
 0089,-0.00000044,0.00000123,-0.00000022,-0.00000075,-0.00000051,-0.000
 00139,-0.00000029,0.00000235,-0.00000091,0.,0.00000007,-0.00000014,-0.
 00000031,0.00000027,0.00000025,0.00000041,-0.00000008,-0.00000238,-0.0
 0000146,-0.00000029,0.00000081,0.00000027,-0.00000100,-0.00000098,0.00
 000415,0.00000760,0.00000567,-0.00000020,-0.00000125,0.00000196,-0.000
 00098,-0.00000399,0.00000052,-0.00000130,-0.00000101,-0.00000022,-0.00
 000129,-0.00000017,0.00000454,-0.00000187,0.00000184,0.00000256,-0.000
 00128,-0.00000171,0.00000097,0.00000253,-0.00000041,-0.00000099,0.0000
 0031,-0.00000013,0.00000003,-0.00000046,-0.00000065,0.00000110,0.00000
 081,-0.00000010,0.00000073,0.00000051,-0.00000148,-0.00001295,0.000000
 16,0.00001181,-0.00000097,0.00000593,-0.00001451,0.00002719,-0.0000027
 7,0.00000698,0.00000455,-0.00002853,-0.00003945,0.00000310,-0.00000022
 ,-0.00000158,-0.00000664,0.00000874,-0.00000226,-0.00001072,-0.0000081
 0,-0.00001169,-0.00000443,-0.00000626,0.00001577,0.00000569,0.00000944
 ,-0.00001379,0.00000031,-0.00000589,-0.00000577,-0.00002013,0.00002144
 ,0.00001665,-0.00000674,-0.00000512,-0.00000542,0.00000403,0.00000630,
 0.00000307,-0.00000023,0.00000052,-0.00000029,0.00000078,0.00000111,0.
 00000018,-0.00000026,0.00000027,0.00000096,-0.00000054,-0.00000222,-0.
 00000484,0.00000081,-0.00000209,0.00000139,0.00000521,0.00000350,0.000
 00095,-0.00000148,-0.00000124,0.00000640,-0.00000007,0.00000160,0.0000
 0252,0.00000041,0.00000207,-0.00000014,0.00000056,-0.00000027,0.000001
 22,-0.00000458,0.00000249,0.00000480,0.00000559,0.00001484,0.00001741\
 \\@
 The archive entry for this job was punched.


    WHAT WE HAVE LEARNED
 IS LIKE A HANDFUL OF EARTH;
  WHAT WE HAVE YET TO LEARN
   IS LIKE THE WHOLE WORLD.

         -- AVVAYIAR
 Job cpu time:       0 days  7 hours 15 minutes 39.1 seconds.
 Elapsed time:       0 days  0 hours 54 minutes 30.2 seconds.
 File lengths (MBytes):  RWF=   3960 Int=      0 D2E=      0 Chk=     48 Scr=     16
 Normal termination of Gaussian 16 at Tue May 31 21:30:00 2022.
