 Entering Gaussian System, Link 0=/opt/software/Gaussian/g16-AVX2-C.01/g16/g16
 Input=opt_freq-conf-898.com
 Output=opt_freq-conf-898.log
 Initial command:
 /opt/software/Gaussian/g16-AVX2-C.01/g16/l1.exe "/mnt/gs18/scratch/users/kengmith/Gau-125136.inp" -scrdir="/mnt/gs18/scratch/users/kengmith/"
 Entering Link 1 = /opt/software/Gaussian/g16-AVX2-C.01/g16/l1.exe PID=    125154.
  
 Copyright (c) 1988-2019, Gaussian, Inc.  All Rights Reserved.
  
 This is part of the Gaussian(R) 16 program.  It is based on
 the Gaussian(R) 09 system (copyright 2009, Gaussian, Inc.),
 the Gaussian(R) 03 system (copyright 2003, Gaussian, Inc.),
 the Gaussian(R) 98 system (copyright 1998, Gaussian, Inc.),
 the Gaussian(R) 94 system (copyright 1995, Gaussian, Inc.),
 the Gaussian 92(TM) system (copyright 1992, Gaussian, Inc.),
 the Gaussian 90(TM) system (copyright 1990, Gaussian, Inc.),
 the Gaussian 88(TM) system (copyright 1988, Gaussian, Inc.),
 the Gaussian 86(TM) system (copyright 1986, Carnegie Mellon
 University), and the Gaussian 82(TM) system (copyright 1983,
 Carnegie Mellon University). Gaussian is a federally registered
 trademark of Gaussian, Inc.
  
 This software contains proprietary and confidential information,
 including trade secrets, belonging to Gaussian, Inc.
  
 This software is provided under written license and may be
 used, copied, transmitted, or stored only in accord with that
 written license.
  
 The following legend is applicable only to US Government
 contracts under FAR:
  
                    RESTRICTED RIGHTS LEGEND
  
 Use, reproduction and disclosure by the US Government is
 subject to restrictions as set forth in subparagraphs (a)
 and (c) of the Commercial Computer Software - Restricted
 Rights clause in FAR 52.227-19.
  
 Gaussian, Inc.
 340 Quinnipiac St., Bldg. 40, Wallingford CT 06492
  
  
 ---------------------------------------------------------------
 Warning -- This program may not be used in any manner that
 competes with the business of Gaussian, Inc. or will provide
 assistance to any competitor of Gaussian, Inc.  The licensee
 of this program is prohibited from giving any competitor of
 Gaussian, Inc. access to this program.  By using this program,
 the user acknowledges that Gaussian, Inc. is engaged in the
 business of creating and licensing software in the field of
 computational chemistry and represents and warrants to the
 licensee that it is not a competitor of Gaussian, Inc. and that
 it will not use this program in any manner prohibited above.
 ---------------------------------------------------------------
  

 Cite this work as:
 Gaussian 16, Revision C.01,
 M. J. Frisch, G. W. Trucks, H. B. Schlegel, G. E. Scuseria, 
 M. A. Robb, J. R. Cheeseman, G. Scalmani, V. Barone, 
 G. A. Petersson, H. Nakatsuji, X. Li, M. Caricato, A. V. Marenich, 
 J. Bloino, B. G. Janesko, R. Gomperts, B. Mennucci, H. P. Hratchian, 
 J. V. Ortiz, A. F. Izmaylov, J. L. Sonnenberg, D. Williams-Young, 
 F. Ding, F. Lipparini, F. Egidi, J. Goings, B. Peng, A. Petrone, 
 T. Henderson, D. Ranasinghe, V. G. Zakrzewski, J. Gao, N. Rega, 
 G. Zheng, W. Liang, M. Hada, M. Ehara, K. Toyota, R. Fukuda, 
 J. Hasegawa, M. Ishida, T. Nakajima, Y. Honda, O. Kitao, H. Nakai, 
 T. Vreven, K. Throssell, J. A. Montgomery, Jr., J. E. Peralta, 
 F. Ogliaro, M. J. Bearpark, J. J. Heyd, E. N. Brothers, K. N. Kudin, 
 V. N. Staroverov, T. A. Keith, R. Kobayashi, J. Normand, 
 K. Raghavachari, A. P. Rendell, J. C. Burant, S. S. Iyengar, 
 J. Tomasi, M. Cossi, J. M. Millam, M. Klene, C. Adamo, R. Cammi, 
 J. W. Ochterski, R. L. Martin, K. Morokuma, O. Farkas, 
 J. B. Foresman, and D. J. Fox, Gaussian, Inc., Wallingford CT, 2019.
 
 ******************************************
 Gaussian 16:  ES64L-G16RevC.01  3-Jul-2019
                31-May-2022 
 ******************************************
 %mem=12gb
 %nproc=8
 Will use up to    8 processors via shared memory.
 %chk=conf-898.chk
 ----------------------------------------------------------------------
 # B3LYP/6-31G* empiricaldispersion=gd3 opt=calcfc freq=noraman nosymm 
 integral(ultrafinegrid)
 ----------------------------------------------------------------------
 1/10=4,18=20,19=15,26=4,38=1/1,3;
 2/9=110,12=2,15=1,17=6,18=5,40=1/2;
 3/5=1,6=6,7=1,11=2,25=1,30=1,71=2,74=-5,75=-5,124=31,140=1/1,2,3;
 4//1;
 5/5=2,38=5/2;
 8/6=4,10=90,11=11/1;
 11/6=1,8=1,9=11,15=111,16=1,31=1/1,2,10;
 10/6=1,13=1,31=1/2;
 6/7=2,8=2,9=2,10=2,28=1/1;
 7/10=1,25=1,30=1/1,2,3,16;
 1/10=4,18=20,19=15,26=4/3(2);
 2/9=110,15=1/2;
 99//99;
 2/9=110,15=1/2;
 3/5=1,6=6,7=1,11=2,25=1,30=1,71=1,74=-5,75=-5,124=31/1,2,3;
 4/5=5,16=3,69=1/1;
 5/5=2,38=5/2;
 7/30=1/1,2,3,16;
 1/18=20,19=15,26=4/3(-5);
 2/9=110,15=1/2;
 6/7=2,8=2,9=2,10=2,19=2,28=1/1;
 99/9=1/99;
 ------------------------------------------------------------
 Candidate Structure: Conf:898 OPT and FREQ calc in gas phase
 ------------------------------------------------------------
 Symbolic Z-matrix:
 Charge =  1 Multiplicity = 1
 N                    -9.34833  -2.56521  -9.86808 
 C                    -8.47832  -3.58112  -9.25914 
 C                    -8.28295  -3.33909  -7.75989 
 O                    -9.15805  -3.7455   -6.99517 
 C                    -7.17719  -3.72422  -10.02418 
 C                    -7.41039  -4.37474  -11.37482 
 N                    -6.27591  -4.66497  -12.06592 
 O                    -8.52896  -4.61536  -11.80414 
 H                    -9.84804  -3.01546  -10.64185 
 H                    -9.00456  -4.53618  -9.3018 
 H                    -6.68058  -2.76841  -10.16247 
 H                    -6.49891  -4.36879  -9.45493 
 H                    -6.36252  -5.12729  -12.9543 
 H                    -5.36707  -4.48612  -11.67582 
 H                    -10.02156  -2.15764  -9.21342 
 H                    -8.75698  -1.82573  -10.2844 
 N                    -7.19069  -2.66026  -7.32784 
 C                    -6.76999  -2.79277  -5.94426 
 C                    -6.72308  -1.45446  -5.1832 
 O                    -5.78738  -1.1786   -4.43534 
 C                    -5.39672  -3.48874  -5.82614 
 C                    -5.16023  -4.56102  -6.85003 
 C                    -5.86237  -5.76085  -6.82092 
 C                    -4.25962  -4.3324   -7.88367 
 C                    -5.67694  -6.7135   -7.82177 
 C                    -4.05862  -5.28814  -8.87734 
 C                    -4.77505  -6.479    -8.85101 
 H                    -6.48861  -2.35471  -7.98456 
 H                    -7.54489  -3.39661  -5.47011 
 H                    -4.60788  -2.73992  -5.93748 
 H                    -5.32039  -3.87255  -4.80943 
 H                    -6.5688   -5.94467  -6.01524 
 H                    -3.73693  -3.37913  -7.92879 
 H                    -6.25001  -7.63219  -7.80142 
 H                    -3.38554  -5.07355  -9.70413 
 H                    -4.6558   -7.20406  -9.65062 
 N                    -7.70894  -0.55248  -5.38044 
 C                    -9.05337  -0.73294  -5.87129 
 C                    -9.2441   -0.22565  -7.30066 
 O                    -10.32552  -0.3836   -7.86349 
 C                    -10.06887  -0.03504  -4.95765 
 C                    -9.83681   1.4629   -4.83659 
 N                    -10.94988   2.2106   -4.67051 
 O                    -8.71279   1.95084  -4.85062 
 H                    -7.55992   0.30443  -4.87735 
 H                    -9.27516  -1.79956  -5.89758 
 H                    -9.97606  -0.45203  -3.95378 
 H                    -11.08207  -0.23115  -5.30993 
 H                    -10.85148   3.20572  -4.57043 
 H                    -11.86219   1.79524  -4.65244 
 N                    -8.17697   0.38866  -7.85527 
 C                    -8.12244   0.6272   -9.27575 
 C                    -6.99749  -0.27415  -9.89224 
 O                    -5.8978   -0.2973   -9.30731 
 C                    -8.02254   2.10432  -9.63377 
 C                    -6.78933   2.91062  -9.21951 
 C                    -6.44407   2.85806  -7.73207 
 N                    -5.50419   1.75439  -7.53288 
 C                    -5.13812   1.22337  -6.37832 
 N                    -5.5727    1.73372  -5.21992 
 N                    -4.26329   0.20251  -6.40627 
 O                    -7.34432  -0.8836   -10.91926 
 H                    -7.30684   0.24146  -7.39468 
 H                    -9.07364   0.27798  -9.67302 
 H                    -8.14244   2.18461  -10.72148 
 H                    -8.91373   2.56947  -9.19814 
 H                    -5.91303   2.57231  -9.78281 
 H                    -6.97392   3.94623  -9.51743 
 H                    -5.97444   3.7856   -7.40322 
 H                    -7.3404    2.71269  -7.12379 
 H                    -5.35227   1.16357  -8.34397 
 H                    -5.38982   1.18984  -4.38956 
 H                    -6.46537   2.21099  -5.21435 
 H                    -4.26401  -0.388    -5.58725 
 H                    -4.15493  -0.27001  -7.29655 
 

 GradGradGradGradGradGradGradGradGradGradGradGradGradGradGradGradGradGrad
 Berny optimization.
 Initialization pass.
                           ----------------------------
                           !    Initial Parameters    !
                           ! (Angstroms and Degrees)  !
 --------------------------                            --------------------------
 ! Name  Definition              Value          Derivative Info.                !
 --------------------------------------------------------------------------------
 ! R1    R(1,2)                  1.4696         calculate D2E/DX2 analytically  !
 ! R2    R(1,9)                  1.0253         calculate D2E/DX2 analytically  !
 ! R3    R(1,15)                 1.0237         calculate D2E/DX2 analytically  !
 ! R4    R(1,16)                 1.0343         calculate D2E/DX2 analytically  !
 ! R5    R(2,3)                  1.5312         calculate D2E/DX2 analytically  !
 ! R6    R(2,5)                  1.5161         calculate D2E/DX2 analytically  !
 ! R7    R(2,10)                 1.0913         calculate D2E/DX2 analytically  !
 ! R8    R(3,4)                  1.2312         calculate D2E/DX2 analytically  !
 ! R9    R(3,17)                 1.3567         calculate D2E/DX2 analytically  !
 ! R10   R(5,6)                  1.5172         calculate D2E/DX2 analytically  !
 ! R11   R(5,11)                 1.086          calculate D2E/DX2 analytically  !
 ! R12   R(5,12)                 1.0953         calculate D2E/DX2 analytically  !
 ! R13   R(6,7)                  1.3597         calculate D2E/DX2 analytically  !
 ! R14   R(6,8)                  1.222          calculate D2E/DX2 analytically  !
 ! R15   R(7,13)                 1.0052         calculate D2E/DX2 analytically  !
 ! R16   R(7,14)                 1.0051         calculate D2E/DX2 analytically  !
 ! R17   R(17,18)                1.4522         calculate D2E/DX2 analytically  !
 ! R18   R(17,28)                1.0087         calculate D2E/DX2 analytically  !
 ! R19   R(18,19)                1.5403         calculate D2E/DX2 analytically  !
 ! R20   R(18,21)                1.5441         calculate D2E/DX2 analytically  !
 ! R21   R(18,29)                1.0908         calculate D2E/DX2 analytically  !
 ! R22   R(19,20)                1.2292         calculate D2E/DX2 analytically  !
 ! R23   R(19,37)                1.3507         calculate D2E/DX2 analytically  !
 ! R24   R(21,22)                1.5013         calculate D2E/DX2 analytically  !
 ! R25   R(21,30)                1.0933         calculate D2E/DX2 analytically  !
 ! R26   R(21,31)                1.0894         calculate D2E/DX2 analytically  !
 ! R27   R(22,23)                1.3905         calculate D2E/DX2 analytically  !
 ! R28   R(22,24)                1.3899         calculate D2E/DX2 analytically  !
 ! R29   R(23,25)                1.3941         calculate D2E/DX2 analytically  !
 ! R30   R(23,32)                1.0872         calculate D2E/DX2 analytically  !
 ! R31   R(24,26)                1.3933         calculate D2E/DX2 analytically  !
 ! R32   R(24,33)                1.0881         calculate D2E/DX2 analytically  !
 ! R33   R(25,27)                1.3884         calculate D2E/DX2 analytically  !
 ! R34   R(25,34)                1.083          calculate D2E/DX2 analytically  !
 ! R35   R(26,27)                1.39           calculate D2E/DX2 analytically  !
 ! R36   R(26,35)                1.0875         calculate D2E/DX2 analytically  !
 ! R37   R(27,36)                1.086          calculate D2E/DX2 analytically  !
 ! R38   R(37,38)                1.4426         calculate D2E/DX2 analytically  !
 ! R39   R(37,45)                1.0048         calculate D2E/DX2 analytically  !
 ! R40   R(38,39)                1.5287         calculate D2E/DX2 analytically  !
 ! R41   R(38,41)                1.534          calculate D2E/DX2 analytically  !
 ! R42   R(38,46)                1.0898         calculate D2E/DX2 analytically  !
 ! R43   R(39,40)                1.2293         calculate D2E/DX2 analytically  !
 ! R44   R(39,51)                1.3505         calculate D2E/DX2 analytically  !
 ! R45   R(41,42)                1.5206         calculate D2E/DX2 analytically  !
 ! R46   R(41,47)                1.091          calculate D2E/DX2 analytically  !
 ! R47   R(41,48)                1.0905         calculate D2E/DX2 analytically  !
 ! R48   R(42,43)                1.3511         calculate D2E/DX2 analytically  !
 ! R49   R(42,44)                1.2254         calculate D2E/DX2 analytically  !
 ! R50   R(43,49)                1.005          calculate D2E/DX2 analytically  !
 ! R51   R(43,50)                1.0026         calculate D2E/DX2 analytically  !
 ! R52   R(51,52)                1.4414         calculate D2E/DX2 analytically  !
 ! R53   R(51,63)                0.9955         calculate D2E/DX2 analytically  !
 ! R54   R(52,53)                1.5678         calculate D2E/DX2 analytically  !
 ! R55   R(52,55)                1.5232         calculate D2E/DX2 analytically  !
 ! R56   R(52,64)                1.0884         calculate D2E/DX2 analytically  !
 ! R57   R(53,54)                1.2458         calculate D2E/DX2 analytically  !
 ! R58   R(53,62)                1.2436         calculate D2E/DX2 analytically  !
 ! R59   R(55,56)                1.5305         calculate D2E/DX2 analytically  !
 ! R60   R(55,65)                1.0972         calculate D2E/DX2 analytically  !
 ! R61   R(55,66)                1.0956         calculate D2E/DX2 analytically  !
 ! R62   R(56,57)                1.5279         calculate D2E/DX2 analytically  !
 ! R63   R(56,67)                1.0953         calculate D2E/DX2 analytically  !
 ! R64   R(56,68)                1.0933         calculate D2E/DX2 analytically  !
 ! R65   R(57,58)                1.4633         calculate D2E/DX2 analytically  !
 ! R66   R(57,69)                1.0904         calculate D2E/DX2 analytically  !
 ! R67   R(57,70)                1.093          calculate D2E/DX2 analytically  !
 ! R68   R(58,59)                1.3225         calculate D2E/DX2 analytically  !
 ! R69   R(58,71)                1.0149         calculate D2E/DX2 analytically  !
 ! R70   R(59,60)                1.3384         calculate D2E/DX2 analytically  !
 ! R71   R(59,61)                1.3447         calculate D2E/DX2 analytically  !
 ! R72   R(60,72)                1.0093         calculate D2E/DX2 analytically  !
 ! R73   R(60,73)                1.0123         calculate D2E/DX2 analytically  !
 ! R74   R(61,74)                1.0097         calculate D2E/DX2 analytically  !
 ! R75   R(61,75)                1.0137         calculate D2E/DX2 analytically  !
 ! A1    A(2,1,9)              107.3182         calculate D2E/DX2 analytically  !
 ! A2    A(2,1,15)             113.5513         calculate D2E/DX2 analytically  !
 ! A3    A(2,1,16)             108.8163         calculate D2E/DX2 analytically  !
 ! A4    A(9,1,15)             109.6914         calculate D2E/DX2 analytically  !
 ! A5    A(9,1,16)             106.789          calculate D2E/DX2 analytically  !
 ! A6    A(15,1,16)            110.4109         calculate D2E/DX2 analytically  !
 ! A7    A(1,2,3)              111.8375         calculate D2E/DX2 analytically  !
 ! A8    A(1,2,5)              111.3586         calculate D2E/DX2 analytically  !
 ! A9    A(1,2,10)             107.6562         calculate D2E/DX2 analytically  !
 ! A10   A(3,2,5)              113.5466         calculate D2E/DX2 analytically  !
 ! A11   A(3,2,10)             103.7773         calculate D2E/DX2 analytically  !
 ! A12   A(5,2,10)             108.1504         calculate D2E/DX2 analytically  !
 ! A13   A(2,3,4)              117.7304         calculate D2E/DX2 analytically  !
 ! A14   A(2,3,17)             119.581          calculate D2E/DX2 analytically  !
 ! A15   A(4,3,17)             122.6582         calculate D2E/DX2 analytically  !
 ! A16   A(2,5,6)              110.9634         calculate D2E/DX2 analytically  !
 ! A17   A(2,5,11)             111.9399         calculate D2E/DX2 analytically  !
 ! A18   A(2,5,12)             108.9506         calculate D2E/DX2 analytically  !
 ! A19   A(6,5,11)             109.5302         calculate D2E/DX2 analytically  !
 ! A20   A(6,5,12)             107.7912         calculate D2E/DX2 analytically  !
 ! A21   A(11,5,12)            107.5153         calculate D2E/DX2 analytically  !
 ! A22   A(5,6,7)              114.5663         calculate D2E/DX2 analytically  !
 ! A23   A(5,6,8)              122.5385         calculate D2E/DX2 analytically  !
 ! A24   A(7,6,8)              122.8951         calculate D2E/DX2 analytically  !
 ! A25   A(6,7,13)             118.3897         calculate D2E/DX2 analytically  !
 ! A26   A(6,7,14)             121.2789         calculate D2E/DX2 analytically  !
 ! A27   A(13,7,14)            120.1836         calculate D2E/DX2 analytically  !
 ! A28   A(3,17,18)            119.407          calculate D2E/DX2 analytically  !
 ! A29   A(3,17,28)            120.3038         calculate D2E/DX2 analytically  !
 ! A30   A(18,17,28)           116.5055         calculate D2E/DX2 analytically  !
 ! A31   A(17,18,19)           113.5968         calculate D2E/DX2 analytically  !
 ! A32   A(17,18,21)           111.8183         calculate D2E/DX2 analytically  !
 ! A33   A(17,18,29)           105.002          calculate D2E/DX2 analytically  !
 ! A34   A(19,18,21)           109.0712         calculate D2E/DX2 analytically  !
 ! A35   A(19,18,29)           106.728          calculate D2E/DX2 analytically  !
 ! A36   A(21,18,29)           110.4285         calculate D2E/DX2 analytically  !
 ! A37   A(18,19,20)           121.2516         calculate D2E/DX2 analytically  !
 ! A38   A(18,19,37)           119.0674         calculate D2E/DX2 analytically  !
 ! A39   A(20,19,37)           119.6426         calculate D2E/DX2 analytically  !
 ! A40   A(18,21,22)           114.1947         calculate D2E/DX2 analytically  !
 ! A41   A(18,21,30)           108.9768         calculate D2E/DX2 analytically  !
 ! A42   A(18,21,31)           107.0077         calculate D2E/DX2 analytically  !
 ! A43   A(22,21,30)           107.8219         calculate D2E/DX2 analytically  !
 ! A44   A(22,21,31)           111.9506         calculate D2E/DX2 analytically  !
 ! A45   A(30,21,31)           106.6054         calculate D2E/DX2 analytically  !
 ! A46   A(21,22,23)           121.498          calculate D2E/DX2 analytically  !
 ! A47   A(21,22,24)           119.4567         calculate D2E/DX2 analytically  !
 ! A48   A(23,22,24)           118.993          calculate D2E/DX2 analytically  !
 ! A49   A(22,23,25)           120.4938         calculate D2E/DX2 analytically  !
 ! A50   A(22,23,32)           119.3095         calculate D2E/DX2 analytically  !
 ! A51   A(25,23,32)           120.1921         calculate D2E/DX2 analytically  !
 ! A52   A(22,24,26)           120.7326         calculate D2E/DX2 analytically  !
 ! A53   A(22,24,33)           119.0916         calculate D2E/DX2 analytically  !
 ! A54   A(26,24,33)           120.139          calculate D2E/DX2 analytically  !
 ! A55   A(23,25,27)           120.2093         calculate D2E/DX2 analytically  !
 ! A56   A(23,25,34)           119.7219         calculate D2E/DX2 analytically  !
 ! A57   A(27,25,34)           120.063          calculate D2E/DX2 analytically  !
 ! A58   A(24,26,27)           119.9887         calculate D2E/DX2 analytically  !
 ! A59   A(24,26,35)           119.7449         calculate D2E/DX2 analytically  !
 ! A60   A(27,26,35)           120.1623         calculate D2E/DX2 analytically  !
 ! A61   A(25,27,26)           119.5738         calculate D2E/DX2 analytically  !
 ! A62   A(25,27,36)           120.2909         calculate D2E/DX2 analytically  !
 ! A63   A(26,27,36)           120.0973         calculate D2E/DX2 analytically  !
 ! A64   A(19,37,38)           130.2694         calculate D2E/DX2 analytically  !
 ! A65   A(19,37,45)           112.839          calculate D2E/DX2 analytically  !
 ! A66   A(38,37,45)           114.5367         calculate D2E/DX2 analytically  !
 ! A67   A(37,38,39)           113.137          calculate D2E/DX2 analytically  !
 ! A68   A(37,38,41)           110.9405         calculate D2E/DX2 analytically  !
 ! A69   A(37,38,46)           108.6829         calculate D2E/DX2 analytically  !
 ! A70   A(39,38,41)           108.8648         calculate D2E/DX2 analytically  !
 ! A71   A(39,38,46)           106.073          calculate D2E/DX2 analytically  !
 ! A72   A(41,38,46)           108.9618         calculate D2E/DX2 analytically  !
 ! A73   A(38,39,40)           119.6848         calculate D2E/DX2 analytically  !
 ! A74   A(38,39,51)           115.8728         calculate D2E/DX2 analytically  !
 ! A75   A(40,39,51)           124.4404         calculate D2E/DX2 analytically  !
 ! A76   A(38,41,42)           113.2387         calculate D2E/DX2 analytically  !
 ! A77   A(38,41,47)           108.532          calculate D2E/DX2 analytically  !
 ! A78   A(38,41,48)           109.93           calculate D2E/DX2 analytically  !
 ! A79   A(42,41,47)           106.8736         calculate D2E/DX2 analytically  !
 ! A80   A(42,41,48)           110.1618         calculate D2E/DX2 analytically  !
 ! A81   A(47,41,48)           107.9125         calculate D2E/DX2 analytically  !
 ! A82   A(41,42,43)           115.4163         calculate D2E/DX2 analytically  !
 ! A83   A(41,42,44)           122.0937         calculate D2E/DX2 analytically  !
 ! A84   A(43,42,44)           122.4581         calculate D2E/DX2 analytically  !
 ! A85   A(42,43,49)           118.6557         calculate D2E/DX2 analytically  !
 ! A86   A(42,43,50)           121.5059         calculate D2E/DX2 analytically  !
 ! A87   A(49,43,50)           119.8369         calculate D2E/DX2 analytically  !
 ! A88   A(39,51,52)           120.6571         calculate D2E/DX2 analytically  !
 ! A89   A(39,51,63)           115.685          calculate D2E/DX2 analytically  !
 ! A90   A(52,51,63)           116.5757         calculate D2E/DX2 analytically  !
 ! A91   A(51,52,53)           108.6336         calculate D2E/DX2 analytically  !
 ! A92   A(51,52,55)           113.2418         calculate D2E/DX2 analytically  !
 ! A93   A(51,52,64)           105.8762         calculate D2E/DX2 analytically  !
 ! A94   A(53,52,55)           114.7108         calculate D2E/DX2 analytically  !
 ! A95   A(53,52,64)           107.4031         calculate D2E/DX2 analytically  !
 ! A96   A(55,52,64)           106.4207         calculate D2E/DX2 analytically  !
 ! A97   A(52,53,54)           117.3507         calculate D2E/DX2 analytically  !
 ! A98   A(52,53,62)           113.9776         calculate D2E/DX2 analytically  !
 ! A99   A(54,53,62)           128.6708         calculate D2E/DX2 analytically  !
 ! A100  A(52,55,56)           120.0073         calculate D2E/DX2 analytically  !
 ! A101  A(52,55,65)           107.2664         calculate D2E/DX2 analytically  !
 ! A102  A(52,55,66)           105.3618         calculate D2E/DX2 analytically  !
 ! A103  A(56,55,65)           108.5303         calculate D2E/DX2 analytically  !
 ! A104  A(56,55,66)           108.912          calculate D2E/DX2 analytically  !
 ! A105  A(65,55,66)           105.9148         calculate D2E/DX2 analytically  !
 ! A106  A(55,56,57)           115.3056         calculate D2E/DX2 analytically  !
 ! A107  A(55,56,67)           110.0429         calculate D2E/DX2 analytically  !
 ! A108  A(55,56,68)           106.811          calculate D2E/DX2 analytically  !
 ! A109  A(57,56,67)           108.0147         calculate D2E/DX2 analytically  !
 ! A110  A(57,56,68)           109.6345         calculate D2E/DX2 analytically  !
 ! A111  A(67,56,68)           106.7092         calculate D2E/DX2 analytically  !
 ! A112  A(56,57,58)           107.6748         calculate D2E/DX2 analytically  !
 ! A113  A(56,57,69)           111.2017         calculate D2E/DX2 analytically  !
 ! A114  A(56,57,70)           111.1658         calculate D2E/DX2 analytically  !
 ! A115  A(58,57,69)           108.899          calculate D2E/DX2 analytically  !
 ! A116  A(58,57,70)           110.5296         calculate D2E/DX2 analytically  !
 ! A117  A(69,57,70)           107.3673         calculate D2E/DX2 analytically  !
 ! A118  A(57,58,59)           126.8331         calculate D2E/DX2 analytically  !
 ! A119  A(57,58,71)           115.2423         calculate D2E/DX2 analytically  !
 ! A120  A(59,58,71)           114.9937         calculate D2E/DX2 analytically  !
 ! A121  A(58,59,60)           120.8393         calculate D2E/DX2 analytically  !
 ! A122  A(58,59,61)           117.824          calculate D2E/DX2 analytically  !
 ! A123  A(60,59,61)           121.2469         calculate D2E/DX2 analytically  !
 ! A124  A(59,60,72)           116.599          calculate D2E/DX2 analytically  !
 ! A125  A(59,60,73)           118.0931         calculate D2E/DX2 analytically  !
 ! A126  A(72,60,73)           114.1619         calculate D2E/DX2 analytically  !
 ! A127  A(59,61,74)           115.2558         calculate D2E/DX2 analytically  !
 ! A128  A(59,61,75)           116.21           calculate D2E/DX2 analytically  !
 ! A129  A(74,61,75)           116.0948         calculate D2E/DX2 analytically  !
 ! D1    D(9,1,2,3)           -149.033          calculate D2E/DX2 analytically  !
 ! D2    D(9,1,2,5)             82.7364         calculate D2E/DX2 analytically  !
 ! D3    D(9,1,2,10)           -35.6552         calculate D2E/DX2 analytically  !
 ! D4    D(15,1,2,3)           -27.6378         calculate D2E/DX2 analytically  !
 ! D5    D(15,1,2,5)          -155.8684         calculate D2E/DX2 analytically  !
 ! D6    D(15,1,2,10)           85.7401         calculate D2E/DX2 analytically  !
 ! D7    D(16,1,2,3)            95.7595         calculate D2E/DX2 analytically  !
 ! D8    D(16,1,2,5)           -32.471          calculate D2E/DX2 analytically  !
 ! D9    D(16,1,2,10)         -150.8626         calculate D2E/DX2 analytically  !
 ! D10   D(1,2,3,4)             82.4247         calculate D2E/DX2 analytically  !
 ! D11   D(1,2,3,17)           -95.6211         calculate D2E/DX2 analytically  !
 ! D12   D(5,2,3,4)           -150.517          calculate D2E/DX2 analytically  !
 ! D13   D(5,2,3,17)            31.4372         calculate D2E/DX2 analytically  !
 ! D14   D(10,2,3,4)           -33.3409         calculate D2E/DX2 analytically  !
 ! D15   D(10,2,3,17)          148.6133         calculate D2E/DX2 analytically  !
 ! D16   D(1,2,5,6)            -70.2575         calculate D2E/DX2 analytically  !
 ! D17   D(1,2,5,11)            52.4452         calculate D2E/DX2 analytically  !
 ! D18   D(1,2,5,12)           171.2195         calculate D2E/DX2 analytically  !
 ! D19   D(3,2,5,6)            162.4344         calculate D2E/DX2 analytically  !
 ! D20   D(3,2,5,11)           -74.863          calculate D2E/DX2 analytically  !
 ! D21   D(3,2,5,12)            43.9114         calculate D2E/DX2 analytically  !
 ! D22   D(10,2,5,6)            47.8369         calculate D2E/DX2 analytically  !
 ! D23   D(10,2,5,11)          170.5395         calculate D2E/DX2 analytically  !
 ! D24   D(10,2,5,12)          -70.6861         calculate D2E/DX2 analytically  !
 ! D25   D(2,3,17,18)         -160.2505         calculate D2E/DX2 analytically  !
 ! D26   D(2,3,17,28)           -2.9151         calculate D2E/DX2 analytically  !
 ! D27   D(4,3,17,18)           21.8041         calculate D2E/DX2 analytically  !
 ! D28   D(4,3,17,28)          179.1395         calculate D2E/DX2 analytically  !
 ! D29   D(2,5,6,7)           -173.5335         calculate D2E/DX2 analytically  !
 ! D30   D(2,5,6,8)              6.5493         calculate D2E/DX2 analytically  !
 ! D31   D(11,5,6,7)            62.38           calculate D2E/DX2 analytically  !
 ! D32   D(11,5,6,8)          -117.5372         calculate D2E/DX2 analytically  !
 ! D33   D(12,5,6,7)           -54.3122         calculate D2E/DX2 analytically  !
 ! D34   D(12,5,6,8)           125.7706         calculate D2E/DX2 analytically  !
 ! D35   D(5,6,7,13)           177.8529         calculate D2E/DX2 analytically  !
 ! D36   D(5,6,7,14)             2.266          calculate D2E/DX2 analytically  !
 ! D37   D(8,6,7,13)            -2.2303         calculate D2E/DX2 analytically  !
 ! D38   D(8,6,7,14)          -177.8171         calculate D2E/DX2 analytically  !
 ! D39   D(3,17,18,19)        -121.7499         calculate D2E/DX2 analytically  !
 ! D40   D(3,17,18,21)         114.2671         calculate D2E/DX2 analytically  !
 ! D41   D(3,17,18,29)          -5.5031         calculate D2E/DX2 analytically  !
 ! D42   D(28,17,18,19)         80.0743         calculate D2E/DX2 analytically  !
 ! D43   D(28,17,18,21)        -43.9087         calculate D2E/DX2 analytically  !
 ! D44   D(28,17,18,29)       -163.6789         calculate D2E/DX2 analytically  !
 ! D45   D(17,18,19,20)       -136.9028         calculate D2E/DX2 analytically  !
 ! D46   D(17,18,19,37)         40.8367         calculate D2E/DX2 analytically  !
 ! D47   D(21,18,19,20)        -11.4418         calculate D2E/DX2 analytically  !
 ! D48   D(21,18,19,37)        166.2976         calculate D2E/DX2 analytically  !
 ! D49   D(29,18,19,20)        107.8681         calculate D2E/DX2 analytically  !
 ! D50   D(29,18,19,37)        -74.3925         calculate D2E/DX2 analytically  !
 ! D51   D(17,18,21,22)        -35.2814         calculate D2E/DX2 analytically  !
 ! D52   D(17,18,21,30)         85.3373         calculate D2E/DX2 analytically  !
 ! D53   D(17,18,21,31)       -159.7518         calculate D2E/DX2 analytically  !
 ! D54   D(19,18,21,22)       -161.7678         calculate D2E/DX2 analytically  !
 ! D55   D(19,18,21,30)        -41.149          calculate D2E/DX2 analytically  !
 ! D56   D(19,18,21,31)         73.7619         calculate D2E/DX2 analytically  !
 ! D57   D(29,18,21,22)         81.2476         calculate D2E/DX2 analytically  !
 ! D58   D(29,18,21,30)       -158.1336         calculate D2E/DX2 analytically  !
 ! D59   D(29,18,21,31)        -43.2227         calculate D2E/DX2 analytically  !
 ! D60   D(18,19,37,38)         21.794          calculate D2E/DX2 analytically  !
 ! D61   D(18,19,37,45)       -176.882          calculate D2E/DX2 analytically  !
 ! D62   D(20,19,37,38)       -160.4295         calculate D2E/DX2 analytically  !
 ! D63   D(20,19,37,45)          0.8944         calculate D2E/DX2 analytically  !
 ! D64   D(18,21,22,23)        -69.475          calculate D2E/DX2 analytically  !
 ! D65   D(18,21,22,24)        107.8699         calculate D2E/DX2 analytically  !
 ! D66   D(30,21,22,23)        169.2653         calculate D2E/DX2 analytically  !
 ! D67   D(30,21,22,24)        -13.3898         calculate D2E/DX2 analytically  !
 ! D68   D(31,21,22,23)         52.3153         calculate D2E/DX2 analytically  !
 ! D69   D(31,21,22,24)       -130.3398         calculate D2E/DX2 analytically  !
 ! D70   D(21,22,23,25)        176.6326         calculate D2E/DX2 analytically  !
 ! D71   D(21,22,23,32)         -2.5878         calculate D2E/DX2 analytically  !
 ! D72   D(24,22,23,25)         -0.7243         calculate D2E/DX2 analytically  !
 ! D73   D(24,22,23,32)       -179.9447         calculate D2E/DX2 analytically  !
 ! D74   D(21,22,24,26)       -177.4768         calculate D2E/DX2 analytically  !
 ! D75   D(21,22,24,33)          0.3202         calculate D2E/DX2 analytically  !
 ! D76   D(23,22,24,26)         -0.0651         calculate D2E/DX2 analytically  !
 ! D77   D(23,22,24,33)        177.7319         calculate D2E/DX2 analytically  !
 ! D78   D(22,23,25,27)          0.7734         calculate D2E/DX2 analytically  !
 ! D79   D(22,23,25,34)       -178.3481         calculate D2E/DX2 analytically  !
 ! D80   D(32,23,25,27)        179.9869         calculate D2E/DX2 analytically  !
 ! D81   D(32,23,25,34)          0.8654         calculate D2E/DX2 analytically  !
 ! D82   D(22,24,26,27)          0.8106         calculate D2E/DX2 analytically  !
 ! D83   D(22,24,26,35)        177.1088         calculate D2E/DX2 analytically  !
 ! D84   D(33,24,26,27)       -176.9634         calculate D2E/DX2 analytically  !
 ! D85   D(33,24,26,35)         -0.6652         calculate D2E/DX2 analytically  !
 ! D86   D(23,25,27,26)         -0.0224         calculate D2E/DX2 analytically  !
 ! D87   D(23,25,27,36)       -177.7798         calculate D2E/DX2 analytically  !
 ! D88   D(34,25,27,26)        179.0961         calculate D2E/DX2 analytically  !
 ! D89   D(34,25,27,36)          1.3387         calculate D2E/DX2 analytically  !
 ! D90   D(24,26,27,25)         -0.761          calculate D2E/DX2 analytically  !
 ! D91   D(24,26,27,36)        177.0008         calculate D2E/DX2 analytically  !
 ! D92   D(35,26,27,25)       -177.0436         calculate D2E/DX2 analytically  !
 ! D93   D(35,26,27,36)          0.7182         calculate D2E/DX2 analytically  !
 ! D94   D(19,37,38,39)       -106.1558         calculate D2E/DX2 analytically  !
 ! D95   D(19,37,38,41)        131.1607         calculate D2E/DX2 analytically  !
 ! D96   D(19,37,38,46)         11.3808         calculate D2E/DX2 analytically  !
 ! D97   D(45,37,38,39)         92.7738         calculate D2E/DX2 analytically  !
 ! D98   D(45,37,38,41)        -29.9097         calculate D2E/DX2 analytically  !
 ! D99   D(45,37,38,46)       -149.6896         calculate D2E/DX2 analytically  !
 ! D100  D(37,38,39,40)        176.1946         calculate D2E/DX2 analytically  !
 ! D101  D(37,38,39,51)         -4.2982         calculate D2E/DX2 analytically  !
 ! D102  D(41,38,39,40)        -59.9758         calculate D2E/DX2 analytically  !
 ! D103  D(41,38,39,51)        119.5313         calculate D2E/DX2 analytically  !
 ! D104  D(46,38,39,40)         57.1406         calculate D2E/DX2 analytically  !
 ! D105  D(46,38,39,51)       -123.3522         calculate D2E/DX2 analytically  !
 ! D106  D(37,38,41,42)         59.6542         calculate D2E/DX2 analytically  !
 ! D107  D(37,38,41,47)        -58.8425         calculate D2E/DX2 analytically  !
 ! D108  D(37,38,41,48)       -176.656          calculate D2E/DX2 analytically  !
 ! D109  D(39,38,41,42)        -65.4704         calculate D2E/DX2 analytically  !
 ! D110  D(39,38,41,47)        176.033          calculate D2E/DX2 analytically  !
 ! D111  D(39,38,41,48)         58.2194         calculate D2E/DX2 analytically  !
 ! D112  D(46,38,41,42)        179.2674         calculate D2E/DX2 analytically  !
 ! D113  D(46,38,41,47)         60.7707         calculate D2E/DX2 analytically  !
 ! D114  D(46,38,41,48)        -57.0429         calculate D2E/DX2 analytically  !
 ! D115  D(38,39,51,52)        165.4436         calculate D2E/DX2 analytically  !
 ! D116  D(38,39,51,63)         15.8827         calculate D2E/DX2 analytically  !
 ! D117  D(40,39,51,52)        -15.0756         calculate D2E/DX2 analytically  !
 ! D118  D(40,39,51,63)       -164.6365         calculate D2E/DX2 analytically  !
 ! D119  D(38,41,42,43)        147.6351         calculate D2E/DX2 analytically  !
 ! D120  D(38,41,42,44)        -34.3723         calculate D2E/DX2 analytically  !
 ! D121  D(47,41,42,43)        -92.9122         calculate D2E/DX2 analytically  !
 ! D122  D(47,41,42,44)         85.0804         calculate D2E/DX2 analytically  !
 ! D123  D(48,41,42,43)         24.0725         calculate D2E/DX2 analytically  !
 ! D124  D(48,41,42,44)       -157.9349         calculate D2E/DX2 analytically  !
 ! D125  D(41,42,43,49)        179.0427         calculate D2E/DX2 analytically  !
 ! D126  D(41,42,43,50)         -1.4138         calculate D2E/DX2 analytically  !
 ! D127  D(44,42,43,49)          1.0581         calculate D2E/DX2 analytically  !
 ! D128  D(44,42,43,50)       -179.3984         calculate D2E/DX2 analytically  !
 ! D129  D(39,51,52,53)       -111.9            calculate D2E/DX2 analytically  !
 ! D130  D(39,51,52,55)        119.4223         calculate D2E/DX2 analytically  !
 ! D131  D(39,51,52,64)          3.1909         calculate D2E/DX2 analytically  !
 ! D132  D(63,51,52,53)         37.4028         calculate D2E/DX2 analytically  !
 ! D133  D(63,51,52,55)        -91.2749         calculate D2E/DX2 analytically  !
 ! D134  D(63,51,52,64)        152.4937         calculate D2E/DX2 analytically  !
 ! D135  D(51,52,53,54)        -46.5155         calculate D2E/DX2 analytically  !
 ! D136  D(51,52,53,62)        133.1715         calculate D2E/DX2 analytically  !
 ! D137  D(55,52,53,54)         81.3338         calculate D2E/DX2 analytically  !
 ! D138  D(55,52,53,62)        -98.9792         calculate D2E/DX2 analytically  !
 ! D139  D(64,52,53,54)       -160.6092         calculate D2E/DX2 analytically  !
 ! D140  D(64,52,53,62)         19.0777         calculate D2E/DX2 analytically  !
 ! D141  D(51,52,55,56)         64.1909         calculate D2E/DX2 analytically  !
 ! D142  D(51,52,55,65)       -171.4884         calculate D2E/DX2 analytically  !
 ! D143  D(51,52,55,66)        -58.9577         calculate D2E/DX2 analytically  !
 ! D144  D(53,52,55,56)        -61.2888         calculate D2E/DX2 analytically  !
 ! D145  D(53,52,55,65)         63.0319         calculate D2E/DX2 analytically  !
 ! D146  D(53,52,55,66)        175.5626         calculate D2E/DX2 analytically  !
 ! D147  D(64,52,55,56)       -179.8998         calculate D2E/DX2 analytically  !
 ! D148  D(64,52,55,65)        -55.5791         calculate D2E/DX2 analytically  !
 ! D149  D(64,52,55,66)         56.9516         calculate D2E/DX2 analytically  !
 ! D150  D(52,55,56,57)        -53.9107         calculate D2E/DX2 analytically  !
 ! D151  D(52,55,56,67)         68.544          calculate D2E/DX2 analytically  !
 ! D152  D(52,55,56,68)       -175.9925         calculate D2E/DX2 analytically  !
 ! D153  D(65,55,56,57)       -177.6266         calculate D2E/DX2 analytically  !
 ! D154  D(65,55,56,67)        -55.1719         calculate D2E/DX2 analytically  !
 ! D155  D(65,55,56,68)         60.2916         calculate D2E/DX2 analytically  !
 ! D156  D(66,55,56,57)         67.5047         calculate D2E/DX2 analytically  !
 ! D157  D(66,55,56,67)       -170.0406         calculate D2E/DX2 analytically  !
 ! D158  D(66,55,56,68)        -54.5771         calculate D2E/DX2 analytically  !
 ! D159  D(55,56,57,58)         91.8134         calculate D2E/DX2 analytically  !
 ! D160  D(55,56,57,69)       -148.9618         calculate D2E/DX2 analytically  !
 ! D161  D(55,56,57,70)        -29.3895         calculate D2E/DX2 analytically  !
 ! D162  D(67,56,57,58)        -31.7188         calculate D2E/DX2 analytically  !
 ! D163  D(67,56,57,69)         87.5059         calculate D2E/DX2 analytically  !
 ! D164  D(67,56,57,70)       -152.9217         calculate D2E/DX2 analytically  !
 ! D165  D(68,56,57,58)       -147.6328         calculate D2E/DX2 analytically  !
 ! D166  D(68,56,57,69)        -28.408          calculate D2E/DX2 analytically  !
 ! D167  D(68,56,57,70)         91.1643         calculate D2E/DX2 analytically  !
 ! D168  D(56,57,58,59)       -167.4059         calculate D2E/DX2 analytically  !
 ! D169  D(56,57,58,71)         -7.8932         calculate D2E/DX2 analytically  !
 ! D170  D(69,57,58,59)         71.9109         calculate D2E/DX2 analytically  !
 ! D171  D(69,57,58,71)       -128.5764         calculate D2E/DX2 analytically  !
 ! D172  D(70,57,58,59)        -45.8061         calculate D2E/DX2 analytically  !
 ! D173  D(70,57,58,71)        113.7066         calculate D2E/DX2 analytically  !
 ! D174  D(57,58,59,60)         -3.8314         calculate D2E/DX2 analytically  !
 ! D175  D(57,58,59,61)        179.5711         calculate D2E/DX2 analytically  !
 ! D176  D(71,58,59,60)       -163.3876         calculate D2E/DX2 analytically  !
 ! D177  D(71,58,59,61)         20.0149         calculate D2E/DX2 analytically  !
 ! D178  D(58,59,60,72)        169.6345         calculate D2E/DX2 analytically  !
 ! D179  D(58,59,60,73)         27.8034         calculate D2E/DX2 analytically  !
 ! D180  D(61,59,60,72)        -13.8853         calculate D2E/DX2 analytically  !
 ! D181  D(61,59,60,73)       -155.7164         calculate D2E/DX2 analytically  !
 ! D182  D(58,59,61,74)       -158.3906         calculate D2E/DX2 analytically  !
 ! D183  D(58,59,61,75)        -17.6473         calculate D2E/DX2 analytically  !
 ! D184  D(60,59,61,74)         25.0265         calculate D2E/DX2 analytically  !
 ! D185  D(60,59,61,75)        165.7697         calculate D2E/DX2 analytically  !
 --------------------------------------------------------------------------------
 Trust Radius=3.00D-01 FncErr=1.00D-07 GrdErr=1.00D-06 EigMax=2.50D+02 EigMin=1.00D-04
 Number of steps in this run=    399 maximum allowed number of steps=    450.
 GradGradGradGradGradGradGradGradGradGradGradGradGradGradGradGradGradGrad

 Symmetry turned off by external request.
 Stoichiometry    C23H36N9O7(1+)
 Framework group  C1[X(C23H36N9O7)]
 Deg. of freedom   219
 Full point group                 C1      NOp   1
                          Input orientation:                          
 ---------------------------------------------------------------------
 Center     Atomic      Atomic             Coordinates (Angstroms)
 Number     Number       Type             X           Y           Z
 ---------------------------------------------------------------------
      1          7           0       -9.348334   -2.565213   -9.868078
      2          6           0       -8.478320   -3.581123   -9.259138
      3          6           0       -8.282951   -3.339088   -7.759893
      4          8           0       -9.158050   -3.745496   -6.995174
      5          6           0       -7.177193   -3.724219  -10.024180
      6          6           0       -7.410393   -4.374736  -11.374823
      7          7           0       -6.275912   -4.664975  -12.065918
      8          8           0       -8.528959   -4.615359  -11.804137
      9          1           0       -9.848040   -3.015456  -10.641847
     10          1           0       -9.004564   -4.536177   -9.301800
     11          1           0       -6.680585   -2.768411  -10.162474
     12          1           0       -6.498908   -4.368786   -9.454932
     13          1           0       -6.362520   -5.127291  -12.954304
     14          1           0       -5.367068   -4.486117  -11.675821
     15          1           0      -10.021558   -2.157645   -9.213424
     16          1           0       -8.756984   -1.825726  -10.284401
     17          7           0       -7.190686   -2.660264   -7.327836
     18          6           0       -6.769990   -2.792774   -5.944260
     19          6           0       -6.723076   -1.454462   -5.183200
     20          8           0       -5.787375   -1.178601   -4.435339
     21          6           0       -5.396718   -3.488744   -5.826143
     22          6           0       -5.160233   -4.561019   -6.850028
     23          6           0       -5.862369   -5.760846   -6.820924
     24          6           0       -4.259619   -4.332398   -7.883674
     25          6           0       -5.676937   -6.713502   -7.821773
     26          6           0       -4.058623   -5.288141   -8.877336
     27          6           0       -4.775053   -6.478996   -8.851011
     28          1           0       -6.488607   -2.354711   -7.984557
     29          1           0       -7.544892   -3.396605   -5.470107
     30          1           0       -4.607880   -2.739924   -5.937484
     31          1           0       -5.320389   -3.872553   -4.809428
     32          1           0       -6.568803   -5.944670   -6.015242
     33          1           0       -3.736928   -3.379126   -7.928789
     34          1           0       -6.250015   -7.632189   -7.801415
     35          1           0       -3.385542   -5.073551   -9.704133
     36          1           0       -4.655800   -7.204063   -9.650620
     37          7           0       -7.708939   -0.552480   -5.380438
     38          6           0       -9.053367   -0.732943   -5.871291
     39          6           0       -9.244099   -0.225654   -7.300655
     40          8           0      -10.325519   -0.383597   -7.863486
     41          6           0      -10.068874   -0.035041   -4.957652
     42          6           0       -9.836807    1.462899   -4.836586
     43          7           0      -10.949879    2.210601   -4.670505
     44          8           0       -8.712794    1.950842   -4.850624
     45          1           0       -7.559918    0.304434   -4.877351
     46          1           0       -9.275158   -1.799563   -5.897575
     47          1           0       -9.976056   -0.452025   -3.953777
     48          1           0      -11.082072   -0.231151   -5.309927
     49          1           0      -10.851482    3.205717   -4.570430
     50          1           0      -11.862193    1.795242   -4.652436
     51          7           0       -8.176970    0.388662   -7.855273
     52          6           0       -8.122445    0.627200   -9.275746
     53          6           0       -6.997491   -0.274152   -9.892242
     54          8           0       -5.897805   -0.297297   -9.307311
     55          6           0       -8.022540    2.104316   -9.633774
     56          6           0       -6.789325    2.910620   -9.219514
     57          6           0       -6.444067    2.858058   -7.732068
     58          7           0       -5.504190    1.754392   -7.532883
     59          6           0       -5.138120    1.223372   -6.378319
     60          7           0       -5.572701    1.733724   -5.219924
     61          7           0       -4.263290    0.202507   -6.406270
     62          8           0       -7.344317   -0.883598  -10.919256
     63          1           0       -7.306840    0.241463   -7.394684
     64          1           0       -9.073639    0.277980   -9.673023
     65          1           0       -8.142443    2.184614  -10.721477
     66          1           0       -8.913725    2.569471   -9.198138
     67          1           0       -5.913026    2.572314   -9.782812
     68          1           0       -6.973918    3.946234   -9.517433
     69          1           0       -5.974444    3.785596   -7.403223
     70          1           0       -7.340398    2.712693   -7.123793
     71          1           0       -5.352269    1.163573   -8.343972
     72          1           0       -5.389815    1.189836   -4.389560
     73          1           0       -6.465375    2.210986   -5.214349
     74          1           0       -4.264010   -0.388001   -5.587246
     75          1           0       -4.154928   -0.270009   -7.296554
 ---------------------------------------------------------------------
 Rotational constants (GHZ):           0.1422086           0.0793535           0.0732862
 Standard basis: 6-31G(d) (6D, 7F)
   657 basis functions,  1236 primitive gaussians,   657 cartesian basis functions
   146 alpha electrons      146 beta electrons
       nuclear repulsion energy      5256.8612507463 Hartrees.
 NAtoms=   75 NActive=   75 NUniq=   75 SFac= 1.00D+00 NAtFMM=   60 NAOKFM=T Big=T
 Integral buffers will be    131072 words long.
 Raffenetti 2 integral format.
 Two-electron integral symmetry is turned off.
 Nuclear repulsion after empirical dispersion term =     5256.7314334617 Hartrees.
 One-electron integrals computed using PRISM.
 NBasis=   657 RedAO= T EigKep=  4.43D-04  NBF=   657
 NBsUse=   657 1.00D-06 EigRej= -1.00D+00 NBFU=   657
 ExpMin= 1.61D-01 ExpMax= 5.48D+03 ExpMxC= 8.25D+02 IAcc=3 IRadAn=         5 AccDes= 0.00D+00
 Harris functional with IExCor=  402 and IRadAn=       5 diagonalized for initial guess.
 HarFok:  IExCor=  402 AccDes= 0.00D+00 IRadAn=         5 IDoV= 1 UseB2=F ITyADJ=14
 ICtDFT=  3500011 ScaDFX=  1.000000  1.000000  1.000000  1.000000
 FoFCou: FMM=F IPFlag=           0 FMFlag=      100000 FMFlg1=        2001
         NFxFlg=           0 DoJE=T BraDBF=F KetDBF=T FulRan=T
         wScrn=  0.000000 ICntrl=       500 IOpCl=  0 I1Cent=   200000004 NGrid=           0
         NMat0=    1 NMatS0=      1 NMatT0=    0 NMatD0=    1 NMtDS0=    0 NMtDT0=    0
 Symmetry not used in FoFCou.
 Requested convergence on RMS density matrix=1.00D-08 within 128 cycles.
 Requested convergence on MAX density matrix=1.00D-06.
 Requested convergence on             energy=1.00D-06.
 No special actions if energy rises.
 Integral accuracy reduced to 1.0D-05 until final iterations.
 Initial convergence to 1.0D-05 achieved.  Increase integral accuracy.
 SCF Done:  E(RB3LYP) =  -1917.50621601     A.U. after   15 cycles
            NFock= 15  Conv=0.76D-08     -V/T= 2.0087
 DoSCS=F DFT=T ScalE2(SS,OS)=  1.000000  1.000000
 Range of M.O.s used for correlation:     1   657
 NBasis=   657 NAE=   146 NBE=   146 NFC=     0 NFV=     0
 NROrb=    657 NOA=   146 NOB=   146 NVA=   511 NVB=   511
 Symmetrizing basis deriv contribution to polar:
 IMax=3 JMax=2 DiffMx= 0.00D+00
 G2DrvN: will do    76 centers at a time, making    1 passes.
 Calling FoFCou, ICntrl=  3107 FMM=T I1Cent=   0 AccDes= 0.00D+00.
 End of G2Drv F.D. properties file   721 does not exist.
 End of G2Drv F.D. properties file   722 does not exist.
 End of G2Drv F.D. properties file   788 does not exist.
          IDoAtm=11111111111111111111111111111111111111111111111111
          IDoAtm=1111111111111111111111111
          Differentiating once with respect to nuclear coordinates.
 CalDSu exits because no D1Ps are significant.
          There are   228 degrees of freedom in the 1st order CPHF.  IDoFFX=6 NUNeed=     0.
    222 vectors produced by pass  0 Test12= 7.46D-14 1.00D-09 XBig12= 1.87D-01 1.26D-01.
 AX will form    72 AO Fock derivatives at one time.
    222 vectors produced by pass  1 Test12= 7.46D-14 1.00D-09 XBig12= 4.68D-02 4.33D-02.
    222 vectors produced by pass  2 Test12= 7.46D-14 1.00D-09 XBig12= 2.69D-04 1.26D-03.
    222 vectors produced by pass  3 Test12= 7.46D-14 1.00D-09 XBig12= 8.38D-07 6.83D-05.
    222 vectors produced by pass  4 Test12= 7.46D-14 1.00D-09 XBig12= 1.28D-09 2.63D-06.
    178 vectors produced by pass  5 Test12= 7.46D-14 1.00D-09 XBig12= 1.24D-12 7.08D-08.
     10 vectors produced by pass  6 Test12= 7.46D-14 1.00D-09 XBig12= 1.16D-15 2.74D-09.
      1 vectors produced by pass  7 Test12= 7.46D-14 1.00D-09 XBig12= 4.62D-16 1.06D-09.
 InvSVY:  IOpt=1 It=  1 EMax= 6.11D-16
 Solved reduced A of dimension  1299 with   228 vectors.
 End of Minotr F.D. properties file   721 does not exist.
 End of Minotr F.D. properties file   722 does not exist.
 End of Minotr F.D. properties file   788 does not exist.

 **********************************************************************

            Population analysis using the SCF Density.

 **********************************************************************

 Alpha  occ. eigenvalues --  -19.24482 -19.24449 -19.24275 -19.23014 -19.21752
 Alpha  occ. eigenvalues --  -19.20622 -19.19835 -14.55687 -14.49287 -14.49109
 Alpha  occ. eigenvalues --  -14.49005 -14.48559 -14.47864 -14.47540 -14.46516
 Alpha  occ. eigenvalues --  -14.45084 -10.45309 -10.41861 -10.41576 -10.41574
 Alpha  occ. eigenvalues --  -10.39815 -10.39236 -10.37732 -10.37149 -10.35536
 Alpha  occ. eigenvalues --  -10.35383 -10.33669 -10.31794 -10.31531 -10.30200
 Alpha  occ. eigenvalues --  -10.30009 -10.29530 -10.29224 -10.28873 -10.28816
 Alpha  occ. eigenvalues --  -10.28588 -10.28535 -10.28469 -10.28382  -1.17274
 Alpha  occ. eigenvalues --   -1.16671  -1.16270  -1.15301  -1.14951  -1.14173
 Alpha  occ. eigenvalues --   -1.13864  -1.11617  -1.06476  -1.05699  -1.05322
 Alpha  occ. eigenvalues --   -1.03996  -1.03285  -1.03095  -1.02720  -1.00206
 Alpha  occ. eigenvalues --   -0.95999  -0.91902  -0.90817  -0.90054  -0.89197
 Alpha  occ. eigenvalues --   -0.85190  -0.84824  -0.84358  -0.80780  -0.80389
 Alpha  occ. eigenvalues --   -0.78100  -0.77245  -0.75864  -0.73079  -0.72190
 Alpha  occ. eigenvalues --   -0.71745  -0.71225  -0.70738  -0.70319  -0.70077
 Alpha  occ. eigenvalues --   -0.69998  -0.69365  -0.68336  -0.67856  -0.67568
 Alpha  occ. eigenvalues --   -0.66576  -0.65773  -0.65083  -0.63785  -0.63028
 Alpha  occ. eigenvalues --   -0.62873  -0.62477  -0.61797  -0.60846  -0.60689
 Alpha  occ. eigenvalues --   -0.59403  -0.59299  -0.59086  -0.58441  -0.57475
 Alpha  occ. eigenvalues --   -0.56774  -0.56492  -0.56224  -0.55640  -0.55444
 Alpha  occ. eigenvalues --   -0.55136  -0.54916  -0.54456  -0.54213  -0.53961
 Alpha  occ. eigenvalues --   -0.53607  -0.52828  -0.52428  -0.51833  -0.51745
 Alpha  occ. eigenvalues --   -0.51622  -0.51196  -0.50685  -0.50438  -0.50353
 Alpha  occ. eigenvalues --   -0.50094  -0.49762  -0.49435  -0.49041  -0.48483
 Alpha  occ. eigenvalues --   -0.48027  -0.47020  -0.46737  -0.45287  -0.44892
 Alpha  occ. eigenvalues --   -0.44752  -0.43930  -0.43855  -0.43782  -0.41696
 Alpha  occ. eigenvalues --   -0.40448  -0.40281  -0.39335  -0.38580  -0.38365
 Alpha  occ. eigenvalues --   -0.38249  -0.38042  -0.37239  -0.36593  -0.36400
 Alpha  occ. eigenvalues --   -0.35808  -0.35592  -0.35021  -0.34561  -0.34517
 Alpha  occ. eigenvalues --   -0.32656
 Alpha virt. eigenvalues --   -0.12449  -0.11584  -0.10679  -0.10408  -0.10166
 Alpha virt. eigenvalues --   -0.09800  -0.09018  -0.06978  -0.06215  -0.05134
 Alpha virt. eigenvalues --   -0.03630  -0.03104  -0.02034  -0.01465  -0.00858
 Alpha virt. eigenvalues --   -0.00358   0.00322   0.00555   0.00666   0.01085
 Alpha virt. eigenvalues --    0.01503   0.01977   0.03064   0.03252   0.03558
 Alpha virt. eigenvalues --    0.03573   0.03980   0.04643   0.04870   0.04960
 Alpha virt. eigenvalues --    0.05092   0.05544   0.05918   0.06360   0.06648
 Alpha virt. eigenvalues --    0.06897   0.06988   0.07237   0.07723   0.08066
 Alpha virt. eigenvalues --    0.08143   0.08811   0.08939   0.08982   0.09707
 Alpha virt. eigenvalues --    0.10384   0.10983   0.11276   0.11785   0.11910
 Alpha virt. eigenvalues --    0.12906   0.13247   0.13520   0.14165   0.14243
 Alpha virt. eigenvalues --    0.14863   0.15299   0.15866   0.16385   0.16665
 Alpha virt. eigenvalues --    0.17374   0.18099   0.18678   0.18992   0.20711
 Alpha virt. eigenvalues --    0.21310   0.21966   0.22127   0.22953   0.23249
 Alpha virt. eigenvalues --    0.24601   0.24902   0.25558   0.26137   0.26491
 Alpha virt. eigenvalues --    0.27021   0.27720   0.28813   0.29676   0.30479
 Alpha virt. eigenvalues --    0.31677   0.32999   0.35321   0.35841   0.37310
 Alpha virt. eigenvalues --    0.37785   0.38596   0.39909   0.40099   0.40208
 Alpha virt. eigenvalues --    0.40819   0.41675   0.42127   0.42834   0.43047
 Alpha virt. eigenvalues --    0.43394   0.43923   0.44789   0.45071   0.45498
 Alpha virt. eigenvalues --    0.45897   0.46221   0.46726   0.47203   0.47408
 Alpha virt. eigenvalues --    0.47594   0.48427   0.49039   0.49097   0.49358
 Alpha virt. eigenvalues --    0.49735   0.50372   0.51047   0.52062   0.52259
 Alpha virt. eigenvalues --    0.52676   0.52753   0.53308   0.53532   0.53770
 Alpha virt. eigenvalues --    0.53959   0.54530   0.54791   0.55151   0.55299
 Alpha virt. eigenvalues --    0.55673   0.56011   0.56305   0.56462   0.56708
 Alpha virt. eigenvalues --    0.57280   0.57541   0.58355   0.58476   0.59805
 Alpha virt. eigenvalues --    0.59967   0.60985   0.61098   0.61500   0.61800
 Alpha virt. eigenvalues --    0.62624   0.63509   0.63552   0.64499   0.64861
 Alpha virt. eigenvalues --    0.65360   0.65947   0.66372   0.67008   0.67721
 Alpha virt. eigenvalues --    0.68202   0.69078   0.69542   0.70056   0.70328
 Alpha virt. eigenvalues --    0.70985   0.71420   0.71972   0.72298   0.72760
 Alpha virt. eigenvalues --    0.73308   0.73855   0.74172   0.74299   0.74973
 Alpha virt. eigenvalues --    0.75298   0.75614   0.75743   0.76156   0.76824
 Alpha virt. eigenvalues --    0.77010   0.77434   0.77863   0.78410   0.78639
 Alpha virt. eigenvalues --    0.78796   0.79009   0.79103   0.79994   0.80223
 Alpha virt. eigenvalues --    0.80768   0.80869   0.81366   0.81673   0.82052
 Alpha virt. eigenvalues --    0.82857   0.83247   0.83789   0.84288   0.84413
 Alpha virt. eigenvalues --    0.84551   0.85008   0.85498   0.85857   0.86171
 Alpha virt. eigenvalues --    0.86719   0.86951   0.87455   0.88347   0.88550
 Alpha virt. eigenvalues --    0.89000   0.90361   0.90857   0.92006   0.92587
 Alpha virt. eigenvalues --    0.92831   0.93045   0.93326   0.94135   0.95345
 Alpha virt. eigenvalues --    0.95617   0.96102   0.97152   0.97843   0.98889
 Alpha virt. eigenvalues --    0.99487   0.99817   1.00154   1.01497   1.01559
 Alpha virt. eigenvalues --    1.03094   1.03989   1.04133   1.04284   1.05501
 Alpha virt. eigenvalues --    1.06293   1.06949   1.07620   1.08071   1.08308
 Alpha virt. eigenvalues --    1.08516   1.10009   1.10580   1.11321   1.11933
 Alpha virt. eigenvalues --    1.12236   1.13766   1.14145   1.14523   1.15096
 Alpha virt. eigenvalues --    1.15566   1.16938   1.17603   1.18257   1.18621
 Alpha virt. eigenvalues --    1.20408   1.21107   1.22879   1.22993   1.24183
 Alpha virt. eigenvalues --    1.24501   1.24829   1.25836   1.27239   1.28071
 Alpha virt. eigenvalues --    1.28942   1.29527   1.29747   1.30375   1.31114
 Alpha virt. eigenvalues --    1.31780   1.32496   1.32798   1.34430   1.34559
 Alpha virt. eigenvalues --    1.35030   1.35184   1.36478   1.37241   1.37965
 Alpha virt. eigenvalues --    1.38529   1.38857   1.39865   1.40755   1.41086
 Alpha virt. eigenvalues --    1.41681   1.42111   1.43598   1.45305   1.46757
 Alpha virt. eigenvalues --    1.47162   1.48611   1.49182   1.50926   1.51380
 Alpha virt. eigenvalues --    1.51632   1.52518   1.53313   1.54375   1.55066
 Alpha virt. eigenvalues --    1.55434   1.55680   1.58247   1.58385   1.60337
 Alpha virt. eigenvalues --    1.61413   1.61939   1.62385   1.62784   1.63502
 Alpha virt. eigenvalues --    1.63937   1.65123   1.65763   1.66263   1.67692
 Alpha virt. eigenvalues --    1.68092   1.68483   1.69184   1.69715   1.69893
 Alpha virt. eigenvalues --    1.70724   1.70992   1.71422   1.71932   1.72599
 Alpha virt. eigenvalues --    1.73546   1.73986   1.74098   1.74602   1.75556
 Alpha virt. eigenvalues --    1.75708   1.77100   1.77203   1.77729   1.78416
 Alpha virt. eigenvalues --    1.78836   1.79480   1.79971   1.80904   1.81139
 Alpha virt. eigenvalues --    1.81842   1.82055   1.82200   1.82864   1.83054
 Alpha virt. eigenvalues --    1.83560   1.85030   1.85307   1.86219   1.86329
 Alpha virt. eigenvalues --    1.86904   1.87781   1.88204   1.88658   1.89556
 Alpha virt. eigenvalues --    1.90523   1.90916   1.91242   1.92127   1.92628
 Alpha virt. eigenvalues --    1.94552   1.94846   1.95529   1.96143   1.96704
 Alpha virt. eigenvalues --    1.97428   1.97790   1.98114   1.98654   1.99673
 Alpha virt. eigenvalues --    2.00052   2.00744   2.02311   2.02737   2.02897
 Alpha virt. eigenvalues --    2.04244   2.04433   2.04919   2.05355   2.05923
 Alpha virt. eigenvalues --    2.06790   2.08417   2.09392   2.09557   2.10317
 Alpha virt. eigenvalues --    2.10640   2.10871   2.13113   2.13575   2.14211
 Alpha virt. eigenvalues --    2.15117   2.16546   2.16778   2.17444   2.18109
 Alpha virt. eigenvalues --    2.18400   2.19132   2.19625   2.21111   2.21605
 Alpha virt. eigenvalues --    2.22224   2.23036   2.23515   2.24971   2.25540
 Alpha virt. eigenvalues --    2.26688   2.26996   2.28016   2.28743   2.29151
 Alpha virt. eigenvalues --    2.29873   2.31462   2.32079   2.33376   2.34031
 Alpha virt. eigenvalues --    2.34962   2.35865   2.37371   2.37556   2.38191
 Alpha virt. eigenvalues --    2.40351   2.41006   2.42570   2.43492   2.44317
 Alpha virt. eigenvalues --    2.45374   2.46133   2.47185   2.47721   2.48417
 Alpha virt. eigenvalues --    2.49381   2.49755   2.50435   2.50941   2.51073
 Alpha virt. eigenvalues --    2.51712   2.53182   2.53761   2.54050   2.55211
 Alpha virt. eigenvalues --    2.55612   2.56225   2.57115   2.57754   2.59333
 Alpha virt. eigenvalues --    2.61409   2.61965   2.63351   2.63636   2.64133
 Alpha virt. eigenvalues --    2.65692   2.66167   2.67297   2.68312   2.69321
 Alpha virt. eigenvalues --    2.69515   2.71080   2.73340   2.76054   2.77657
 Alpha virt. eigenvalues --    2.77938   2.81438   2.83684   2.86070   2.88464
 Alpha virt. eigenvalues --    2.88757   2.89067   2.90797   2.92367   2.92449
 Alpha virt. eigenvalues --    2.93472   2.94389   2.95610   2.97444   2.97653
 Alpha virt. eigenvalues --    3.00514   3.00977   3.03893   3.05132   3.07769
 Alpha virt. eigenvalues --    3.11108   3.33393   3.69724   3.73200   3.73717
 Alpha virt. eigenvalues --    3.80014   3.82565   3.89652   3.92964   3.95385
 Alpha virt. eigenvalues --    3.96542   3.98935   3.99893   4.03075   4.03626
 Alpha virt. eigenvalues --    4.04764   4.06354   4.09201   4.10507   4.13798
 Alpha virt. eigenvalues --    4.15159   4.17349   4.17995   4.20276   4.24308
 Alpha virt. eigenvalues --    4.25500   4.28260   4.30872   4.32560   4.38017
 Alpha virt. eigenvalues --    4.38956   4.41577   4.42781   4.43705   4.46031
 Alpha virt. eigenvalues --    4.55846   4.60134   4.61768   4.64082   4.64996
 Alpha virt. eigenvalues --    4.72160
          Condensed to atoms (all electrons):
 Mulliken charges:
               1
     1  N   -0.782598
     2  C   -0.090529
     3  C    0.594070
     4  O   -0.503953
     5  C   -0.471097
     6  C    0.633117
     7  N   -0.744558
     8  O   -0.521037
     9  H    0.422270
    10  H    0.237287
    11  H    0.241765
    12  H    0.217551
    13  H    0.363026
    14  H    0.350701
    15  H    0.424913
    16  H    0.437172
    17  N   -0.610087
    18  C   -0.087316
    19  C    0.616441
    20  O   -0.548525
    21  C   -0.372326
    22  C    0.180754
    23  C   -0.184886
    24  C   -0.198135
    25  C   -0.134368
    26  C   -0.148361
    27  C   -0.130612
    28  H    0.362726
    29  H    0.224235
    30  H    0.142989
    31  H    0.197318
    32  H    0.148743
    33  H    0.125719
    34  H    0.159509
    35  H    0.145142
    36  H    0.155524
    37  N   -0.635049
    38  C   -0.073999
    39  C    0.603060
    40  O   -0.559928
    41  C   -0.388349
    42  C    0.623483
    43  N   -0.729070
    44  O   -0.550116
    45  H    0.365190
    46  H    0.225106
    47  H    0.206821
    48  H    0.199635
    49  H    0.364766
    50  H    0.365581
    51  N   -0.594128
    52  C   -0.080022
    53  C    0.616671
    54  O   -0.624709
    55  C   -0.273212
    56  C   -0.321172
    57  C   -0.152688
    58  N   -0.604888
    59  C    0.707671
    60  N   -0.748217
    61  N   -0.751735
    62  O   -0.570567
    63  H    0.362300
    64  H    0.159495
    65  H    0.175998
    66  H    0.157541
    67  H    0.174492
    68  H    0.177774
    69  H    0.190921
    70  H    0.187028
    71  H    0.397389
    72  H    0.374791
    73  H    0.401821
    74  H    0.392137
    75  H    0.375592
 Sum of Mulliken charges =   1.00000
 Mulliken charges with hydrogens summed into heavy atoms:
               1
     1  N    0.501758
     2  C    0.146758
     3  C    0.594070
     4  O   -0.503953
     5  C   -0.011781
     6  C    0.633117
     7  N   -0.030830
     8  O   -0.521037
    17  N   -0.247361
    18  C    0.136919
    19  C    0.616441
    20  O   -0.548525
    21  C   -0.032019
    22  C    0.180754
    23  C   -0.036143
    24  C   -0.072416
    25  C    0.025141
    26  C   -0.003219
    27  C    0.024912
    37  N   -0.269859
    38  C    0.151107
    39  C    0.603060
    40  O   -0.559928
    41  C    0.018107
    42  C    0.623483
    43  N    0.001277
    44  O   -0.550116
    51  N   -0.231828
    52  C    0.079473
    53  C    0.616671
    54  O   -0.624709
    55  C    0.060327
    56  C    0.031093
    57  C    0.225262
    58  N   -0.207498
    59  C    0.707671
    60  N    0.028395
    61  N    0.015994
    62  O   -0.570567
 APT charges:
               1
     1  N   -2.662863
     2  C   -0.970956
     3  C    0.337066
     4  O    0.437135
     5  C    0.872393
     6  C   -3.522386
     7  N   -0.939418
     8  O    3.325521
     9  H    2.654165
    10  H    1.368364
    11  H   -0.276095
    12  H   -0.570027
    13  H    2.904196
    14  H   -1.357343
    15  H    0.459146
    16  H    0.113001
    17  N   -1.373507
    18  C   -0.921259
    19  C    1.777861
    20  O   -2.419437
    21  C    0.675711
    22  C   -1.819738
    23  C   -0.611665
    24  C   -0.762631
    25  C   -0.239099
    26  C   -0.576739
    27  C   -0.225324
    28  H    0.187259
    29  H    0.733468
    30  H   -0.340602
    31  H   -0.233264
    32  H    0.315543
    33  H   -0.418148
    34  H    1.653678
    35  H    0.827103
    36  H    1.904234
    37  N    1.031871
    38  C   -1.150336
    39  C   -2.238800
    40  O    2.397988
    41  C   -1.574609
    42  C    1.318619
    43  N   -1.358297
    44  O   -2.403983
    45  H   -0.137418
    46  H    0.659948
    47  H   -0.336536
    48  H    1.854143
    49  H    0.626583
    50  H    2.124524
    51  N    1.160022
    52  C   -2.142986
    53  C    0.443488
    54  O   -2.286320
    55  C   -2.640963
    56  C   -1.380652
    57  C   -0.219492
    58  N    0.261582
    59  C   -0.307727
    60  N   -1.162258
    61  N   -1.325209
    62  O    1.466629
    63  H   -0.962963
    64  H    1.648325
    65  H    1.738698
    66  H    0.828218
    67  H    0.203432
    68  H    1.297265
    69  H    0.053366
    70  H    0.458511
    71  H    0.991836
    72  H   -0.558189
    73  H    1.342266
    74  H   -0.313918
    75  H    1.288003
 Sum of APT charges =   1.00000
 APT charges with hydrogens summed into heavy atoms:
               1
     1  N    0.563449
     2  C    0.397408
     3  C    0.337066
     4  O    0.437135
     5  C    0.026271
     6  C   -3.522386
     7  N    0.607435
     8  O    3.325521
    17  N   -1.186248
    18  C   -0.187791
    19  C    1.777861
    20  O   -2.419437
    21  C    0.101845
    22  C   -1.819738
    23  C   -0.296123
    24  C   -1.180780
    25  C    1.414579
    26  C    0.250364
    27  C    1.678910
    37  N    0.894453
    38  C   -0.490388
    39  C   -2.238800
    40  O    2.397988
    41  C   -0.057002
    42  C    1.318619
    43  N    1.392809
    44  O   -2.403983
    51  N    0.197060
    52  C   -0.494661
    53  C    0.443488
    54  O   -2.286320
    55  C   -0.074047
    56  C    0.120045
    57  C    0.292385
    58  N    1.253417
    59  C   -0.307727
    60  N   -0.378181
    61  N   -0.351124
    62  O    1.466629
 Electronic spatial extent (au):  <R**2>=         135299.6085
 Charge=              1.0000 electrons
 Dipole moment (field-independent basis, Debye):
    X=            -36.0292    Y=             -3.7996    Z=            -34.0134  Tot=             49.6935
 Quadrupole moment (field-independent basis, Debye-Ang):
   XX=             80.8407   YY=           -162.8680   ZZ=             40.5965
   XY=              5.0459   XZ=            235.3889   YZ=             53.5480
 Traceless Quadrupole moment (field-independent basis, Debye-Ang):
   XX=             94.6510   YY=           -149.0577   ZZ=             54.4067
   XY=              5.0459   XZ=            235.3889   YZ=             53.5480
 Octapole moment (field-independent basis, Debye-Ang**2):
  XXX=           1958.9819  YYY=            818.8087  ZZZ=           2940.8769  XYY=           1226.1467
  XXY=            480.6471  XXZ=           -122.1836  XZZ=            -89.9209  YZZ=           -309.1192
  YYZ=           1167.1371  XYZ=           -193.4416
 Hexadecapole moment (field-independent basis, Debye-Ang**3):
 XXXX=         -44816.5161 YYYY=         -11767.9279 ZZZZ=         -65628.2750 XXXY=          -8936.5879
 XXXZ=         -20634.3493 YYYX=          -5412.1267 YYYZ=          -7011.7082 ZZZX=         -23678.6436
 ZZZY=          -1550.4876 XXYY=         -12087.6795 XXZZ=         -14187.0413 YYZZ=         -11065.2421
 XXYZ=          -2810.7719 YYXZ=          -9194.4231 ZZXY=            593.6276
 N-N= 5.256731433462D+03 E-N=-1.495252959257D+04  KE= 1.900903261310D+03
  Exact polarizability:       0.000       0.000       0.000       0.000       0.000       0.000
 Approx polarizability:     494.312      28.166     431.670     -14.398      32.184     447.352
 Calling FoFJK, ICntrl=    100127 FMM=F ISym2X=0 I1Cent= 0 IOpClX= 0 NMat=1 NMatS=1 NMatT=0.
 -------------------------------------------------------------------
 Center     Atomic                   Forces (Hartrees/Bohr)
 Number     Number              X              Y              Z
 -------------------------------------------------------------------
      1        7          -0.013955105   -0.001138723   -0.008412453
      2        6           0.019532451   -0.020341604    0.012637518
      3        6          -0.013842666    0.001209983    0.003465777
      4        8           0.003077865    0.000152311   -0.001053762
      5        6           0.005256389   -0.009146360    0.000885333
      6        6           0.014797320    0.001414396   -0.007002988
      7        7          -0.008443140    0.001836476    0.008252518
      8        8          -0.014495602    0.001067420   -0.000185296
      9        1           0.000391967   -0.000677363   -0.004719794
     10        1          -0.002913593    0.001751608    0.000084616
     11        1           0.003236033    0.004010878   -0.003277687
     12        1          -0.001926311    0.000133623    0.001756463
     13        1           0.001089258   -0.001398530   -0.004914291
     14        1           0.004198996   -0.000303781   -0.000613392
     15        1          -0.003316679    0.005387311    0.004747576
     16        1           0.007053952    0.014334654   -0.008462274
     17        7          -0.000367886    0.001285369    0.000619733
     18        6           0.002107292    0.003004411    0.005905267
     19        6          -0.005228495   -0.006312730   -0.003646621
     20        8           0.011058341    0.001812374    0.004877699
     21        6           0.003381851    0.002068722    0.000105348
     22        6          -0.001797642    0.002279500    0.004646422
     23        6          -0.004844829   -0.006037554    0.001241054
     24        6           0.003685102    0.003674077   -0.005359905
     25        6          -0.005505933   -0.002020710    0.004885846
     26        6           0.002120519    0.005087279   -0.006155332
     27        6           0.001116509   -0.002451907   -0.007212602
     28        1           0.002343642    0.002107303   -0.006105048
     29        1          -0.000755824   -0.003192735    0.001671987
     30        1          -0.000357966    0.001082258    0.002659340
     31        1           0.002357773   -0.000836736    0.002930019
     32        1          -0.000680094   -0.001018511   -0.000355169
     33        1           0.002061656   -0.000995917   -0.000500622
     34        1          -0.000695971   -0.002319457    0.000555271
     35        1           0.002152737   -0.001090811    0.001546344
     36        1           0.001004079   -0.001028014    0.000831693
     37        7           0.003189624   -0.002435216    0.003474189
     38        6          -0.004355838   -0.001283550   -0.004919457
     39        6           0.008044986    0.002125713    0.001434167
     40        8          -0.008579382   -0.006532617   -0.005662031
     41        6          -0.002007535   -0.000616578    0.004454343
     42        6          -0.016244793   -0.002351498    0.001137102
     43        7           0.008957092   -0.005571361   -0.002213873
     44        8           0.019167658    0.009710800   -0.001826999
     45        1          -0.002990496    0.007995078    0.004606908
     46        1          -0.004715652   -0.001032908    0.000166139
     47        1          -0.000927859   -0.002454413    0.003990960
     48        1           0.000179886   -0.003483909   -0.002594791
     49        1          -0.001011602    0.005960624    0.002005756
     50        1          -0.006754486    0.000210526   -0.000534894
     51        7          -0.016231956   -0.004888811    0.003033660
     52        6           0.007135256   -0.004871495   -0.009555155
     53        6          -0.023981990    0.025024937    0.001547444
     54        8           0.025905930   -0.008481990    0.014145039
     55        6          -0.006906748    0.005506273   -0.004504914
     56        6          -0.002144015   -0.001069200   -0.004153050
     57        6           0.002971696    0.003569544    0.002622795
     58        7          -0.002894308    0.006464741    0.004611097
     59        6          -0.001101893    0.005568849   -0.008826652
     60        7           0.001068562    0.001126184    0.006649881
     61        7           0.001436623   -0.002310014    0.002093853
     62        8          -0.005252738   -0.018080097   -0.011728038
     63        1           0.011159741   -0.000589793    0.006317785
     64        1          -0.001594015    0.001617389   -0.001380627
     65        1           0.001055741   -0.000067315    0.000165846
     66        1          -0.000821427    0.002948499    0.000808216
     67        1           0.000743169    0.002298881   -0.002392815
     68        1           0.001569319    0.001201076    0.000839843
     69        1           0.003022796    0.002635254    0.000585128
     70        1          -0.003107435   -0.000487910    0.000799654
     71        1          -0.000808733   -0.007513928   -0.009039724
     72        1           0.000967132   -0.002266599    0.004062866
     73        1          -0.001066962    0.004400394    0.000588724
     74        1           0.001468240   -0.006086769    0.002920317
     75        1           0.002560419    0.000722701   -0.000057281
 -------------------------------------------------------------------
 Cartesian Forces:  Max     0.025905930 RMS     0.006251536
 FormGI is forming the generalized inverse of G from B-inverse, IUseBI=4.

 GradGradGradGradGradGradGradGradGradGradGradGradGradGradGradGradGradGrad
 Berny optimization.
 Internal  Forces:  Max     0.029666743 RMS     0.006098758
 Search for a local minimum.
 Step number   1 out of a maximum of  399
 All quantities printed in internal units (Hartrees-Bohrs-Radians)
 Mixed Optimization -- RFO/linear search
 Second derivative matrix not updated -- analytic derivatives used.
 ITU=  0
     Eigenvalues ---   -0.00233  -0.00050  -0.00008   0.00103   0.00129
     Eigenvalues ---    0.00181   0.00235   0.00244   0.00328   0.00402
     Eigenvalues ---    0.00463   0.00502   0.00527   0.00533   0.00659
     Eigenvalues ---    0.00723   0.00887   0.00959   0.01002   0.01162
     Eigenvalues ---    0.01269   0.01506   0.01584   0.01710   0.01738
     Eigenvalues ---    0.01774   0.01814   0.01858   0.01877   0.01897
     Eigenvalues ---    0.02111   0.02136   0.02390   0.02426   0.02612
     Eigenvalues ---    0.02804   0.02840   0.02903   0.03013   0.03171
     Eigenvalues ---    0.03381   0.03622   0.03861   0.04036   0.04090
     Eigenvalues ---    0.04120   0.04159   0.04180   0.04206   0.04281
     Eigenvalues ---    0.04341   0.04382   0.04506   0.04526   0.04573
     Eigenvalues ---    0.04662   0.04716   0.04852   0.04893   0.05031
     Eigenvalues ---    0.05166   0.05246   0.05537   0.05640   0.05799
     Eigenvalues ---    0.06042   0.06259   0.06335   0.06640   0.06924
     Eigenvalues ---    0.07045   0.07142   0.07762   0.07872   0.08379
     Eigenvalues ---    0.08418   0.08512   0.08641   0.08727   0.09049
     Eigenvalues ---    0.10952   0.10992   0.11063   0.11331   0.11395
     Eigenvalues ---    0.11613   0.11906   0.12027   0.12144   0.12327
     Eigenvalues ---    0.12510   0.12637   0.12651   0.12804   0.13013
     Eigenvalues ---    0.13212   0.13327   0.13590   0.13723   0.13978
     Eigenvalues ---    0.14776   0.14837   0.15035   0.16428   0.16481
     Eigenvalues ---    0.16882   0.17216   0.18431   0.18664   0.18812
     Eigenvalues ---    0.19227   0.19556   0.19719   0.19933   0.20045
     Eigenvalues ---    0.20216   0.20562   0.20908   0.21457   0.21994
     Eigenvalues ---    0.22069   0.22311   0.22349   0.22820   0.23059
     Eigenvalues ---    0.23579   0.23867   0.24214   0.24574   0.25185
     Eigenvalues ---    0.25736   0.25972   0.26706   0.27018   0.27404
     Eigenvalues ---    0.27814   0.28052   0.28923   0.29370   0.30257
     Eigenvalues ---    0.31030   0.31556   0.31703   0.32140   0.32251
     Eigenvalues ---    0.32539   0.33253   0.33651   0.33792   0.33874
     Eigenvalues ---    0.33988   0.34008   0.34093   0.34472   0.34567
     Eigenvalues ---    0.34599   0.34700   0.34842   0.34926   0.35216
     Eigenvalues ---    0.35317   0.35444   0.35565   0.35600   0.35868
     Eigenvalues ---    0.35986   0.36195   0.36280   0.36909   0.37088
     Eigenvalues ---    0.37639   0.37810   0.38379   0.38948   0.40640
     Eigenvalues ---    0.41092   0.42399   0.42755   0.42884   0.43376
     Eigenvalues ---    0.44341   0.44748   0.46200   0.46321   0.46699
     Eigenvalues ---    0.47082   0.47188   0.47339   0.47493   0.47709
     Eigenvalues ---    0.48451   0.48956   0.49288   0.49556   0.49581
     Eigenvalues ---    0.49782   0.50088   0.50360   0.51088   0.52123
     Eigenvalues ---    0.53239   0.53397   0.55553   0.60869   0.64799
     Eigenvalues ---    0.66713   0.71074   0.77540   0.79511   0.80996
     Eigenvalues ---    0.81918   0.83043   0.83999   0.85114   0.85677
     Eigenvalues ---    1.33332   2.29359   5.14178   7.31260
 RFO step:  Lambda=-2.85960620D-02 EMin=-2.33051232D-03
 Linear search not attempted -- first point.
 Iteration  1 RMS(Cart)=  0.26328901 RMS(Int)=  0.01137231
 Iteration  2 RMS(Cart)=  0.03357535 RMS(Int)=  0.00030827
 Iteration  3 RMS(Cart)=  0.00055705 RMS(Int)=  0.00015292
 Iteration  4 RMS(Cart)=  0.00000029 RMS(Int)=  0.00015292
 Variable       Old X    -DE/DX   Delta X   Delta X   Delta X     New X
                                 (Linear)    (Quad)   (Total)
    R1        2.77719   0.02518   0.00000   0.06711   0.06711   2.84430
    R2        1.93745   0.00367   0.00000   0.00556   0.00556   1.94301
    R3        1.93447   0.00736   0.00000   0.02595   0.02595   1.96042
    R4        1.95462   0.01769   0.00000   0.05042   0.05042   2.00504
    R5        2.89349   0.00818   0.00000   0.01406   0.01406   2.90755
    R6        2.86510   0.00598   0.00000   0.01764   0.01764   2.88274
    R7        2.06221  -0.00013   0.00000  -0.00301  -0.00301   2.05920
    R8        2.32656  -0.00289   0.00000  -0.00852  -0.00852   2.31804
    R9        2.56371   0.00324   0.00000   0.01913   0.01913   2.58284
   R10        2.86703   0.00329   0.00000   0.01684   0.01684   2.88387
   R11        2.05217   0.00543   0.00000   0.01975   0.01975   2.07192
   R12        2.06973  -0.00036   0.00000  -0.00446  -0.00446   2.06527
   R13        2.56954  -0.00405   0.00000  -0.01516  -0.01516   2.55438
   R14        2.30933   0.01312   0.00000   0.01868   0.01868   2.32801
[...]
 00003326,0.00000782,-0.00002132,0.00002182,-0.00000086,-0.00000654,-0.
 00001706,0.00006253,0.00003027,-0.00001431,0.00005994,0.00004267,-0.00
 011690,0.00000814,0.00019570,0.00001018,0.00057671,-0.00007118,0.00012
 532,-0.00005584,0.00000072,0.00018084,-0.00023442,-0.00009384,-0.00008
 911,0.00021214,-0.00003107,-0.00010457,-0.00011370,0.00002442,-0.00074
 936,0.00010941,-0.00027408,0.00266956,0.00016622,-0.00074430,-0.000544
 75,0.00021075,-0.00175157,0.03030262,-0.01012595,0.01117046,-0.0256087
 5,0.01160013,-0.08115915,0.00219375,-0.00143221,-0.00456342,-0.0000365
 9,0.00023955,0.00004621,0.00013395,-0.00062320,-0.00037077,-0.00001262
 ,0.00003281,0.00002733,0.00004682,0.00005663,0.00005161,0.00000045,0.0
 0003273,-0.00003450,0.00000116,-0.00003689,0.00036217,0.00001315,-0.00
 002961,0.00007558,-0.00023792,0.00020677,-0.00000263,-0.00161605,0.000
 82066,-0.00159460,-0.00056737,-0.00047292,0.00002876,-0.03006248,0.008
 81841,0.00527097,0.02314351,-0.00855361,0.07546473,-0.00005089,0.00005
 170,0.00017939,0.00002845,0.00001790,-0.00007715,-0.00051634,-0.000463
 27,-0.00014951,0.00021623,0.00026689,0.00009115,0.00008469,-0.00001919
 ,0.00007789,0.00002715,-0.00013141,-0.00018315,-0.00004887,0.00010735,
 0.00011436,-0.00002661,0.00008519,0.00011126,-0.00001505,-0.00006945,-
 0.00008163,0.00000603,-0.00000362,0.00003014,0.00001672,-0.00000035,-0
 .00001012,0.00000638,-0.00001154,-0.00000565,-0.00000107,-0.00000329,-
 0.00001793,0.00001004,-0.00002169,-0.00001334,-0.00000074,-0.00010149,
 -0.00014892,0.00012496,0.00006758,-0.00006614,0.00010230,0.00064776,0.
 00089562,-0.00014018,-0.00047496,-0.00036565,-0.01093760,-0.00012116,-
 0.00711120,0.00593308,0.00294946,0.00455103,0.00037226,0.00018813,0.00
 037125,-0.00017640,-0.00013155,-0.00015412,-0.00006754,0.00008385,0.00
 005877,-0.00005541,0.00016138,0.00001459,-0.00001392,-0.00002869,-0.00
 000365,-0.00000038,-0.00001115,0.00000829,-0.00000923,0.00002743,0.000
 02932,0.00022385,0.00011460,-0.00018103,-0.00000698,-0.00005413,0.0002
 8894,0.00010966,-0.00006735,0.00002760,0.00029750,0.00014365,-0.000133
 48,0.00003494,-0.00004855,0.00002576,0.00004680,-0.00001309,0.00000669
 ,0.00001207,0.00001739,0.00001089,0.00000779,0.00001239,0.00002967,0.0
 0000302,0.00000686,0.00001335,0.00416600,-0.00302197,0.00115068,-0.001
 37443,-0.00004578,-0.00084510,0.00032379,0.00024970,-0.00077229,0.0001
 6629,0.00001100,0.00073438,0.00014144,0.00004559,0.00026099,-0.0003585
 9,0.00058889,-0.00018488,0.00019349,-0.00034366,0.00011536,0.00011137,
 -0.00065036,0.00006428,-0.00027946,0.00077610,0.00022513,0.00029082,-0
 .00003173,0.00014827,-0.00011188,0.00001201,0.00002996,0.00011286,-0.0
 0014740,-0.00002666,0.00001765,0.00005126,0.00000376,-0.00004704,0.000
 03679,-0.00001278,-0.00022759,-0.00045899,0.00063502,0.00005275,0.0002
 0683,-0.00034713,0.00066908,0.00030130,0.00025424,-0.00063728,-0.00038
 413,-0.00030373,0.00008326,0.00012808,0.00002305,-0.00019922,0.0004367
 1,0.00010503,-0.00023439,-0.00074452,-0.00131436,-0.00377433,0.0062110
 8,0.00036619,0.00327510,0.02338839,-0.02736434,-0.00144150,-0.00229127
 ,-0.00082596,-0.04969753,-0.04092742,0.08274345,-0.00029965,-0.0004111
 4,0.00004327,0.00020141,0.00051145,-0.00039294,0.00000385,-0.00001392,
 0.00004243,-0.00004582,-0.00008222,0.00000046,-0.00002732,-0.00000418,
 -0.00001340,0.00000035,-0.00001623,0.00001681,-0.00002829,-0.00003759,
 -0.00020740,0.00004266,-0.00008948,0.00009489,-0.00009845,0.00013200,0
 .00001011,0.00048949,0.00065534,0.00085199,0.00137917,0.00131635,0.000
 67600,0.00002193,0.00001101,0.00012172,0.05392617,-0.00009547,-0.00009
 675,0.00011658,-0.00001835,0.00013292,-0.00009898,-0.00046642,-0.00042
 669,-0.00009832,0.00024223,0.00017935,0.00007818,0.00009219,-0.0000128
 8,0.00009484,-0.00008424,-0.00002057,-0.00019118,0.00000897,0.00004415
 ,0.00008575,0.00006178,-0.00001165,0.00013144,-0.00001713,-0.00001129,
 -0.00002934,0.00001299,-0.00001420,0.00003684,-0.00002834,0.00002996,-
 0.00003263,-0.00002060,-0.00002740,-0.00001161,0.00000002,-0.00000355,
 -0.00001881,-0.00002610,-0.00002302,-0.00004019,-0.00001552,-0.0000099
 2,-0.00006093,0.00025410,0.00018344,-0.00003725,0.00051540,0.00028105,
 0.00068738,-0.00031856,0.00031377,-0.00065637,-0.00774858,-0.00000507,
 -0.00667587,0.00479947,0.00020880,0.00569913,0.00012311,0.00026516,-0.
 00024407,0.00018220,-0.00027648,-0.00011508,-0.00004562,0.00010906,0.0
 0012926,0.00000045,0.00029295,0.00005747,-0.00000807,-0.00003067,-0.00
 000321,-0.00002331,-0.00003932,0.00001914,0.00002014,0.00005761,0.0000
 6185,0.00011690,0.00027028,-0.00029531,-0.00001093,0.00000093,0.000236
 43,-0.00002124,0.00013877,-0.00026093,0.00018670,-0.00075803,-0.000000
 56,0.00000295,-0.00006275,0.00001677,0.00000803,0.00002499,-0.00001831
 ,0.00000122,0.00002929,0.00001228,-0.00000850,0.00002647,0.00004588,-0
 .00000831,0.00001399,0.00001916,0.00397750,-0.00313500,0.00169765,-0.0
 0110893,-0.00030621,-0.00040621,0.00056164,0.00046167,-0.00065249,0.00
 000020,-0.00015275,0.00050755,0.00005310,0.00000484,0.00020354,0.00029
 033,0.00060590,0.00005260,-0.00010811,-0.00019348,-0.00001039,-0.00062
 755,-0.00078586,-0.00013375,0.00026887,0.00092885,0.00007717,0.0001709
 5,-0.00000079,0.00008729,-0.00008754,0.00001079,0.00001338,0.00008427,
 -0.00013724,-0.00003237,0.00004209,0.00001421,0.00001428,-0.00002253,0
 .00005021,-0.00000919,-0.00028581,-0.00055893,0.00058245,-0.00000145,0
 .00015212,-0.00028683,0.00119349,0.00091663,0.00059186,-0.00114229,-0.
 00071399,-0.00084182,0.00006875,0.00011171,0.00004617,0.00009310,0.000
 08934,0.00005173,0.00127101,0.00040649,-0.00000253,-0.00054042,0.00083
 426,-0.00275249,-0.00264476,-0.01790769,0.01466423,-0.00254574,0.00101
 951,0.00047957,-0.02397261,-0.25012277,0.19146452,-0.00048464,-0.00102
 341,-0.00010839,0.00035526,0.00051818,-0.00017161,-0.00001459,-0.00000
 376,0.00002106,-0.00004111,-0.00006558,-0.00001058,-0.00003372,-0.0000
 1023,-0.00001096,-0.00002857,-0.00000533,0.00001800,-0.00006002,-0.000
 01822,-0.00009589,-0.00018371,0.00019011,-0.00003621,0.00001945,-0.000
 02699,0.00014678,0.00012252,0.00039579,0.00112764,0.00147953,-0.001622
 03,-0.00164508,0.00101979,0.00082709,0.00005200,0.02501021,0.25354028,
 0.00010617,0.00012409,0.00000155,-0.00000903,-0.00006783,0.00004615,-0
 .00006744,-0.00007194,0.00002622,0.00006177,0.00003938,-0.00010419,-0.
 00001195,0.00001368,-0.00000472,0.00002891,-0.00005698,-0.00002481,-0.
 00000742,0.00004498,0.00001390,-0.00000983,0.00004849,0.00001180,-0.00
 000823,-0.00002925,-0.00003557,-0.00000362,0.00000716,-0.00001373,0.00
 000328,-0.00001535,0.00000337,-0.00000712,0.00000581,0.00000355,-0.000
 00361,-0.00001212,-0.00000389,-0.00000849,-0.00001488,-0.00000320,-0.0
 0001268,-0.00004345,-0.00002732,-0.00022158,-0.00016064,-0.00001705,0.
 00008151,-0.00002872,-0.00034675,-0.00030873,0.00023722,-0.00022365,0.
 00175014,-0.00146625,0.00241930,-0.00174968,0.00064995,-0.00526636,-0.
 00025582,-0.00055331,0.00049490,0.00027767,0.00017736,-0.00025477,-0.0
 0005442,0.00004657,0.00016463,-0.00001800,-0.00002597,0.00002608,-0.00
 000080,0.00004846,-0.00003133,-0.00000258,0.00000779,-0.00002116,0.000
 00509,0.00001557,0.00000710,-0.00011159,-0.00018623,0.00007698,0.00011
 162,0.00006326,0.00000057,0.00009054,0.00018813,-0.00064228,-0.0000745
 5,-0.00015244,0.00018267,0.00002082,0.00000494,-0.00001260,0.00003004,
 -0.00001245,-0.00002627,0.00000103,0.00002220,0.00001414,0.00000234,-0
 .00000027,0.00000674,0.00000215,0.00000902,0.00000488,-0.00170641,0.00
 115582,-0.00072055,0.00033832,0.00006438,0.00023954,-0.00061471,-0.000
 49049,0.00044379,0.00028221,0.00022184,-0.00010903,-0.00005452,0.00001
 589,-0.00007419,-0.00037647,-0.00025767,-0.00004418,0.00017161,0.00000
 598,-0.00001698,0.00056699,0.00036541,-0.00007479,-0.00007287,-0.00048
 226,0.00023609,-0.00007915,0.00001540,-0.00003770,0.00004801,-0.000006
 96,-0.00001445,-0.00003934,0.00006477,0.00002392,-0.00004638,0.0000169
 8,0.00003421,-0.00001813,-0.00001742,0.00002924,0.00047287,0.00052768,
 -0.00038409,0.00000675,-0.00007616,0.00001687,-0.00084921,-0.00065647,
 -0.00055285,0.00048017,0.00058627,0.00093457,-0.00009693,-0.00004636,-
 0.00003115,0.00003235,-0.00001751,-0.00024546,-0.00107999,0.00034672,-
 0.00055361,0.00281833,0.00138743,0.00597189,-0.01530117,0.01120849,-0.
 00345811,0.00273926,-0.00461842,-0.00336372,0.07070262,0.16442321,-0.2
 0248758,0.00034048,0.00068041,0.00018632,-0.00058327,-0.00047605,0.000
 08605,0.00001367,0.00001274,0.00001094,0.00003777,0.00004962,0.0000417
 7,0.00002247,0.00000366,0.00000148,0.00002413,0.00003128,-0.00002900,0
 .00005080,-0.00002087,0.00006702,0.00026064,-0.00031673,0.00026709,0.0
 0018698,-0.00014236,0.00005203,0.00079168,-0.00069860,-0.00091417,0.00
 158562,-0.00172369,0.00022307,-0.00062438,0.00068096,-0.00038020,-0.06
 063613,-0.19096646,0.22120529,0.00014197,0.00017362,0.00008692,0.00000
 996,-0.00006441,0.00001200,-0.00033418,-0.00030251,-0.00004327,0.00016
 993,0.00016340,-0.00006869,0.00002429,0.00000688,0.00003310,0.00005511
 ,-0.00013176,-0.00012541,-0.00004525,0.00009623,0.00008080,-0.00003220
 ,0.00009599,0.00007131,-0.00000945,-0.00006693,-0.00008595,-0.00000214
 ,0.00001091,-0.00000009,0.00002087,-0.00002637,0.00000074,0.00000223,0
 .00000262,0.00000104,-0.00000033,-0.00000870,-0.00001502,0.00000494,-0
 .00002012,-0.00001024,-0.00002325,-0.00006194,-0.00007619,-0.00027947,
 -0.00018677,-0.00006289,0.00015665,0.00031265,0.00010818,-0.00012143,-
 0.00000539,-0.00017083,-0.00090715,-0.00025589,0.00001863,0.00046240,0
 .00008774,-0.00018879,-0.00028409,-0.00049987,0.00070976,0.00021814,0.
 00011763,-0.00036651,-0.00007936,0.00011178,0.00018533,-0.00010746,0.0
 0009846,0.00000651,-0.00000643,0.00002450,-0.00003338,-0.00002135,0.00
 000144,-0.00001308,-0.00000583,0.00003108,0.00002844,-0.00002963,-0.00
 019421,0.00003425,0.00007913,0.00000454,0.00001842,0.00014429,-0.00043
 534,-0.00059834,0.00009015,0.00007037,-0.00008718,0.00002193,-0.000030
 73,0.00000603,0.00013772,-0.00003609,0.00001708,0.00000501,0.00002617,
 0.00001910,0.00001243,0.00001556,0.00003617,0.00000654,0.00001033,0.00
 001367,0.00032327,-0.00004935,-0.00010846,-0.00017267,-0.00001866,-0.0
 0003598,-0.00042640,-0.00029524,0.00001086,0.00030306,0.00016015,0.000
 18645,-0.00000370,0.00002066,0.00002389,-0.00020878,0.00011099,-0.0000
 3547,0.00012223,-0.00011440,-0.00000006,0.00023949,-0.00006120,-0.0000
 5210,-0.00001901,0.00008460,0.00008759,0.00002578,-0.00000134,0.000004
 50,-0.00000926,-0.00000713,-0.00000656,0.00001039,-0.00001760,0.000009
 40,-0.00001847,0.00002911,0.00002825,-0.00003194,0.00001063,0.00001376
 ,0.00035064,0.00006629,-0.00008785,0.00003082,0.00013741,-0.00015672,-
 0.00150633,-0.00104339,-0.00065979,0.00117004,0.00017990,0.00174610,-0
 .00005057,0.00003902,-0.00001918,0.00013049,-0.00026257,-0.00007226,-0
 .00079571,0.00032992,-0.00009348,0.00061283,-0.00367309,0.00179774,-0.
 01746938,0.00870823,0.02528322,0.00032067,0.00334651,-0.00239584,-0.10
 886001,0.06861696,0.14790403,0.00047797,0.00089286,0.00040559,-0.00033
 141,0.00008208,0.00000736,0.00003556,-0.00001658,0.00001237,0.00001695
 ,0.00001231,0.00003147,0.00000382,-0.00003558,-0.00001098,0.00002119,0
 .00008321,-0.00001231,0.00005119,-0.00001907,0.00012195,0.00019200,-0.
 00037102,0.00005465,0.00009021,-0.00012526,0.00003352,-0.00077147,0.00
 143741,-0.00242436,-0.00076651,-0.00054223,-0.00012919,0.00114513,0.00
 190441,0.00035408,-0.00238287,0.00018848,0.00057942,0.12867610,0.00001
 081,-0.00006905,0.00001021,-0.00003550,0.00009074,-0.00003320,-0.00025
 030,-0.00019837,-0.00000833,0.00017224,0.00006158,-0.00003604,0.000038
 42,0.00000386,0.00004990,-0.00009678,0.00002911,-0.00011185,0.00003873
 ,0.00000569,0.00002789,0.00008191,-0.00004284,0.00008263,-0.00001181,0
 .00001828,-0.00000085,0.00000958,-0.00000932,0.00001278,-0.00004135,0.
 00002132,-0.00002750,-0.00003014,-0.00001826,-0.00000726,-0.00000173,-
 0.00000908,-0.00001165,-0.00004001,-0.00002109,-0.00003667,-0.00002578
 ,0.00005223,0.00002633,0.00002527,0.00005077,-0.00001087,0.00037929,-0
 .00005519,0.00006250,-0.00025240,0.00050285,-0.00025462,0.00007614,0.0
 0025377,0.00077411,-0.00098081,-0.00143938,-0.00062929,-0.00005284,-0.
 00093092,0.00057972,0.00031236,0.00008436,-0.00039104,-0.00005368,0.00
 007513,0.00022670,0.00003474,0.00002548,0.00011007,0.00001352,0.000053
 74,-0.00002556,0.00002399,-0.00000428,-0.00003150,0.00002202,0.0000537
 3,0.00003676,-0.00010210,0.00008403,-0.00013640,0.00017484,-0.00004456
 ,-0.00002669,-0.00062413,-0.00041614,-0.00082443,-0.00007361,-0.000115
 30,0.00016866,0.00000136,-0.00001841,-0.00001343,-0.00005176,0.0000387
 6,-0.00010320,-0.00000370,0.00003614,0.00001706,-0.00001194,0.00001439
 ,0.00002862,-0.00000920,0.00002481,0.00001280,-0.00017072,-0.00005237,
 -0.00013789,-0.00001740,0.00001939,0.00000560,0.00009498,0.00016371,-0
 .00003091,-0.00005300,-0.00011752,-0.00003968,-0.00000067,-0.00001582,
 0.00000517,-0.00002024,0.00007698,-0.00003479,0.00004311,-0.00004827,0
 .00003843,0.00017130,-0.00002304,0.00009003,0.00005715,-0.00000788,0.0
 0002464,-0.00002579,0.00001710,0.00001166,-0.00000071,0.00000103,0.000
 00061,0.00000337,0.00000106,-0.00000149,0.00001234,0.00001216,-0.00001
 116,0.00000157,0.00000183,-0.00000130,-0.00006812,-0.00026647,0.000023
 54,0.00000986,0.00012398,-0.00010521,0.00002427,0.00028124,0.00009823,
 -0.00009050,-0.00080973,0.00008648,0.00005111,0.00008850,0.00000928,0.
 00004960,-0.00001058,0.00008244,-0.00041930,-0.00072443,0.00031666,-0.
 00256524,-0.00036172,0.00025060,0.00746184,-0.00796150,-0.02776766,0.0
 0636868,-0.00008272,0.00298335,0.08119630,-0.09075676,-0.08284572,-0.0
 0003588,-0.00041830,0.00001589,0.00005022,0.00020922,0.00002570,0.0000
 0177,-0.00002471,0.00000211,-0.00001899,-0.00002744,-0.00001444,-0.000
 02641,-0.00003576,-0.00000418,-0.00000011,0.00001256,0.00006607,-0.000
 02141,0.00000077,-0.00003094,0.00008082,-0.00006193,-0.00000880,-0.000
 23491,0.00030377,-0.00009323,0.00195047,0.00131324,0.00140999,-0.00038
 725,-0.00044446,0.00021366,0.00033622,0.00018477,-0.00134541,-0.013551
 73,0.01493959,0.02029353,-0.07892228,0.08631195,0.00016312,0.00011149,
 -0.00000875,0.00000695,-0.00005128,0.00003322,-0.00008581,-0.00005021,
 0.00003659,0.00005665,0.00003639,-0.00007549,-0.00001210,0.00000781,-0
 .00000132,0.00000934,-0.00004523,-0.00003329,0.00000066,0.00003717,0.0
 0001130,0.00000347,0.00003483,0.00001763,-0.00000617,-0.00002049,-0.00
 003084,-0.00000161,0.00000983,-0.00000849,0.00000583,-0.00002150,0.000
 00650,-0.00000142,0.00000625,0.00000177,-0.00000577,-0.00001103,-0.000
 00365,-0.00000658,-0.00001361,-0.00000058,-0.00002849,0.00002175,0.000
 02156,-0.00031796,-0.00018574,-0.00001762,-0.00000782,0.00005753,-0.00
 010756,0.00007024,0.00006750,0.00000832,0.00008478,0.00020851,0.000179
 12,0.00017113,0.00010819,0.00004056,-0.00007401,-0.00028353,-0.0001165
 7,-0.00006125,0.00004673,0.00004165,-0.00000437,-0.00002158,-0.0000247
 7,-0.00000980,-0.00015141,0.00005854,0.00000570,0.00001886,0.00000400,
 0.00002248,0.00004258,-0.00003948,-0.00000346,0.00000258,-0.00000606,-
 0.00006957,-0.00015548,0.00017817,0.00002216,-0.00001825,-0.00001564,-
 0.00024655,-0.00058147,0.00030319,0.00006316,0.00021869,-0.00010409,0.
 00000980,0.00001189,-0.00000894,-0.00001303,-0.00003883,-0.00003299,0.
 00000359,0.00000483,-0.00000169,0.00000398,-0.00001309,-0.00000722,0.0
 0000236,0.00001246,0.00000129,-0.00003674,-0.00006706,-0.00007046,0.00
 004494,0.00001383,0.00005684,-0.00015835,-0.00010116,0.00005633,0.0000
 6845,0.00000449,-0.00007168,-0.00003486,-0.00000328,-0.00001528,0.0002
 2786,0.00007832,0.00010329,-0.00009416,0.00002050,-0.00006763,-0.00029
 017,-0.00012362,-0.00008753,0.00007641,0.00009030,-0.00001256,-0.00001
 190,0.00000483,-0.00001525,0.00000764,-0.00000828,-0.00001107,-0.00001
 002,-0.00000794,0.00000442,0.00000832,-0.00000442,0.00001770,-0.000003
 33,0.00001126,0.00001292,0.00022252,-0.00010985,-0.00011035,0.00009014
 ,0.00014848,0.00013168,-0.00168244,-0.00110717,-0.00067229,0.00210743,
 0.00014557,0.00078629,0.00007276,0.00005781,-0.00007223,-0.00008182,-0
 .00000681,0.00010396,0.00046880,-0.00008108,0.00025155,-0.00132287,0.0
 0150751,-0.00169880,-0.00571835,-0.00074792,0.01010081,-0.00146625,0.0
 0310210,0.00129527,0.17530164,-0.07951718,-0.33176960,0.00063475,0.000
 88142,0.00034077,0.00009142,0.00021232,0.00010881,0.00006390,-0.000054
 55,-0.00002376,-0.00002661,-0.00000033,-0.00002506,0.00001961,-0.00005
 220,0.00000069,0.00002031,0.00004238,-0.00004057,0.00000787,-0.0000272
 4,-0.00003337,-0.00009088,0.00006548,-0.00009158,-0.00002208,-0.000019
 50,-0.00001754,-0.00232606,0.00144717,0.00047582,-0.00036799,0.0001151
 6,0.00001666,0.00010126,0.00014036,0.00039110,0.00629635,-0.01236567,-
 0.01302425,-0.17193720,0.08691279,0.33337759\\0.00000002,0.00002821,0.
 00002096,0.00001769,-0.00000371,-0.00000427,0.00000052,0.00000007,-0.0
 0000262,-0.00000328,0.00000216,-0.00000254,-0.00000291,-0.00000307,-0.
 00000133,0.00001051,-0.00000019,-0.00000099,0.00000078,0.00000077,-0.0
 0000260,-0.00000388,-0.00000249,-0.00000524,-0.00000521,-0.00000270,-0
 .00000852,-0.00000168,0.00000341,0.00000056,-0.00000438,-0.00000138,-0
 .00000085,-0.00000130,0.00000045,-0.00000017,-0.00000121,0.00000338,0.
 00000158,-0.00000620,0.00000055,0.00000041,0.00000633,-0.00000435,-0.0
 0000801,-0.00001259,-0.00000965,0.00000114,0.00000712,-0.00001089,-0.0
 0001332,-0.00000694,0.00000895,-0.00000596,-0.00000267,0.00000267,-0.0
 0000966,-0.00000703,-0.00000419,0.00000102,-0.00000307,-0.00000135,0.0
 0000162,0.00000178,0.00000341,-0.00000277,-0.00000281,-0.00000235,-0.0
 0000198,-0.00000188,-0.00000331,0.00000251,-0.00000367,-0.00000089,0.0
 0000028,0.00000001,-0.00000229,0.00000092,0.00000276,0.00000012,-0.000
 00250,-0.00000436,0.00000545,0.00001805,-0.00000965,-0.00000033,-0.000
 00336,0.00000212,-0.00000308,-0.00000052,-0.00000019,0.00000065,0.0000
 0086,-0.00000245,-0.00000032,0.00000016,-0.00000053,0.00000017,0.00000
 040,-0.00000319,-0.00000017,-0.00000161,-0.00000007,0.00000020,-0.0000
 0076,-0.00000267,-0.00000029,-0.00000006,-0.00000535,0.00000661,0.0000
 2348,-0.00000085,-0.00000147,-0.00000620,0.00000205,0.00000315,-0.0000
 0654,0.00000087,-0.00000310,0.00000456,0.00000077,0.00000190,-0.000003
 10,0.00000542,0.00000159,-0.00001496,-0.00000313,0.00000469,0.00000138
 ,0.00000762,-0.00000640,0.00000900,0.00000628,-0.00000561,-0.00000445,
 0.00000032,-0.00000230,0.00000027,-0.00000065,-0.00000011,-0.00000021,
 0.00000020,0.00000092,-0.00000022,0.00000089,-0.00000004,0.00000162,0.
 00000273,0.00000196,-0.00000014,0.00000143,0.00001061,-0.00000168,-0.0
 0000854,-0.00000527,0.00002291,0.00001100,-0.00001887,0.00000078,0.000
 00126,0.00001330,0.00000217,0.00000934,0.00000246,-0.00000101,0.000011
 77,-0.00000195,-0.00000194,-0.00001117,-0.00000283,-0.00000349,0.00000
 792,-0.00002233,-0.00001852,0.00000463,0.00000637,-0.00000316,-0.00000
 326,0.00000507,-0.00000671,0.00001108,-0.00000556,0.00000755,-0.000003
 70,0.00001922,-0.00000193,-0.00000319,-0.00000841,-0.00000394,0.000001
 17,0.00000145,-0.00000092,-0.00000014,0.00000216,0.00000092,0.00000320
 ,0.00000084,0.00000241,0.00000159,0.00000193,0.00000211,-0.00000133,-0
 .00000022,0.00000252,0.00000283,-0.00000415,0.00000478,-0.00000147,0.0
 0000248,-0.00000152,-0.00000399,0.00001129,0.00001769,0.00000115,-0.00
 000070,-0.00000215,0.00000237,-0.00000018,0.00000671,-0.00000734,-0.00
 000900,-0.00000001,0.00000043,-0.00000310,0.00000114\\\@
 The archive entry for this job was punched.


 READER, WHETHER YOU BE DILETTANTE OR PROFESSOR ... SHOW YOURSELF TO BE
 MORE HUMAN THAN CRITICAL, AND THEN YOUR PLEASURE WILL INCREASE.
                                           -- DOMENICO SCARLATTI (1738)
 Job cpu time:       0 days 10 hours 24 minutes 15.3 seconds.
 Elapsed time:       0 days  1 hours 18 minutes  4.1 seconds.
 File lengths (MBytes):  RWF=   3960 Int=      0 D2E=      0 Chk=     48 Scr=     16
 Normal termination of Gaussian 16 at Tue May 31 22:21:05 2022.
