 Entering Gaussian System, Link 0=/opt/software/Gaussian/g16-AVX2-C.01/g16/g16
 Input=opt_freq-conf-315.com
 Output=opt_freq-conf-315.log
 Initial command:
 /opt/software/Gaussian/g16-AVX2-C.01/g16/l1.exe "/mnt/gs18/scratch/users/kengmith/Gau-122679.inp" -scrdir="/mnt/gs18/scratch/users/kengmith/"
 Entering Link 1 = /opt/software/Gaussian/g16-AVX2-C.01/g16/l1.exe PID=    122689.
  
 Copyright (c) 1988-2019, Gaussian, Inc.  All Rights Reserved.
  
 This is part of the Gaussian(R) 16 program.  It is based on
 the Gaussian(R) 09 system (copyright 2009, Gaussian, Inc.),
 the Gaussian(R) 03 system (copyright 2003, Gaussian, Inc.),
 the Gaussian(R) 98 system (copyright 1998, Gaussian, Inc.),
 the Gaussian(R) 94 system (copyright 1995, Gaussian, Inc.),
 the Gaussian 92(TM) system (copyright 1992, Gaussian, Inc.),
 the Gaussian 90(TM) system (copyright 1990, Gaussian, Inc.),
 the Gaussian 88(TM) system (copyright 1988, Gaussian, Inc.),
 the Gaussian 86(TM) system (copyright 1986, Carnegie Mellon
 University), and the Gaussian 82(TM) system (copyright 1983,
 Carnegie Mellon University). Gaussian is a federally registered
 trademark of Gaussian, Inc.
  
 This software contains proprietary and confidential information,
 including trade secrets, belonging to Gaussian, Inc.
  
 This software is provided under written license and may be
 used, copied, transmitted, or stored only in accord with that
 written license.
  
 The following legend is applicable only to US Government
 contracts under FAR:
  
                    RESTRICTED RIGHTS LEGEND
  
 Use, reproduction and disclosure by the US Government is
 subject to restrictions as set forth in subparagraphs (a)
 and (c) of the Commercial Computer Software - Restricted
 Rights clause in FAR 52.227-19.
  
 Gaussian, Inc.
 340 Quinnipiac St., Bldg. 40, Wallingford CT 06492
  
  
 ---------------------------------------------------------------
 Warning -- This program may not be used in any manner that
 competes with the business of Gaussian, Inc. or will provide
 assistance to any competitor of Gaussian, Inc.  The licensee
 of this program is prohibited from giving any competitor of
 Gaussian, Inc. access to this program.  By using this program,
 the user acknowledges that Gaussian, Inc. is engaged in the
 business of creating and licensing software in the field of
 computational chemistry and represents and warrants to the
 licensee that it is not a competitor of Gaussian, Inc. and that
 it will not use this program in any manner prohibited above.
 ---------------------------------------------------------------
  

 Cite this work as:
 Gaussian 16, Revision C.01,
 M. J. Frisch, G. W. Trucks, H. B. Schlegel, G. E. Scuseria, 
 M. A. Robb, J. R. Cheeseman, G. Scalmani, V. Barone, 
 G. A. Petersson, H. Nakatsuji, X. Li, M. Caricato, A. V. Marenich, 
 J. Bloino, B. G. Janesko, R. Gomperts, B. Mennucci, H. P. Hratchian, 
 J. V. Ortiz, A. F. Izmaylov, J. L. Sonnenberg, D. Williams-Young, 
 F. Ding, F. Lipparini, F. Egidi, J. Goings, B. Peng, A. Petrone, 
 T. Henderson, D. Ranasinghe, V. G. Zakrzewski, J. Gao, N. Rega, 
 G. Zheng, W. Liang, M. Hada, M. Ehara, K. Toyota, R. Fukuda, 
 J. Hasegawa, M. Ishida, T. Nakajima, Y. Honda, O. Kitao, H. Nakai, 
 T. Vreven, K. Throssell, J. A. Montgomery, Jr., J. E. Peralta, 
 F. Ogliaro, M. J. Bearpark, J. J. Heyd, E. N. Brothers, K. N. Kudin, 
 V. N. Staroverov, T. A. Keith, R. Kobayashi, J. Normand, 
 K. Raghavachari, A. P. Rendell, J. C. Burant, S. S. Iyengar, 
 J. Tomasi, M. Cossi, J. M. Millam, M. Klene, C. Adamo, R. Cammi, 
 J. W. Ochterski, R. L. Martin, K. Morokuma, O. Farkas, 
 J. B. Foresman, and D. J. Fox, Gaussian, Inc., Wallingford CT, 2019.
 
 ******************************************
 Gaussian 16:  ES64L-G16RevC.01  3-Jul-2019
                31-May-2022 
 ******************************************
 %mem=12gb
 %nproc=8
 Will use up to    8 processors via shared memory.
 %chk=conf-315.chk
 ----------------------------------------------------------------------
 # B3LYP/6-31G* empiricaldispersion=gd3 opt=calcfc freq=noraman nosymm 
 integral(ultrafinegrid)
 ----------------------------------------------------------------------
 1/10=4,18=20,19=15,26=4,38=1/1,3;
 2/9=110,12=2,15=1,17=6,18=5,40=1/2;
 3/5=1,6=6,7=1,11=2,25=1,30=1,71=2,74=-5,75=-5,124=31,140=1/1,2,3;
 4//1;
 5/5=2,38=5/2;
 8/6=4,10=90,11=11/1;
 11/6=1,8=1,9=11,15=111,16=1,31=1/1,2,10;
 10/6=1,13=1,31=1/2;
 6/7=2,8=2,9=2,10=2,28=1/1;
 7/10=1,25=1,30=1/1,2,3,16;
 1/10=4,18=20,19=15,26=4/3(2);
 2/9=110,15=1/2;
 99//99;
 2/9=110,15=1/2;
 3/5=1,6=6,7=1,11=2,25=1,30=1,71=1,74=-5,75=-5,124=31/1,2,3;
 4/5=5,16=3,69=1/1;
 5/5=2,38=5/2;
 7/30=1/1,2,3,16;
 1/18=20,19=15,26=4/3(-5);
 2/9=110,15=1/2;
 6/7=2,8=2,9=2,10=2,19=2,28=1/1;
 99/9=1/99;
 ------------------------------------------------------------
 Candidate Structure: Conf:315 OPT and FREQ calc in gas phase
 ------------------------------------------------------------
 Symbolic Z-matrix:
 Charge =  1 Multiplicity = 1
 N                    -6.09698   1.2095   -9.17454 
 C                    -5.67544   0.89618  -7.79752 
 C                    -5.29972  -0.5978   -7.70065 
 O                    -4.22424  -0.96776  -8.24756 
 C                    -6.67708   1.36883  -6.7588 
 C                    -6.66157   2.88026  -6.71482 
 N                    -7.87504   3.46213  -6.8907 
 O                    -5.63153   3.49992  -6.51253 
 H                    -7.11825   1.3503   -9.18148 
 H                    -4.73027   1.40729  -7.60541 
 H                    -7.66366   1.01116  -6.94266 
 H                    -6.34317   1.03234  -5.77666 
 H                    -7.8969    4.4661   -6.94841 
 H                    -8.61823   2.91537  -7.29839 
 H                    -5.6698    2.08902  -9.46784 
 H                    -5.86844   0.47996  -9.86342 
 N                    -6.15559  -1.41333  -7.00934 
 C                    -5.7903   -2.75679  -6.60384 
 C                    -6.80386  -3.79697  -7.08351 
 O                    -7.40897  -4.50826  -6.27528 
 C                    -5.63563  -2.87414  -5.08457 
 C                    -4.59616  -1.97465  -4.46236 
 C                    -3.44786  -1.56987  -5.14501 
 C                    -4.7764   -1.52391  -3.15307 
 C                    -2.52565  -0.71239  -4.55225 
 C                    -3.84527  -0.68435  -2.54816 
 C                    -2.71452  -0.26857  -3.24855 
 H                    -7.08045  -1.07615  -6.8079 
 H                    -4.83653  -2.98084  -7.08311 
 H                    -6.60422  -2.67959  -4.61349 
 H                    -5.41737  -3.92256  -4.8603 
 H                    -3.29082  -1.86707  -6.17555 
 H                    -5.65527  -1.83245  -2.59981 
 H                    -1.66634  -0.39773  -5.13301 
 H                    -4.00872  -0.35386  -1.52813 
 H                    -1.99168   0.39256  -2.78409 
 N                    -7.01028  -3.96092  -8.40191 
 C                    -6.36483  -3.30477  -9.51059 
 C                    -7.13535  -2.07347  -9.99967 
 O                    -6.56877  -1.23705  -10.69708 
 C                    -6.14138  -4.26805  -10.68836 
 C                    -7.4246   -4.90416  -11.20182 
 N                    -7.54703  -4.95194  -12.54877 
 O                    -8.26318  -5.37235  -10.44393 
 H                    -7.67699  -4.69003  -8.62502 
 H                    -5.40315  -2.90478  -9.19229 
 H                    -5.50143  -5.08648  -10.35101 
 H                    -5.62203  -3.74182  -11.49091 
 H                    -8.36954  -5.38267  -12.93314 
 H                    -6.84328  -4.57935  -13.15559 
 N                    -8.44204  -2.00991  -9.68034 
 C                    -9.13302  -0.74786  -9.73824 
 C                    -8.92723   0.06754  -8.42338 
 O                    -8.82266  -0.57915  -7.35969 
 C                    -10.6348  -0.85258  -10.07047 
 C                    -11.26414  -2.24156  -9.94593 
 C                    -11.69815  -2.66125  -8.55123 
 N                    -10.58041  -2.59459  -7.5864 
 C                    -10.35039  -3.4071   -6.57205 
 N                    -10.71722  -4.71444  -6.61214 
 N                    -9.69416  -3.01302  -5.46595 
 O                    -8.90805   1.29198  -8.59492 
 H                    -8.78711  -2.67065  -9.0216 
 H                    -8.62851  -0.16528  -10.50793 
 H                    -11.17481  -0.12071  -9.46198 
 H                    -10.74287  -0.52242  -11.10897 
 H                    -12.16553  -2.26023  -10.56772 
 H                    -10.59416  -2.99803  -10.36094 
 H                    -12.50159  -2.01123  -8.19418 
 H                    -12.11359  -3.67273  -8.58259 
 H                    -10.09631  -1.69602  -7.48887 
 H                    -10.88022  -5.15626  -5.71675 
 H                    -11.32273  -5.00435  -7.36798 
 H                    -9.07996  -3.72767  -5.08764 
 H                    -9.31827  -2.07243  -5.48035 
 

 GradGradGradGradGradGradGradGradGradGradGradGradGradGradGradGradGradGrad
 Berny optimization.
 Initialization pass.
                           ----------------------------
                           !    Initial Parameters    !
                           ! (Angstroms and Degrees)  !
 --------------------------                            --------------------------
 ! Name  Definition              Value          Derivative Info.                !
 --------------------------------------------------------------------------------
 ! R1    R(1,2)                  1.4738         calculate D2E/DX2 analytically  !
 ! R2    R(1,9)                  1.031          calculate D2E/DX2 analytically  !
 ! R3    R(1,15)                 1.0208         calculate D2E/DX2 analytically  !
 ! R4    R(1,16)                 1.0291         calculate D2E/DX2 analytically  !
 ! R5    R(2,3)                  1.5436         calculate D2E/DX2 analytically  !
 ! R6    R(2,5)                  1.5184         calculate D2E/DX2 analytically  !
 ! R7    R(2,10)                 1.0916         calculate D2E/DX2 analytically  !
 ! R8    R(3,4)                  1.262          calculate D2E/DX2 analytically  !
 ! R9    R(3,17)                 1.3695         calculate D2E/DX2 analytically  !
 ! R10   R(5,6)                  1.5121         calculate D2E/DX2 analytically  !
 ! R11   R(5,11)                 1.0654         calculate D2E/DX2 analytically  !
 ! R12   R(5,12)                 1.0906         calculate D2E/DX2 analytically  !
 ! R13   R(6,7)                  1.3572         calculate D2E/DX2 analytically  !
 ! R14   R(6,8)                  1.219          calculate D2E/DX2 analytically  !
 ! R15   R(7,13)                 1.0059         calculate D2E/DX2 analytically  !
 ! R16   R(7,14)                 1.0087         calculate D2E/DX2 analytically  !
 ! R17   R(17,18)                1.4501         calculate D2E/DX2 analytically  !
 ! R18   R(17,28)                1.0048         calculate D2E/DX2 analytically  !
 ! R19   R(18,19)                1.5295         calculate D2E/DX2 analytically  !
 ! R20   R(18,21)                1.5316         calculate D2E/DX2 analytically  !
 ! R21   R(18,29)                1.0907         calculate D2E/DX2 analytically  !
 ! R22   R(19,20)                1.235          calculate D2E/DX2 analytically  !
 ! R23   R(19,37)                1.3445         calculate D2E/DX2 analytically  !
 ! R24   R(21,22)                1.5089         calculate D2E/DX2 analytically  !
 ! R25   R(21,30)                1.0945         calculate D2E/DX2 analytically  !
 ! R26   R(21,31)                1.0941         calculate D2E/DX2 analytically  !
 ! R27   R(22,23)                1.3959         calculate D2E/DX2 analytically  !
 ! R28   R(22,24)                1.3964         calculate D2E/DX2 analytically  !
 ! R29   R(23,25)                1.3918         calculate D2E/DX2 analytically  !
 ! R30   R(23,32)                1.084          calculate D2E/DX2 analytically  !
 ! R31   R(24,26)                1.392          calculate D2E/DX2 analytically  !
 ! R32   R(24,33)                1.0834         calculate D2E/DX2 analytically  !
 ! R33   R(25,27)                1.3901         calculate D2E/DX2 analytically  !
 ! R34   R(25,34)                1.0838         calculate D2E/DX2 analytically  !
 ! R35   R(26,27)                1.3936         calculate D2E/DX2 analytically  !
 ! R36   R(26,35)                1.0846         calculate D2E/DX2 analytically  !
 ! R37   R(27,36)                1.0841         calculate D2E/DX2 analytically  !
 ! R38   R(37,38)                1.4409         calculate D2E/DX2 analytically  !
 ! R39   R(37,45)                1.0129         calculate D2E/DX2 analytically  !
 ! R40   R(38,39)                1.5327         calculate D2E/DX2 analytically  !
 ! R41   R(38,41)                1.5378         calculate D2E/DX2 analytically  !
 ! R42   R(38,46)                1.0891         calculate D2E/DX2 analytically  !
 ! R43   R(39,40)                1.2276         calculate D2E/DX2 analytically  !
 ! R44   R(39,51)                1.3466         calculate D2E/DX2 analytically  !
 ! R45   R(41,42)                1.5215         calculate D2E/DX2 analytically  !
 ! R46   R(41,47)                1.0923         calculate D2E/DX2 analytically  !
 ! R47   R(41,48)                1.0912         calculate D2E/DX2 analytically  !
 ! R48   R(42,43)                1.3534         calculate D2E/DX2 analytically  !
 ! R49   R(42,44)                1.2234         calculate D2E/DX2 analytically  !
 ! R50   R(43,49)                1.0049         calculate D2E/DX2 analytically  !
 ! R51   R(43,50)                1.0012         calculate D2E/DX2 analytically  !
 ! R52   R(51,52)                1.44           calculate D2E/DX2 analytically  !
 ! R53   R(51,63)                0.9948         calculate D2E/DX2 analytically  !
 ! R54   R(52,53)                1.5608         calculate D2E/DX2 analytically  !
 ! R55   R(52,55)                1.5417         calculate D2E/DX2 analytically  !
 ! R56   R(52,64)                1.0892         calculate D2E/DX2 analytically  !
 ! R57   R(53,54)                1.2492         calculate D2E/DX2 analytically  !
 ! R58   R(53,62)                1.2365         calculate D2E/DX2 analytically  !
 ! R59   R(55,56)                1.53           calculate D2E/DX2 analytically  !
 ! R60   R(55,65)                1.0943         calculate D2E/DX2 analytically  !
 ! R61   R(55,66)                1.0951         calculate D2E/DX2 analytically  !
 ! R62   R(56,57)                1.5198         calculate D2E/DX2 analytically  !
 ! R63   R(56,67)                1.0952         calculate D2E/DX2 analytically  !
 ! R64   R(56,68)                1.0924         calculate D2E/DX2 analytically  !
 ! R65   R(57,58)                1.4781         calculate D2E/DX2 analytically  !
 ! R66   R(57,69)                1.0934         calculate D2E/DX2 analytically  !
 ! R67   R(57,70)                1.0939         calculate D2E/DX2 analytically  !
 ! R68   R(58,59)                1.3198         calculate D2E/DX2 analytically  !
 ! R69   R(58,71)                1.0253         calculate D2E/DX2 analytically  !
 ! R70   R(59,60)                1.3584         calculate D2E/DX2 analytically  !
 ! R71   R(59,61)                1.3451         calculate D2E/DX2 analytically  !
 ! R72   R(60,72)                1.0117         calculate D2E/DX2 analytically  !
 ! R73   R(60,73)                1.0109         calculate D2E/DX2 analytically  !
 ! R74   R(61,74)                1.0154         calculate D2E/DX2 analytically  !
 ! R75   R(61,75)                1.013          calculate D2E/DX2 analytically  !
 ! A1    A(2,1,9)              108.582          calculate D2E/DX2 analytically  !
 ! A2    A(2,1,15)             109.3858         calculate D2E/DX2 analytically  !
 ! A3    A(2,1,16)             114.2815         calculate D2E/DX2 analytically  !
 ! A4    A(9,1,15)             107.1541         calculate D2E/DX2 analytically  !
 ! A5    A(9,1,16)             108.1986         calculate D2E/DX2 analytically  !
 ! A6    A(15,1,16)            108.9974         calculate D2E/DX2 analytically  !
 ! A7    A(1,2,3)              109.5133         calculate D2E/DX2 analytically  !
 ! A8    A(1,2,5)              112.6007         calculate D2E/DX2 analytically  !
 ! A9    A(1,2,10)             108.2136         calculate D2E/DX2 analytically  !
 ! A10   A(3,2,5)              114.7665         calculate D2E/DX2 analytically  !
 ! A11   A(3,2,10)             103.3786         calculate D2E/DX2 analytically  !
 ! A12   A(5,2,10)             107.7614         calculate D2E/DX2 analytically  !
 ! A13   A(2,3,4)              117.6445         calculate D2E/DX2 analytically  !
 ! A14   A(2,3,17)             117.1246         calculate D2E/DX2 analytically  !
 ! A15   A(4,3,17)             125.2244         calculate D2E/DX2 analytically  !
 ! A16   A(2,5,6)              108.9204         calculate D2E/DX2 analytically  !
 ! A17   A(2,5,11)             112.8486         calculate D2E/DX2 analytically  !
 ! A18   A(2,5,12)             108.5448         calculate D2E/DX2 analytically  !
 ! A19   A(6,5,11)             110.492          calculate D2E/DX2 analytically  !
 ! A20   A(6,5,12)             106.2049         calculate D2E/DX2 analytically  !
 ! A21   A(11,5,12)            109.5948         calculate D2E/DX2 analytically  !
 ! A22   A(5,6,7)              114.5559         calculate D2E/DX2 analytically  !
 ! A23   A(5,6,8)              121.4394         calculate D2E/DX2 analytically  !
 ! A24   A(7,6,8)              123.9925         calculate D2E/DX2 analytically  !
 ! A25   A(6,7,13)             117.0511         calculate D2E/DX2 analytically  !
 ! A26   A(6,7,14)             118.603          calculate D2E/DX2 analytically  !
 ! A27   A(13,7,14)            120.1203         calculate D2E/DX2 analytically  !
 ! A28   A(3,17,18)            122.3734         calculate D2E/DX2 analytically  !
 ! A29   A(3,17,28)            118.464          calculate D2E/DX2 analytically  !
 ! A30   A(18,17,28)           119.1235         calculate D2E/DX2 analytically  !
 ! A31   A(17,18,19)           112.0514         calculate D2E/DX2 analytically  !
 ! A32   A(17,18,21)           111.9508         calculate D2E/DX2 analytically  !
 ! A33   A(17,18,29)           106.7217         calculate D2E/DX2 analytically  !
 ! A34   A(19,18,21)           109.02           calculate D2E/DX2 analytically  !
 ! A35   A(19,18,29)           107.5761         calculate D2E/DX2 analytically  !
 ! A36   A(21,18,29)           109.3805         calculate D2E/DX2 analytically  !
 ! A37   A(18,19,20)           120.7379         calculate D2E/DX2 analytically  !
 ! A38   A(18,19,37)           119.4852         calculate D2E/DX2 analytically  !
 ! A39   A(20,19,37)           119.7534         calculate D2E/DX2 analytically  !
 ! A40   A(18,21,22)           115.6536         calculate D2E/DX2 analytically  !
 ! A41   A(18,21,30)           108.9019         calculate D2E/DX2 analytically  !
 ! A42   A(18,21,31)           107.2703         calculate D2E/DX2 analytically  !
 ! A43   A(22,21,30)           109.0387         calculate D2E/DX2 analytically  !
 ! A44   A(22,21,31)           110.4431         calculate D2E/DX2 analytically  !
 ! A45   A(30,21,31)           104.9894         calculate D2E/DX2 analytically  !
 ! A46   A(21,22,23)           122.542          calculate D2E/DX2 analytically  !
 ! A47   A(21,22,24)           119.3506         calculate D2E/DX2 analytically  !
 ! A48   A(23,22,24)           118.1073         calculate D2E/DX2 analytically  !
 ! A49   A(22,23,25)           121.028          calculate D2E/DX2 analytically  !
 ! A50   A(22,23,32)           120.3063         calculate D2E/DX2 analytically  !
 ! A51   A(25,23,32)           118.543          calculate D2E/DX2 analytically  !
 ! A52   A(22,24,26)           121.0502         calculate D2E/DX2 analytically  !
 ! A53   A(22,24,33)           119.4458         calculate D2E/DX2 analytically  !
 ! A54   A(26,24,33)           119.504          calculate D2E/DX2 analytically  !
 ! A55   A(23,25,27)           120.4052         calculate D2E/DX2 analytically  !
 ! A56   A(23,25,34)           118.4243         calculate D2E/DX2 analytically  !
 ! A57   A(27,25,34)           121.1693         calculate D2E/DX2 analytically  !
 ! A58   A(24,26,27)           120.2843         calculate D2E/DX2 analytically  !
 ! A59   A(24,26,35)           119.4484         calculate D2E/DX2 analytically  !
 ! A60   A(27,26,35)           120.267          calculate D2E/DX2 analytically  !
 ! A61   A(25,27,26)           119.101          calculate D2E/DX2 analytically  !
 ! A62   A(25,27,36)           120.3927         calculate D2E/DX2 analytically  !
 ! A63   A(26,27,36)           120.5062         calculate D2E/DX2 analytically  !
 ! A64   A(19,37,38)           129.0635         calculate D2E/DX2 analytically  !
 ! A65   A(19,37,45)           113.8811         calculate D2E/DX2 analytically  !
 ! A66   A(38,37,45)           116.9469         calculate D2E/DX2 analytically  !
 ! A67   A(37,38,39)           112.7154         calculate D2E/DX2 analytically  !
 ! A68   A(37,38,41)           111.6612         calculate D2E/DX2 analytically  !
 ! A69   A(37,38,46)           109.7488         calculate D2E/DX2 analytically  !
 ! A70   A(39,38,41)           109.3833         calculate D2E/DX2 analytically  !
 ! A71   A(39,38,46)           104.0121         calculate D2E/DX2 analytically  !
 ! A72   A(41,38,46)           109.0009         calculate D2E/DX2 analytically  !
 ! A73   A(38,39,40)           119.778          calculate D2E/DX2 analytically  !
 ! A74   A(38,39,51)           116.7482         calculate D2E/DX2 analytically  !
 ! A75   A(40,39,51)           123.3945         calculate D2E/DX2 analytically  !
 ! A76   A(38,41,42)           113.4399         calculate D2E/DX2 analytically  !
 ! A77   A(38,41,47)           108.5376         calculate D2E/DX2 analytically  !
 ! A78   A(38,41,48)           109.2897         calculate D2E/DX2 analytically  !
 ! A79   A(42,41,47)           106.5641         calculate D2E/DX2 analytically  !
 ! A80   A(42,41,48)           110.783          calculate D2E/DX2 analytically  !
 ! A81   A(47,41,48)           108.0368         calculate D2E/DX2 analytically  !
 ! A82   A(41,42,43)           115.2734         calculate D2E/DX2 analytically  !
 ! A83   A(41,42,44)           121.94           calculate D2E/DX2 analytically  !
 ! A84   A(43,42,44)           122.7529         calculate D2E/DX2 analytically  !
 ! A85   A(42,43,49)           118.0264         calculate D2E/DX2 analytically  !
 ! A86   A(42,43,50)           121.7705         calculate D2E/DX2 analytically  !
 ! A87   A(49,43,50)           120.2016         calculate D2E/DX2 analytically  !
 ! A88   A(39,51,52)           119.8309         calculate D2E/DX2 analytically  !
 ! A89   A(39,51,63)           117.5332         calculate D2E/DX2 analytically  !
 ! A90   A(52,51,63)           116.2518         calculate D2E/DX2 analytically  !
 ! A91   A(51,52,53)           111.1449         calculate D2E/DX2 analytically  !
 ! A92   A(51,52,55)           114.6185         calculate D2E/DX2 analytically  !
 ! A93   A(51,52,64)           105.9584         calculate D2E/DX2 analytically  !
 ! A94   A(53,52,55)           110.2102         calculate D2E/DX2 analytically  !
 ! A95   A(53,52,64)           104.7618         calculate D2E/DX2 analytically  !
 ! A96   A(55,52,64)           109.5883         calculate D2E/DX2 analytically  !
 ! A97   A(52,53,54)           117.2518         calculate D2E/DX2 analytically  !
 ! A98   A(52,53,62)           113.7341         calculate D2E/DX2 analytically  !
 ! A99   A(54,53,62)           129.0074         calculate D2E/DX2 analytically  !
 ! A100  A(52,55,56)           116.4121         calculate D2E/DX2 analytically  !
 ! A101  A(52,55,65)           108.3881         calculate D2E/DX2 analytically  !
 ! A102  A(52,55,66)           106.2618         calculate D2E/DX2 analytically  !
 ! A103  A(56,55,65)           111.0336         calculate D2E/DX2 analytically  !
 ! A104  A(56,55,66)           108.0779         calculate D2E/DX2 analytically  !
 ! A105  A(65,55,66)           106.0807         calculate D2E/DX2 analytically  !
 ! A106  A(55,56,57)           116.2872         calculate D2E/DX2 analytically  !
 ! A107  A(55,56,67)           107.9275         calculate D2E/DX2 analytically  !
 ! A108  A(55,56,68)           110.21           calculate D2E/DX2 analytically  !
 ! A109  A(57,56,67)           106.3361         calculate D2E/DX2 analytically  !
 ! A110  A(57,56,68)           109.4238         calculate D2E/DX2 analytically  !
 ! A111  A(67,56,68)           106.0979         calculate D2E/DX2 analytically  !
 ! A112  A(56,57,58)           111.7547         calculate D2E/DX2 analytically  !
 ! A113  A(56,57,69)           110.2029         calculate D2E/DX2 analytically  !
 ! A114  A(56,57,70)           109.7235         calculate D2E/DX2 analytically  !
 ! A115  A(58,57,69)           108.4034         calculate D2E/DX2 analytically  !
 ! A116  A(58,57,70)           110.3412         calculate D2E/DX2 analytically  !
 ! A117  A(69,57,70)           106.2598         calculate D2E/DX2 analytically  !
 ! A118  A(57,58,59)           127.2791         calculate D2E/DX2 analytically  !
 ! A119  A(57,58,71)           117.3009         calculate D2E/DX2 analytically  !
 ! A120  A(59,58,71)           112.589          calculate D2E/DX2 analytically  !
 ! A121  A(58,59,60)           121.5148         calculate D2E/DX2 analytically  !
 ! A122  A(58,59,61)           122.455          calculate D2E/DX2 analytically  !
 ! A123  A(60,59,61)           115.9734         calculate D2E/DX2 analytically  !
 ! A124  A(59,60,72)           115.956          calculate D2E/DX2 analytically  !
 ! A125  A(59,60,73)           117.3742         calculate D2E/DX2 analytically  !
 ! A126  A(72,60,73)           116.1032         calculate D2E/DX2 analytically  !
 ! A127  A(59,61,74)           113.2828         calculate D2E/DX2 analytically  !
 ! A128  A(59,61,75)           116.1903         calculate D2E/DX2 analytically  !
 ! A129  A(74,61,75)           115.7418         calculate D2E/DX2 analytically  !
 ! D1    D(9,1,2,3)            107.4084         calculate D2E/DX2 analytically  !
 ! D2    D(9,1,2,5)            -21.5634         calculate D2E/DX2 analytically  !
 ! D3    D(9,1,2,10)          -140.5648         calculate D2E/DX2 analytically  !
 ! D4    D(15,1,2,3)          -135.9657         calculate D2E/DX2 analytically  !
 ! D5    D(15,1,2,5)            95.0625         calculate D2E/DX2 analytically  !
 ! D6    D(15,1,2,10)          -23.9389         calculate D2E/DX2 analytically  !
 ! D7    D(16,1,2,3)           -13.4641         calculate D2E/DX2 analytically  !
 ! D8    D(16,1,2,5)          -142.4359         calculate D2E/DX2 analytically  !
 ! D9    D(16,1,2,10)           98.5627         calculate D2E/DX2 analytically  !
 ! D10   D(1,2,3,4)             72.3023         calculate D2E/DX2 analytically  !
 ! D11   D(1,2,3,17)          -108.5731         calculate D2E/DX2 analytically  !
 ! D12   D(5,2,3,4)           -159.9258         calculate D2E/DX2 analytically  !
 ! D13   D(5,2,3,17)            19.1988         calculate D2E/DX2 analytically  !
 ! D14   D(10,2,3,4)           -42.8574         calculate D2E/DX2 analytically  !
 ! D15   D(10,2,3,17)          136.2673         calculate D2E/DX2 analytically  !
 ! D16   D(1,2,5,6)            -69.4191         calculate D2E/DX2 analytically  !
 ! D17   D(1,2,5,11)            53.6748         calculate D2E/DX2 analytically  !
 ! D18   D(1,2,5,12)           175.3568         calculate D2E/DX2 analytically  !
 ! D19   D(3,2,5,6)            164.3877         calculate D2E/DX2 analytically  !
 ! D20   D(3,2,5,11)           -72.5184         calculate D2E/DX2 analytically  !
 ! D21   D(3,2,5,12)            49.1636         calculate D2E/DX2 analytically  !
 ! D22   D(10,2,5,6)            49.8457         calculate D2E/DX2 analytically  !
 ! D23   D(10,2,5,11)          172.9396         calculate D2E/DX2 analytically  !
 ! D24   D(10,2,5,12)          -65.3784         calculate D2E/DX2 analytically  !
 ! D25   D(2,3,17,18)         -166.6802         calculate D2E/DX2 analytically  !
 ! D26   D(2,3,17,28)           15.6134         calculate D2E/DX2 analytically  !
 ! D27   D(4,3,17,18)           12.3705         calculate D2E/DX2 analytically  !
 ! D28   D(4,3,17,28)         -165.3358         calculate D2E/DX2 analytically  !
 ! D29   D(2,5,6,7)            125.5163         calculate D2E/DX2 analytically  !
 ! D30   D(2,5,6,8)            -55.7026         calculate D2E/DX2 analytically  !
 ! D31   D(11,5,6,7)             1.0231         calculate D2E/DX2 analytically  !
 ! D32   D(11,5,6,8)           179.8042         calculate D2E/DX2 analytically  !
 ! D33   D(12,5,6,7)          -117.7567         calculate D2E/DX2 analytically  !
 ! D34   D(12,5,6,8)            61.0244         calculate D2E/DX2 analytically  !
 ! D35   D(5,6,7,13)          -174.825          calculate D2E/DX2 analytically  !
 ! D36   D(5,6,7,14)           -17.865          calculate D2E/DX2 analytically  !
 ! D37   D(8,6,7,13)             6.4294         calculate D2E/DX2 analytically  !
 ! D38   D(8,6,7,14)           163.3894         calculate D2E/DX2 analytically  !
 ! D39   D(3,17,18,19)        -125.971          calculate D2E/DX2 analytically  !
 ! D40   D(3,17,18,21)         111.1848         calculate D2E/DX2 analytically  !
 ! D41   D(3,17,18,29)          -8.4621         calculate D2E/DX2 analytically  !
 ! D42   D(28,17,18,19)         51.7208         calculate D2E/DX2 analytically  !
 ! D43   D(28,17,18,21)        -71.1234         calculate D2E/DX2 analytically  !
 ! D44   D(28,17,18,29)        169.2297         calculate D2E/DX2 analytically  !
 ! D45   D(17,18,19,20)       -120.2446         calculate D2E/DX2 analytically  !
 ! D46   D(17,18,19,37)         61.5213         calculate D2E/DX2 analytically  !
 ! D47   D(21,18,19,20)          4.2437         calculate D2E/DX2 analytically  !
 ! D48   D(21,18,19,37)       -173.9903         calculate D2E/DX2 analytically  !
 ! D49   D(29,18,19,20)        122.7584         calculate D2E/DX2 analytically  !
 ! D50   D(29,18,19,37)        -55.4757         calculate D2E/DX2 analytically  !
 ! D51   D(17,18,21,22)        -59.4259         calculate D2E/DX2 analytically  !
 ! D52   D(17,18,21,30)         63.7325         calculate D2E/DX2 analytically  !
 ! D53   D(17,18,21,31)        176.8579         calculate D2E/DX2 analytically  !
 ! D54   D(19,18,21,22)        176.0266         calculate D2E/DX2 analytically  !
 ! D55   D(19,18,21,30)        -60.8149         calculate D2E/DX2 analytically  !
 ! D56   D(19,18,21,31)         52.3105         calculate D2E/DX2 analytically  !
 ! D57   D(29,18,21,22)         58.6486         calculate D2E/DX2 analytically  !
 ! D58   D(29,18,21,30)       -178.1929         calculate D2E/DX2 analytically  !
 ! D59   D(29,18,21,31)        -65.0676         calculate D2E/DX2 analytically  !
 ! D60   D(18,19,37,38)          2.1866         calculate D2E/DX2 analytically  !
 ! D61   D(18,19,37,45)        178.2349         calculate D2E/DX2 analytically  !
 ! D62   D(20,19,37,38)       -176.065          calculate D2E/DX2 analytically  !
 ! D63   D(20,19,37,45)         -0.0168         calculate D2E/DX2 analytically  !
 ! D64   D(18,21,22,23)        -30.1446         calculate D2E/DX2 analytically  !
 ! D65   D(18,21,22,24)        149.9483         calculate D2E/DX2 analytically  !
 ! D66   D(30,21,22,23)       -153.2309         calculate D2E/DX2 analytically  !
 ! D67   D(30,21,22,24)         26.862          calculate D2E/DX2 analytically  !
 ! D68   D(31,21,22,23)         91.8949         calculate D2E/DX2 analytically  !
 ! D69   D(31,21,22,24)        -88.0122         calculate D2E/DX2 analytically  !
 ! D70   D(21,22,23,25)        178.3833         calculate D2E/DX2 analytically  !
 ! D71   D(21,22,23,32)          2.4706         calculate D2E/DX2 analytically  !
 ! D72   D(24,22,23,25)         -1.7086         calculate D2E/DX2 analytically  !
 ! D73   D(24,22,23,32)       -177.6213         calculate D2E/DX2 analytically  !
 ! D74   D(21,22,24,26)       -179.4812         calculate D2E/DX2 analytically  !
 ! D75   D(21,22,24,33)          0.4917         calculate D2E/DX2 analytically  !
 ! D76   D(23,22,24,26)          0.6076         calculate D2E/DX2 analytically  !
 ! D77   D(23,22,24,33)       -179.4195         calculate D2E/DX2 analytically  !
 ! D78   D(22,23,25,27)          1.7132         calculate D2E/DX2 analytically  !
 ! D79   D(22,23,25,34)       -177.9003         calculate D2E/DX2 analytically  !
 ! D80   D(32,23,25,27)        177.6964         calculate D2E/DX2 analytically  !
 ! D81   D(32,23,25,34)         -1.9171         calculate D2E/DX2 analytically  !
 ! D82   D(22,24,26,27)          0.5006         calculate D2E/DX2 analytically  !
 ! D83   D(22,24,26,35)       -179.6935         calculate D2E/DX2 analytically  !
 ! D84   D(33,24,26,27)       -179.4723         calculate D2E/DX2 analytically  !
 ! D85   D(33,24,26,35)          0.3336         calculate D2E/DX2 analytically  !
 ! D86   D(23,25,27,26)         -0.5661         calculate D2E/DX2 analytically  !
 ! D87   D(23,25,27,36)        179.4735         calculate D2E/DX2 analytically  !
 ! D88   D(34,25,27,26)        179.0367         calculate D2E/DX2 analytically  !
 ! D89   D(34,25,27,36)         -0.9238         calculate D2E/DX2 analytically  !
 ! D90   D(24,26,27,25)         -0.525          calculate D2E/DX2 analytically  !
 ! D91   D(24,26,27,36)        179.4354         calculate D2E/DX2 analytically  !
 ! D92   D(35,26,27,25)        179.6706         calculate D2E/DX2 analytically  !
 ! D93   D(35,26,27,36)         -0.369          calculate D2E/DX2 analytically  !
 ! D94   D(19,37,38,39)        -93.906          calculate D2E/DX2 analytically  !
 ! D95   D(19,37,38,41)        142.4938         calculate D2E/DX2 analytically  !
 ! D96   D(19,37,38,46)         21.5096         calculate D2E/DX2 analytically  !
 ! D97   D(45,37,38,39)         90.1477         calculate D2E/DX2 analytically  !
 ! D98   D(45,37,38,41)        -33.4525         calculate D2E/DX2 analytically  !
 ! D99   D(45,37,38,46)       -154.4367         calculate D2E/DX2 analytically  !
 ! D100  D(37,38,39,40)        162.2057         calculate D2E/DX2 analytically  !
 ! D101  D(37,38,39,51)        -20.9238         calculate D2E/DX2 analytically  !
 ! D102  D(41,38,39,40)        -72.9406         calculate D2E/DX2 analytically  !
 ! D103  D(41,38,39,51)        103.9299         calculate D2E/DX2 analytically  !
 ! D104  D(46,38,39,40)         43.3887         calculate D2E/DX2 analytically  !
 ! D105  D(46,38,39,51)       -139.7407         calculate D2E/DX2 analytically  !
 ! D106  D(37,38,41,42)         57.7231         calculate D2E/DX2 analytically  !
 ! D107  D(37,38,41,47)        -60.5139         calculate D2E/DX2 analytically  !
 ! D108  D(37,38,41,48)       -178.1179         calculate D2E/DX2 analytically  !
 ! D109  D(39,38,41,42)        -67.741          calculate D2E/DX2 analytically  !
 ! D110  D(39,38,41,47)        174.022          calculate D2E/DX2 analytically  !
 ! D111  D(39,38,41,48)         56.418          calculate D2E/DX2 analytically  !
 ! D112  D(46,38,41,42)        179.1416         calculate D2E/DX2 analytically  !
 ! D113  D(46,38,41,47)         60.9046         calculate D2E/DX2 analytically  !
 ! D114  D(46,38,41,48)        -56.6994         calculate D2E/DX2 analytically  !
 ! D115  D(38,39,51,52)        161.4207         calculate D2E/DX2 analytically  !
 ! D116  D(38,39,51,63)         10.5026         calculate D2E/DX2 analytically  !
 ! D117  D(40,39,51,52)        -21.8328         calculate D2E/DX2 analytically  !
 ! D118  D(40,39,51,63)       -172.7509         calculate D2E/DX2 analytically  !
 ! D119  D(38,41,42,43)        136.456          calculate D2E/DX2 analytically  !
 ! D120  D(38,41,42,44)        -45.5991         calculate D2E/DX2 analytically  !
 ! D121  D(47,41,42,43)       -104.1718         calculate D2E/DX2 analytically  !
 ! D122  D(47,41,42,44)         73.773          calculate D2E/DX2 analytically  !
 ! D123  D(48,41,42,43)         13.112          calculate D2E/DX2 analytically  !
 ! D124  D(48,41,42,44)       -168.9431         calculate D2E/DX2 analytically  !
 ! D125  D(41,42,43,49)        178.6389         calculate D2E/DX2 analytically  !
 ! D126  D(41,42,43,50)         -0.8968         calculate D2E/DX2 analytically  !
 ! D127  D(44,42,43,49)          0.7126         calculate D2E/DX2 analytically  !
 ! D128  D(44,42,43,50)       -178.8231         calculate D2E/DX2 analytically  !
 ! D129  D(39,51,52,53)        -84.1154         calculate D2E/DX2 analytically  !
 ! D130  D(39,51,52,55)        150.1051         calculate D2E/DX2 analytically  !
 ! D131  D(39,51,52,64)         29.1346         calculate D2E/DX2 analytically  !
 ! D132  D(63,51,52,53)         67.1615         calculate D2E/DX2 analytically  !
 ! D133  D(63,51,52,55)        -58.618          calculate D2E/DX2 analytically  !
 ! D134  D(63,51,52,64)       -179.5884         calculate D2E/DX2 analytically  !
 ! D135  D(51,52,53,54)        -33.265          calculate D2E/DX2 analytically  !
 ! D136  D(51,52,53,62)        147.5897         calculate D2E/DX2 analytically  !
 ! D137  D(55,52,53,54)         94.9294         calculate D2E/DX2 analytically  !
 ! D138  D(55,52,53,62)        -84.2159         calculate D2E/DX2 analytically  !
 ! D139  D(64,52,53,54)       -147.2665         calculate D2E/DX2 analytically  !
 ! D140  D(64,52,53,62)         33.5882         calculate D2E/DX2 analytically  !
 ! D141  D(51,52,55,56)         14.8938         calculate D2E/DX2 analytically  !
 ! D142  D(51,52,55,65)        140.8675         calculate D2E/DX2 analytically  !
 ! D143  D(51,52,55,66)       -105.4902         calculate D2E/DX2 analytically  !
 ! D144  D(53,52,55,56)       -111.3709         calculate D2E/DX2 analytically  !
 ! D145  D(53,52,55,65)         14.6028         calculate D2E/DX2 analytically  !
 ! D146  D(53,52,55,66)        128.2452         calculate D2E/DX2 analytically  !
 ! D147  D(64,52,55,56)        133.8452         calculate D2E/DX2 analytically  !
 ! D148  D(64,52,55,65)       -100.1811         calculate D2E/DX2 analytically  !
 ! D149  D(64,52,55,66)         13.4613         calculate D2E/DX2 analytically  !
 ! D150  D(52,55,56,57)         83.003          calculate D2E/DX2 analytically  !
 ! D151  D(52,55,56,67)       -157.6876         calculate D2E/DX2 analytically  !
 ! D152  D(52,55,56,68)        -42.2425         calculate D2E/DX2 analytically  !
 ! D153  D(65,55,56,57)        -41.6322         calculate D2E/DX2 analytically  !
 ! D154  D(65,55,56,67)         77.6773         calculate D2E/DX2 analytically  !
 ! D155  D(65,55,56,68)       -166.8776         calculate D2E/DX2 analytically  !
 ! D156  D(66,55,56,57)       -157.5892         calculate D2E/DX2 analytically  !
 ! D157  D(66,55,56,67)        -38.2797         calculate D2E/DX2 analytically  !
 ! D158  D(66,55,56,68)         77.1654         calculate D2E/DX2 analytically  !
 ! D159  D(55,56,57,58)        -56.2188         calculate D2E/DX2 analytically  !
 ! D160  D(55,56,57,69)         64.3815         calculate D2E/DX2 analytically  !
 ! D161  D(55,56,57,70)       -178.9472         calculate D2E/DX2 analytically  !
 ! D162  D(67,56,57,58)       -176.387          calculate D2E/DX2 analytically  !
 ! D163  D(67,56,57,69)        -55.7867         calculate D2E/DX2 analytically  !
 ! D164  D(67,56,57,70)         60.8846         calculate D2E/DX2 analytically  !
 ! D165  D(68,56,57,58)         69.4247         calculate D2E/DX2 analytically  !
 ! D166  D(68,56,57,69)       -169.9751         calculate D2E/DX2 analytically  !
 ! D167  D(68,56,57,70)        -53.3038         calculate D2E/DX2 analytically  !
 ! D168  D(56,57,58,59)       -144.418          calculate D2E/DX2 analytically  !
 ! D169  D(56,57,58,71)         56.1645         calculate D2E/DX2 analytically  !
 ! D170  D(69,57,58,59)         93.9378         calculate D2E/DX2 analytically  !
 ! D171  D(69,57,58,71)        -65.4797         calculate D2E/DX2 analytically  !
 ! D172  D(70,57,58,59)        -22.0423         calculate D2E/DX2 analytically  !
 ! D173  D(70,57,58,71)        178.5402         calculate D2E/DX2 analytically  !
 ! D174  D(57,58,59,60)         30.6627         calculate D2E/DX2 analytically  !
 ! D175  D(57,58,59,61)       -152.1886         calculate D2E/DX2 analytically  !
 ! D176  D(71,58,59,60)       -169.1138         calculate D2E/DX2 analytically  !
 ! D177  D(71,58,59,61)          8.0348         calculate D2E/DX2 analytically  !
 ! D178  D(58,59,60,72)       -154.5586         calculate D2E/DX2 analytically  !
 ! D179  D(58,59,60,73)        -11.1314         calculate D2E/DX2 analytically  !
 ! D180  D(61,59,60,72)         28.1176         calculate D2E/DX2 analytically  !
 ! D181  D(61,59,60,73)        171.5447         calculate D2E/DX2 analytically  !
 ! D182  D(58,59,61,74)       -142.2536         calculate D2E/DX2 analytically  !
 ! D183  D(58,59,61,75)         -4.6441         calculate D2E/DX2 analytically  !
 ! D184  D(60,59,61,74)         35.0426         calculate D2E/DX2 analytically  !
 ! D185  D(60,59,61,75)        172.6521         calculate D2E/DX2 analytically  !
 --------------------------------------------------------------------------------
 Trust Radius=3.00D-01 FncErr=1.00D-07 GrdErr=1.00D-06 EigMax=2.50D+02 EigMin=1.00D-04
 Number of steps in this run=    399 maximum allowed number of steps=    450.
 GradGradGradGradGradGradGradGradGradGradGradGradGradGradGradGradGradGrad

 Symmetry turned off by external request.
 Stoichiometry    C23H36N9O7(1+)
 Framework group  C1[X(C23H36N9O7)]
 Deg. of freedom   219
 Full point group                 C1      NOp   1
                          Input orientation:                          
 ---------------------------------------------------------------------
 Center     Atomic      Atomic             Coordinates (Angstroms)
 Number     Number       Type             X           Y           Z
 ---------------------------------------------------------------------
      1          7           0       -6.096984    1.209503   -9.174538
      2          6           0       -5.675442    0.896184   -7.797515
      3          6           0       -5.299717   -0.597802   -7.700649
      4          8           0       -4.224238   -0.967762   -8.247564
      5          6           0       -6.677083    1.368832   -6.758798
      6          6           0       -6.661572    2.880262   -6.714821
      7          7           0       -7.875036    3.462127   -6.890699
      8          8           0       -5.631530    3.499918   -6.512527
      9          1           0       -7.118254    1.350300   -9.181476
     10          1           0       -4.730265    1.407293   -7.605411
     11          1           0       -7.663655    1.011161   -6.942662
     12          1           0       -6.343172    1.032337   -5.776656
     13          1           0       -7.896899    4.466096   -6.948409
     14          1           0       -8.618229    2.915367   -7.298386
     15          1           0       -5.669802    2.089016   -9.467836
     16          1           0       -5.868439    0.479960   -9.863416
     17          7           0       -6.155590   -1.413328   -7.009342
     18          6           0       -5.790299   -2.756786   -6.603836
     19          6           0       -6.803861   -3.796973   -7.083515
     20          8           0       -7.408970   -4.508260   -6.275278
     21          6           0       -5.635632   -2.874138   -5.084568
     22          6           0       -4.596164   -1.974650   -4.462360
     23          6           0       -3.447861   -1.569875   -5.145012
     24          6           0       -4.776399   -1.523907   -3.153065
     25          6           0       -2.525652   -0.712391   -4.552254
     26          6           0       -3.845271   -0.684352   -2.548157
     27          6           0       -2.714518   -0.268573   -3.248550
     28          1           0       -7.080447   -1.076150   -6.807895
     29          1           0       -4.836527   -2.980838   -7.083115
     30          1           0       -6.604219   -2.679594   -4.613492
     31          1           0       -5.417368   -3.922558   -4.860304
     32          1           0       -3.290818   -1.867065   -6.175554
     33          1           0       -5.655272   -1.832448   -2.599815
     34          1           0       -1.666345   -0.397730   -5.133006
     35          1           0       -4.008723   -0.353863   -1.528126
     36          1           0       -1.991682    0.392558   -2.784087
     37          7           0       -7.010285   -3.960917   -8.401913
     38          6           0       -6.364827   -3.304772   -9.510594
     39          6           0       -7.135349   -2.073466   -9.999671
     40          8           0       -6.568775   -1.237050  -10.697075
     41          6           0       -6.141377   -4.268050  -10.688358
     42          6           0       -7.424595   -4.904157  -11.201816
     43          7           0       -7.547032   -4.951938  -12.548769
     44          8           0       -8.263179   -5.372353  -10.443933
     45          1           0       -7.676986   -4.690031   -8.625020
     46          1           0       -5.403146   -2.904779   -9.192285
     47          1           0       -5.501427   -5.086475  -10.351015
     48          1           0       -5.622026   -3.741815  -11.490907
     49          1           0       -8.369540   -5.382671  -12.933139
     50          1           0       -6.843278   -4.579347  -13.155590
     51          7           0       -8.442042   -2.009907   -9.680338
     52          6           0       -9.133016   -0.747863   -9.738245
     53          6           0       -8.927230    0.067541   -8.423385
     54          8           0       -8.822657   -0.579147   -7.359688
     55          6           0      -10.634802   -0.852578  -10.070471
     56          6           0      -11.264142   -2.241557   -9.945935
     57          6           0      -11.698148   -2.661250   -8.551226
     58          7           0      -10.580405   -2.594586   -7.586401
     59          6           0      -10.350388   -3.407096   -6.572051
     60          7           0      -10.717225   -4.714444   -6.612139
     61          7           0       -9.694162   -3.013024   -5.465955
     62          8           0       -8.908053    1.291984   -8.594924
     63          1           0       -8.787109   -2.670654   -9.021605
     64          1           0       -8.628512   -0.165276  -10.507930
     65          1           0      -11.174811   -0.120709   -9.461975
     66          1           0      -10.742875   -0.522417  -11.108972
     67          1           0      -12.165525   -2.260232  -10.567718
     68          1           0      -10.594160   -2.998028  -10.360944
     69          1           0      -12.501588   -2.011232   -8.194178
     70          1           0      -12.113589   -3.672732   -8.582591
     71          1           0      -10.096305   -1.696021   -7.488871
     72          1           0      -10.880224   -5.156257   -5.716745
     73          1           0      -11.322730   -5.004353   -7.367982
     74          1           0       -9.079955   -3.727667   -5.087641
     75          1           0       -9.318274   -2.072434   -5.480349
 ---------------------------------------------------------------------
 Rotational constants (GHZ):           0.1246469           0.0780885           0.0697852
 Standard basis: 6-31G(d) (6D, 7F)
   657 basis functions,  1236 primitive gaussians,   657 cartesian basis functions
   146 alpha electrons      146 beta electrons
       nuclear repulsion energy      5172.6649391402 Hartrees.
 NAtoms=   75 NActive=   75 NUniq=   75 SFac= 1.00D+00 NAtFMM=   60 NAOKFM=T Big=T
 Integral buffers will be    131072 words long.
 Raffenetti 2 integral format.
 Two-electron integral symmetry is turned off.
 Nuclear repulsion after empirical dispersion term =     5172.5441044864 Hartrees.
 One-electron integrals computed using PRISM.
 NBasis=   657 RedAO= T EigKep=  4.41D-04  NBF=   657
 NBsUse=   657 1.00D-06 EigRej= -1.00D+00 NBFU=   657
 ExpMin= 1.61D-01 ExpMax= 5.48D+03 ExpMxC= 8.25D+02 IAcc=3 IRadAn=         5 AccDes= 0.00D+00
 Harris functional with IExCor=  402 and IRadAn=       5 diagonalized for initial guess.
 HarFok:  IExCor=  402 AccDes= 0.00D+00 IRadAn=         5 IDoV= 1 UseB2=F ITyADJ=14
 ICtDFT=  3500011 ScaDFX=  1.000000  1.000000  1.000000  1.000000
 FoFCou: FMM=F IPFlag=           0 FMFlag=      100000 FMFlg1=        2001
         NFxFlg=           0 DoJE=T BraDBF=F KetDBF=T FulRan=T
         wScrn=  0.000000 ICntrl=       500 IOpCl=  0 I1Cent=   200000004 NGrid=           0
         NMat0=    1 NMatS0=      1 NMatT0=    0 NMatD0=    1 NMtDS0=    0 NMtDT0=    0
 Symmetry not used in FoFCou.
 Requested convergence on RMS density matrix=1.00D-08 within 128 cycles.
 Requested convergence on MAX density matrix=1.00D-06.
 Requested convergence on             energy=1.00D-06.
 No special actions if energy rises.
 Integral accuracy reduced to 1.0D-05 until final iterations.
 Initial convergence to 1.0D-05 achieved.  Increase integral accuracy.
 SCF Done:  E(RB3LYP) =  -1917.47968870     A.U. after   15 cycles
            NFock= 15  Conv=0.80D-08     -V/T= 2.0088
 DoSCS=F DFT=T ScalE2(SS,OS)=  1.000000  1.000000
 Range of M.O.s used for correlation:     1   657
 NBasis=   657 NAE=   146 NBE=   146 NFC=     0 NFV=     0
 NROrb=    657 NOA=   146 NOB=   146 NVA=   511 NVB=   511
 Symmetrizing basis deriv contribution to polar:
 IMax=3 JMax=2 DiffMx= 0.00D+00
 G2DrvN: will do    76 centers at a time, making    1 passes.
 Calling FoFCou, ICntrl=  3107 FMM=T I1Cent=   0 AccDes= 0.00D+00.
 End of G2Drv F.D. properties file   721 does not exist.
 End of G2Drv F.D. properties file   722 does not exist.
 End of G2Drv F.D. properties file   788 does not exist.
          IDoAtm=11111111111111111111111111111111111111111111111111
          IDoAtm=1111111111111111111111111
          Differentiating once with respect to nuclear coordinates.
 CalDSu exits because no D1Ps are significant.
          There are   228 degrees of freedom in the 1st order CPHF.  IDoFFX=6 NUNeed=     0.
    222 vectors produced by pass  0 Test12= 7.46D-14 1.00D-09 XBig12= 1.97D-01 1.30D-01.
 AX will form    72 AO Fock derivatives at one time.
    222 vectors produced by pass  1 Test12= 7.46D-14 1.00D-09 XBig12= 4.08D-02 2.70D-02.
    222 vectors produced by pass  2 Test12= 7.46D-14 1.00D-09 XBig12= 2.52D-04 1.60D-03.
    222 vectors produced by pass  3 Test12= 7.46D-14 1.00D-09 XBig12= 1.02D-06 8.56D-05.
    222 vectors produced by pass  4 Test12= 7.46D-14 1.00D-09 XBig12= 1.54D-09 3.79D-06.
    178 vectors produced by pass  5 Test12= 7.46D-14 1.00D-09 XBig12= 1.52D-12 1.13D-07.
      9 vectors produced by pass  6 Test12= 7.46D-14 1.00D-09 XBig12= 1.47D-15 2.72D-09.
 InvSVY:  IOpt=1 It=  1 EMax= 5.55D-16
 Solved reduced A of dimension  1297 with   228 vectors.
 End of Minotr F.D. properties file   721 does not exist.
 End of Minotr F.D. properties file   722 does not exist.
 End of Minotr F.D. properties file   788 does not exist.

 **********************************************************************

            Population analysis using the SCF Density.

 **********************************************************************

 Alpha  occ. eigenvalues --  -19.23653 -19.23639 -19.23080 -19.22735 -19.22476
 Alpha  occ. eigenvalues --  -19.22327 -19.19309 -14.56688 -14.50874 -14.50668
 Alpha  occ. eigenvalues --  -14.50026 -14.47598 -14.47285 -14.46620 -14.46435
 Alpha  occ. eigenvalues --  -14.43123 -10.46989 -10.40883 -10.40289 -10.40246
 Alpha  occ. eigenvalues --  -10.40086 -10.39786 -10.36969 -10.36688 -10.36410
 Alpha  occ. eigenvalues --  -10.34992 -10.33869 -10.33150 -10.31057 -10.30900
 Alpha  occ. eigenvalues --  -10.30473 -10.28529 -10.27991 -10.26750 -10.25499
 Alpha  occ. eigenvalues --  -10.25354 -10.25266 -10.25191 -10.25112  -1.17994
 Alpha  occ. eigenvalues --   -1.16051  -1.15987  -1.14775  -1.14501  -1.14117
 Alpha  occ. eigenvalues --   -1.12056  -1.11360  -1.09063  -1.05824  -1.05190
 Alpha  occ. eigenvalues --   -1.04155  -1.03670  -1.03173  -1.01549  -0.98549
 Alpha  occ. eigenvalues --   -0.92758  -0.92399  -0.90780  -0.89610  -0.87391
 Alpha  occ. eigenvalues --   -0.86624  -0.82283  -0.80998  -0.80800  -0.79384
 Alpha  occ. eigenvalues --   -0.78814  -0.77162  -0.75361  -0.73139  -0.72520
 Alpha  occ. eigenvalues --   -0.72274  -0.71020  -0.70678  -0.70345  -0.69776
 Alpha  occ. eigenvalues --   -0.69428  -0.68414  -0.67419  -0.66976  -0.66576
 Alpha  occ. eigenvalues --   -0.65776  -0.64884  -0.64318  -0.64044  -0.63173
 Alpha  occ. eigenvalues --   -0.62772  -0.62132  -0.62109  -0.61419  -0.60394
 Alpha  occ. eigenvalues --   -0.59186  -0.58570  -0.58442  -0.57914  -0.57590
 Alpha  occ. eigenvalues --   -0.56803  -0.56585  -0.56148  -0.55642  -0.55203
 Alpha  occ. eigenvalues --   -0.54891  -0.53942  -0.53649  -0.53191  -0.52926
 Alpha  occ. eigenvalues --   -0.52513  -0.52404  -0.52013  -0.51412  -0.51267
 Alpha  occ. eigenvalues --   -0.51025  -0.50638  -0.50115  -0.49196  -0.48844
 Alpha  occ. eigenvalues --   -0.48773  -0.48507  -0.48151  -0.47751  -0.47335
 Alpha  occ. eigenvalues --   -0.47031  -0.46522  -0.45995  -0.45872  -0.45596
 Alpha  occ. eigenvalues --   -0.45256  -0.42409  -0.42243  -0.41215  -0.40889
 Alpha  occ. eigenvalues --   -0.40520  -0.40313  -0.39807  -0.39131  -0.37977
 Alpha  occ. eigenvalues --   -0.37737  -0.37644  -0.36753  -0.36403  -0.35502
 Alpha  occ. eigenvalues --   -0.35096  -0.34986  -0.34392  -0.33101  -0.31571
 Alpha  occ. eigenvalues --   -0.31074
 Alpha virt. eigenvalues --   -0.12836  -0.11687  -0.10380  -0.09603  -0.08544
 Alpha virt. eigenvalues --   -0.08191  -0.07241  -0.06753  -0.06675  -0.06088
 Alpha virt. eigenvalues --   -0.05228  -0.03670  -0.02462  -0.01683  -0.01477
 Alpha virt. eigenvalues --    0.00431   0.00616   0.00662   0.01172   0.01694
 Alpha virt. eigenvalues --    0.02030   0.02498   0.02776   0.03013   0.03364
 Alpha virt. eigenvalues --    0.03608   0.04551   0.04924   0.05103   0.05408
 Alpha virt. eigenvalues --    0.05629   0.06044   0.06352   0.06824   0.07015
 Alpha virt. eigenvalues --    0.07463   0.07696   0.08437   0.08748   0.09365
 Alpha virt. eigenvalues --    0.09632   0.09736   0.10158   0.10241   0.10546
 Alpha virt. eigenvalues --    0.10786   0.11332   0.11734   0.11981   0.12420
 Alpha virt. eigenvalues --    0.12582   0.13046   0.13301   0.14142   0.14410
 Alpha virt. eigenvalues --    0.15248   0.15494   0.15986   0.16908   0.17183
 Alpha virt. eigenvalues --    0.18374   0.18450   0.18815   0.19962   0.20122
 Alpha virt. eigenvalues --    0.21631   0.22993   0.23860   0.24327   0.24603
 Alpha virt. eigenvalues --    0.25486   0.25646   0.26534   0.27161   0.27797
 Alpha virt. eigenvalues --    0.28372   0.29024   0.29325   0.30511   0.31373
 Alpha virt. eigenvalues --    0.32744   0.32949   0.35369   0.35935   0.36491
 Alpha virt. eigenvalues --    0.37256   0.39218   0.39762   0.40156   0.40535
 Alpha virt. eigenvalues --    0.41211   0.41702   0.42577   0.43172   0.43843
 Alpha virt. eigenvalues --    0.44448   0.44728   0.45293   0.45567   0.46475
 Alpha virt. eigenvalues --    0.47217   0.47417   0.47666   0.47882   0.48233
 Alpha virt. eigenvalues --    0.48795   0.48961   0.49198   0.49661   0.50045
 Alpha virt. eigenvalues --    0.50617   0.51280   0.51693   0.52041   0.52545
 Alpha virt. eigenvalues --    0.53248   0.53493   0.53717   0.53894   0.54350
 Alpha virt. eigenvalues --    0.54488   0.54806   0.55138   0.55288   0.55350
 Alpha virt. eigenvalues --    0.55628   0.55783   0.56140   0.56700   0.57155
 Alpha virt. eigenvalues --    0.57621   0.57678   0.58752   0.58877   0.59466
 Alpha virt. eigenvalues --    0.59860   0.60485   0.60619   0.61269   0.61948
 Alpha virt. eigenvalues --    0.62695   0.63348   0.63994   0.64775   0.65551
 Alpha virt. eigenvalues --    0.65959   0.66211   0.66620   0.67280   0.68041
 Alpha virt. eigenvalues --    0.68699   0.69027   0.69772   0.70145   0.70594
 Alpha virt. eigenvalues --    0.71275   0.71435   0.71986   0.73110   0.73401
 Alpha virt. eigenvalues --    0.73767   0.74239   0.74619   0.74774   0.75269
 Alpha virt. eigenvalues --    0.75582   0.75739   0.75935   0.76416   0.76477
 Alpha virt. eigenvalues --    0.77285   0.77851   0.78143   0.78345   0.78710
 Alpha virt. eigenvalues --    0.78970   0.79311   0.79338   0.80091   0.80130
 Alpha virt. eigenvalues --    0.80737   0.80754   0.81438   0.81718   0.82029
 Alpha virt. eigenvalues --    0.82443   0.82978   0.83383   0.83724   0.84387
 Alpha virt. eigenvalues --    0.84547   0.85205   0.85423   0.86072   0.86276
 Alpha virt. eigenvalues --    0.86993   0.88048   0.88530   0.88815   0.89600
 Alpha virt. eigenvalues --    0.89772   0.90836   0.91237   0.91366   0.92095
 Alpha virt. eigenvalues --    0.92264   0.93333   0.94244   0.94392   0.95439
 Alpha virt. eigenvalues --    0.96138   0.96424   0.97111   0.98032   0.98393
 Alpha virt. eigenvalues --    0.99416   0.99732   0.99969   1.00656   1.00804
 Alpha virt. eigenvalues --    1.02127   1.02877   1.03839   1.04418   1.05152
 Alpha virt. eigenvalues --    1.05590   1.06470   1.06848   1.07782   1.08469
 Alpha virt. eigenvalues --    1.09212   1.10077   1.10471   1.10891   1.11799
 Alpha virt. eigenvalues --    1.12442   1.13075   1.14707   1.14850   1.16152
 Alpha virt. eigenvalues --    1.16595   1.17357   1.18146   1.18577   1.19514
 Alpha virt. eigenvalues --    1.19696   1.20437   1.21071   1.21627   1.23597
 Alpha virt. eigenvalues --    1.24506   1.25037   1.25540   1.25861   1.26899
 Alpha virt. eigenvalues --    1.27783   1.28060   1.28901   1.30577   1.31118
 Alpha virt. eigenvalues --    1.31934   1.32878   1.33761   1.35164   1.35244
 Alpha virt. eigenvalues --    1.36366   1.36782   1.37244   1.37794   1.39285
 Alpha virt. eigenvalues --    1.39368   1.39860   1.41571   1.42080   1.42866
 Alpha virt. eigenvalues --    1.43516   1.44145   1.44990   1.45956   1.46504
 Alpha virt. eigenvalues --    1.46680   1.48174   1.48481   1.49511   1.50320
 Alpha virt. eigenvalues --    1.52028   1.53741   1.53995   1.54932   1.55740
 Alpha virt. eigenvalues --    1.56320   1.57384   1.59160   1.60221   1.61079
 Alpha virt. eigenvalues --    1.61424   1.62508   1.63154   1.63809   1.64224
 Alpha virt. eigenvalues --    1.64960   1.65296   1.65578   1.66592   1.67531
 Alpha virt. eigenvalues --    1.67953   1.68345   1.68726   1.69282   1.69916
 Alpha virt. eigenvalues --    1.70209   1.71275   1.71595   1.72079   1.72674
 Alpha virt. eigenvalues --    1.72938   1.73368   1.74159   1.74695   1.75221
 Alpha virt. eigenvalues --    1.76041   1.76434   1.76741   1.76977   1.77873
 Alpha virt. eigenvalues --    1.78134   1.78783   1.79709   1.80147   1.81013
 Alpha virt. eigenvalues --    1.81247   1.81771   1.82576   1.83238   1.83905
 Alpha virt. eigenvalues --    1.84279   1.84466   1.85456   1.85843   1.86619
 Alpha virt. eigenvalues --    1.87158   1.87882   1.88825   1.89517   1.90540
 Alpha virt. eigenvalues --    1.90947   1.91403   1.92382   1.92638   1.93522
 Alpha virt. eigenvalues --    1.93812   1.94332   1.95240   1.96388   1.96836
 Alpha virt. eigenvalues --    1.97308   1.98688   1.99152   1.99474   2.00056
 Alpha virt. eigenvalues --    2.00371   2.01369   2.01917   2.02479   2.03526
 Alpha virt. eigenvalues --    2.03639   2.04727   2.05223   2.05754   2.06992
 Alpha virt. eigenvalues --    2.07707   2.08027   2.08460   2.08807   2.09426
 Alpha virt. eigenvalues --    2.10225   2.10645   2.11011   2.11879   2.12781
 Alpha virt. eigenvalues --    2.15007   2.16281   2.17122   2.17961   2.18341
 Alpha virt. eigenvalues --    2.18779   2.19360   2.20189   2.21268   2.21958
 Alpha virt. eigenvalues --    2.22189   2.23189   2.24225   2.24787   2.25096
 Alpha virt. eigenvalues --    2.25519   2.27474   2.28417   2.29387   2.29610
 Alpha virt. eigenvalues --    2.30754   2.32253   2.33211   2.33308   2.35064
 Alpha virt. eigenvalues --    2.35452   2.36644   2.37382   2.38355   2.39338
 Alpha virt. eigenvalues --    2.40001   2.41286   2.42334   2.44279   2.44297
 Alpha virt. eigenvalues --    2.45063   2.46141   2.47521   2.47816   2.49407
 Alpha virt. eigenvalues --    2.50117   2.51188   2.51523   2.51876   2.52372
 Alpha virt. eigenvalues --    2.52756   2.53363   2.54623   2.55027   2.55877
 Alpha virt. eigenvalues --    2.57060   2.57985   2.58949   2.59272   2.59976
 Alpha virt. eigenvalues --    2.60715   2.62109   2.62826   2.63589   2.65054
 Alpha virt. eigenvalues --    2.66550   2.67865   2.68455   2.70015   2.70371
 Alpha virt. eigenvalues --    2.71967   2.73043   2.74921   2.76332   2.77501
 Alpha virt. eigenvalues --    2.78138   2.83754   2.84658   2.85840   2.87514
 Alpha virt. eigenvalues --    2.89309   2.89731   2.91055   2.91397   2.91936
 Alpha virt. eigenvalues --    2.93571   2.94067   2.95083   2.95495   2.98654
 Alpha virt. eigenvalues --    3.00146   3.01728   3.04884   3.05714   3.09287
 Alpha virt. eigenvalues --    3.12718   3.35943   3.68479   3.70646   3.73086
 Alpha virt. eigenvalues --    3.76796   3.79767   3.86160   3.92564   3.94331
 Alpha virt. eigenvalues --    3.97376   3.99581   4.01801   4.03061   4.04316
 Alpha virt. eigenvalues --    4.05953   4.06934   4.07169   4.12410   4.13408
 Alpha virt. eigenvalues --    4.14859   4.16777   4.18435   4.21964   4.24140
 Alpha virt. eigenvalues --    4.26275   4.26763   4.31390   4.32385   4.33324
 Alpha virt. eigenvalues --    4.36804   4.39346   4.42079   4.45345   4.47481
 Alpha virt. eigenvalues --    4.49361   4.58920   4.60692   4.65541   4.67371
 Alpha virt. eigenvalues --    4.71407
          Condensed to atoms (all electrons):
 Mulliken charges:
               1
     1  N   -0.789343
     2  C   -0.103809
     3  C    0.593239
     4  O   -0.526992
     5  C   -0.437611
     6  C    0.556399
     7  N   -0.745877
     8  O   -0.500756
     9  H    0.431592
    10  H    0.251742
    11  H    0.231466
    12  H    0.212297
    13  H    0.348034
    14  H    0.371203
    15  H    0.416837
    16  H    0.447651
    17  N   -0.616505
    18  C   -0.104926
    19  C    0.621831
    20  O   -0.546882
    21  C   -0.334954
    22  C    0.171203
    23  C   -0.203981
    24  C   -0.190404
    25  C   -0.139393
    26  C   -0.127536
    27  C   -0.125004
    28  H    0.396096
    29  H    0.213112
    30  H    0.123662
    31  H    0.192137
    32  H    0.149551
    33  H    0.120672
    34  H    0.143900
    35  H    0.143228
    36  H    0.146689
    37  N   -0.630358
    38  C   -0.079317
    39  C    0.625317
    40  O   -0.571946
    41  C   -0.376457
    42  C    0.607214
    43  N   -0.732519
    44  O   -0.530973
    45  H    0.374357
    46  H    0.218384
    47  H    0.211065
    48  H    0.184647
    49  H    0.359224
    50  H    0.359943
    51  N   -0.582007
    52  C   -0.067610
    53  C    0.606771
    54  O   -0.626597
    55  C   -0.313303
    56  C   -0.298122
    57  C   -0.159758
    58  N   -0.637935
    59  C    0.727751
    60  N   -0.712230
    61  N   -0.743841
    62  O   -0.567101
    63  H    0.360607
    64  H    0.181006
    65  H    0.173907
    66  H    0.183116
    67  H    0.179231
    68  H    0.182065
    69  H    0.196945
    70  H    0.166432
    71  H    0.413504
    72  H    0.378564
    73  H    0.371773
    74  H    0.397648
    75  H    0.382033
 Sum of Mulliken charges =   1.00000
 Mulliken charges with hydrogens summed into heavy atoms:
               1
     1  N    0.506737
     2  C    0.147934
     3  C    0.593239
     4  O   -0.526992
     5  C    0.006152
     6  C    0.556399
     7  N   -0.026640
     8  O   -0.500756
    17  N   -0.220409
    18  C    0.108186
    19  C    0.621831
    20  O   -0.546882
    21  C   -0.019155
    22  C    0.171203
    23  C   -0.054429
    24  C   -0.069733
    25  C    0.004507
    26  C    0.015692
    27  C    0.021686
    37  N   -0.256002
    38  C    0.139067
    39  C    0.625317
    40  O   -0.571946
    41  C    0.019256
    42  C    0.607214
    43  N   -0.013352
    44  O   -0.530973
    51  N   -0.221400
    52  C    0.113395
    53  C    0.606771
    54  O   -0.626597
    55  C    0.043720
    56  C    0.063173
    57  C    0.203619
    58  N   -0.224430
    59  C    0.727751
    60  N    0.038107
    61  N    0.035840
    62  O   -0.567101
 APT charges:
               1
     1  N   -2.746518
     2  C    1.476284
     3  C    0.095199
     4  O   -0.653058
     5  C   -0.408225
     6  C    0.640425
     7  N   -1.507948
     8  O   -1.689251
     9  H    1.037098
    10  H   -0.559235
    11  H    1.181769
    12  H   -0.822641
    13  H    1.179827
    14  H    1.485532
    15  H    0.655525
    16  H    1.036521
    17  N   -1.012826
    18  C   -0.319368
    19  C   -1.125340
    20  O    0.174018
    21  C   -0.685840
    22  C    0.996823
    23  C   -0.507976
    24  C   -0.497500
    25  C   -0.642661
    26  C   -0.710880
    27  C   -0.764740
    28  H    1.024459
    29  H    0.121073
    30  H    0.483659
    31  H    0.381923
    32  H    0.906225
    33  H    0.647900
    34  H    0.381495
    35  H    0.031170
    36  H   -0.160647
    37  N   -0.812615
    38  C    0.718690
    39  C   -0.392359
    40  O    0.030854
    41  C   -1.002458
    42  C   -1.334785
    43  N   -1.399324
    44  O    0.119476
    45  H    1.716468
    46  H   -0.792922
    47  H   -0.127279
    48  H    0.743925
    49  H    2.812930
    50  H    0.633332
    51  N    0.356147
    52  C   -0.438846
    53  C    1.011290
    54  O   -1.596201
    55  C   -1.904572
    56  C   -2.764992
    57  C   -2.377760
    58  N    1.473437
    59  C   -0.072353
    60  N   -1.941628
    61  N   -0.253777
    62  O   -0.133982
    63  H    0.252978
    64  H    0.676211
    65  H    0.199248
    66  H    1.720667
    67  H    2.350544
    68  H    0.252905
    69  H    1.026261
    70  H    1.552713
    71  H   -0.293668
    72  H    0.201034
    73  H    2.727019
    74  H   -0.426923
    75  H   -0.631957
 Sum of APT charges =   1.00000
 APT charges with hydrogens summed into heavy atoms:
               1
     1  N   -0.017374
     2  C    0.917049
     3  C    0.095199
     4  O   -0.653058
     5  C   -0.049096
     6  C    0.640425
     7  N    1.157412
     8  O   -1.689251
    17  N    0.011633
    18  C   -0.198296
    19  C   -1.125340
    20  O    0.174018
    21  C    0.179742
    22  C    0.996823
    23  C    0.398249
    24  C    0.150400
    25  C   -0.261166
    26  C   -0.679710
    27  C   -0.925387
    37  N    0.903852
    38  C   -0.074233
    39  C   -0.392359
    40  O    0.030854
    41  C   -0.385812
    42  C   -1.334785
    43  N    2.046938
    44  O    0.119476
    51  N    0.609126
    52  C    0.237365
    53  C    1.011290
    54  O   -1.596201
    55  C    0.015343
    56  C   -0.161543
    57  C    0.201214
    58  N    1.179769
    59  C   -0.072353
    60  N    0.986425
    61  N   -1.312657
    62  O   -0.133982
 Electronic spatial extent (au):  <R**2>=         135698.1646
 Charge=              1.0000 electrons
 Dipole moment (field-independent basis, Debye):
    X=            -44.3321    Y=            -11.5720    Z=            -42.6030  Tot=             62.5641
 Quadrupole moment (field-independent basis, Debye-Ang):
   XX=            215.4690   YY=           -171.3902   ZZ=            198.3015
   XY=            117.1521   XZ=            378.1927   YZ=             99.4849
 Traceless Quadrupole moment (field-independent basis, Debye-Ang):
   XX=            134.6755   YY=           -252.1836   ZZ=            117.5081
   XY=            117.1521   XZ=            378.1927   YZ=             99.4849
 Octapole moment (field-independent basis, Debye-Ang**2):
  XXX=            209.3246  YYY=            886.9327  ZZZ=            626.4442  XYY=           1054.2826
  XXY=           -912.5881  XXZ=          -1915.4100  XZZ=          -1968.2660  YZZ=           -671.2696
  YYZ=           1186.7562  XYZ=           -946.8428
 Hexadecapole moment (field-independent basis, Debye-Ang**3):
 XXXX=         -26488.6425 YYYY=          -9743.2967 ZZZZ=         -35081.8074 XXXY=           5915.0316
 XXXZ=          -1251.3069 YYYX=          -6701.4507 YYYZ=          -7378.9046 ZZZX=          -1859.2197
 ZZZY=           3157.8141 XXYY=          -8581.9755 XXZZ=           5689.3849 YYZZ=         -10284.8593
 XXYZ=           6868.5385 YYXZ=          -8091.3711 ZZXY=           6331.1515
 N-N= 5.172544104486D+03 E-N=-1.478551675727D+04  KE= 1.900776848301D+03
  Exact polarizability:       0.000       0.000       0.000       0.000       0.000       0.000
 Approx polarizability:     463.572      64.887     427.386     -26.461      -9.070     478.677
 Calling FoFJK, ICntrl=    100127 FMM=F ISym2X=0 I1Cent= 0 IOpClX= 0 NMat=1 NMatS=1 NMatT=0.
 -------------------------------------------------------------------
 Center     Atomic                   Forces (Hartrees/Bohr)
 Number     Number              X              Y              Z
 -------------------------------------------------------------------
      1        7          -0.001630839    0.014778127   -0.013545876
      2        6           0.014630888   -0.021917919    0.030283251
      3        6           0.028519649   -0.017937420   -0.015344823
      4        8          -0.042018518    0.009173833    0.019930960
      5        6           0.012298582    0.010762459    0.003649758
      6        6          -0.007863869    0.008823487    0.003531422
      7        7           0.003460583   -0.003154096    0.000066913
      8        8           0.011397110    0.004530614   -0.001739740
      9        1          -0.010949880    0.000879211   -0.004104075
     10        1           0.000518531    0.001342750   -0.002024170
     11        1          -0.005829754   -0.005173087    0.005469883
     12        1           0.002863394   -0.002679123    0.001037970
     13        1          -0.001799180    0.005255917    0.000053013
     14        1          -0.005725142   -0.001055887   -0.002023445
     15        1           0.000602519    0.002831134   -0.003379921
     16        1           0.000799323   -0.007829133   -0.002186232
     17        7           0.024464442    0.007831451   -0.016335325
     18        6           0.002342515   -0.003603916    0.003684388
     19        6          -0.001183806   -0.007065008    0.012800662
     20        8          -0.003662683    0.002300089    0.000486095
     21        6           0.001392294   -0.001144801    0.004001366
     22        6          -0.000119855    0.002315833   -0.002007344
     23        6          -0.000910220    0.001172258   -0.005143829
     24        6          -0.000478399    0.001144115    0.001120469
     25        6           0.002146851   -0.000954165   -0.002760018
     26        6          -0.000075852   -0.000026434    0.002871434
     27        6           0.000902392    0.000921198    0.001548237
     28        1          -0.009469104    0.003848077    0.003965153
     29        1           0.001917994    0.000573237   -0.001544613
     30        1          -0.001920850   -0.000189500   -0.000200532
     31        1           0.000338759   -0.001605619    0.000140278
     32        1           0.001856625   -0.000850868    0.000126783
     33        1          -0.002921135   -0.000638117    0.001879930
     34        1           0.002544855    0.001240757    0.000821056
     35        1           0.000021733    0.000825263    0.001214556
     36        1           0.000571720    0.001103957    0.000736789
     37        7          -0.002393566   -0.002639429   -0.003539089
     38        6          -0.001154188    0.004919297   -0.003422996
     39        6          -0.002360095   -0.011019288    0.000080044
     40        8           0.010398596    0.015562875   -0.002996466
     41        6           0.003224326   -0.002277317   -0.000917969
     42        6           0.008093780    0.002435118   -0.008310327
     43        7          -0.001578612    0.001264787    0.009090683
     44        8          -0.013529560   -0.001833544    0.009487867
     45        1          -0.001612274   -0.005739130   -0.005514373
     46        1           0.004030089   -0.000591451   -0.001511753
     47        1           0.002754300   -0.001366016    0.000832318
     48        1           0.002287224    0.002717102    0.001430552
     49        1          -0.003275593   -0.003326013   -0.004548669
     50        1           0.002950661    0.001954935   -0.006697997
     51        7           0.003415376    0.006795680   -0.006425076
     52        6           0.005878455    0.011139764    0.003871763
     53        6          -0.015450298   -0.018594669   -0.037563932
     54        8          -0.003855809   -0.010747004    0.029272856
     55        6          -0.001106501    0.002119830   -0.007559794
     56        6          -0.004171942   -0.003090413   -0.006197457
     57        6           0.001519565   -0.000998288    0.004508715
     58        7          -0.011237362    0.002115775   -0.001864260
     59        6          -0.002878079   -0.024531347    0.003517950
     60        7          -0.006202929    0.010987909    0.000462995
     61        7          -0.000206936    0.003480195   -0.004529141
     62        8           0.004490307    0.026663859    0.000537436
     63        1          -0.001273394   -0.011939907    0.010581973
     64        1          -0.002741988   -0.000878252   -0.002687949
     65        1          -0.002765950    0.000799826   -0.000600053
     66        1          -0.003421884   -0.001373587    0.000668558
     67        1          -0.000929053   -0.000507627   -0.000035971
     68        1           0.001306023   -0.001490381   -0.001646406
     69        1          -0.000620343    0.002699156    0.002331175
     70        1           0.001633079    0.000066109   -0.000020970
     71        1           0.003363930    0.005548133   -0.000710235
     72        1           0.000710956   -0.004106190   -0.001759371
     73        1           0.002156637   -0.004268717    0.001800970
     74        1           0.006021553    0.003012512    0.001815194
     75        1           0.001499827    0.001207037    0.001688782
 -------------------------------------------------------------------
 Cartesian Forces:  Max     0.042018518 RMS     0.008142365
 FormGI is forming the generalized inverse of G from B-inverse, IUseBI=4.

 GradGradGradGradGradGradGradGradGradGradGradGradGradGradGradGradGradGrad
 Berny optimization.
 Internal  Forces:  Max     0.057119934 RMS     0.011846415
 Search for a local minimum.
 Step number   1 out of a maximum of  399
 All quantities printed in internal units (Hartrees-Bohrs-Radians)
 Mixed Optimization -- RFO/linear search
 Second derivative matrix not updated -- analytic derivatives used.
 ITU=  0
     Eigenvalues ---   -0.00950  -0.00596  -0.00196  -0.00083   0.00032
     Eigenvalues ---    0.00049   0.00067   0.00097   0.00129   0.00337
     Eigenvalues ---    0.00380   0.00420   0.00514   0.00572   0.00703
     Eigenvalues ---    0.00743   0.00828   0.00865   0.01053   0.01124
     Eigenvalues ---    0.01180   0.01306   0.01432   0.01485   0.01577
     Eigenvalues ---    0.01750   0.01767   0.01799   0.01875   0.01913
     Eigenvalues ---    0.02240   0.02306   0.02395   0.02454   0.02502
     Eigenvalues ---    0.02561   0.02713   0.02715   0.02799   0.02856
     Eigenvalues ---    0.03094   0.03623   0.03748   0.03790   0.03843
     Eigenvalues ---    0.03920   0.03937   0.04078   0.04144   0.04154
     Eigenvalues ---    0.04185   0.04205   0.04278   0.04345   0.04413
     Eigenvalues ---    0.04491   0.04601   0.04692   0.04750   0.04846
     Eigenvalues ---    0.05007   0.05177   0.05212   0.05688   0.05857
     Eigenvalues ---    0.05955   0.06043   0.06284   0.06542   0.06845
     Eigenvalues ---    0.07045   0.07513   0.07809   0.07944   0.08031
     Eigenvalues ---    0.08345   0.08491   0.08741   0.08902   0.09870
     Eigenvalues ---    0.11010   0.11330   0.11344   0.11359   0.11442
     Eigenvalues ---    0.11648   0.12094   0.12295   0.12335   0.12452
     Eigenvalues ---    0.12588   0.12637   0.12707   0.13064   0.13207
     Eigenvalues ---    0.13400   0.13577   0.13690   0.13895   0.14200
     Eigenvalues ---    0.14387   0.14532   0.15346   0.15480   0.16572
     Eigenvalues ---    0.16962   0.18161   0.18369   0.18839   0.18899
     Eigenvalues ---    0.19096   0.19356   0.19443   0.19663   0.19757
     Eigenvalues ---    0.20325   0.20675   0.20724   0.21053   0.21235
     Eigenvalues ---    0.21369   0.22285   0.22486   0.22814   0.23231
     Eigenvalues ---    0.23342   0.23519   0.23921   0.24344   0.24564
     Eigenvalues ---    0.25885   0.26342   0.26677   0.27509   0.27960
     Eigenvalues ---    0.28141   0.28488   0.28839   0.29447   0.30200
     Eigenvalues ---    0.30694   0.30899   0.31318   0.31553   0.32114
     Eigenvalues ---    0.32971   0.33461   0.33565   0.33739   0.34015
     Eigenvalues ---    0.34186   0.34349   0.34500   0.34621   0.34639
     Eigenvalues ---    0.34764   0.34905   0.34998   0.35007   0.35097
     Eigenvalues ---    0.35190   0.35703   0.35735   0.36091   0.36377
     Eigenvalues ---    0.36522   0.36533   0.36678   0.36753   0.36917
     Eigenvalues ---    0.37472   0.37810   0.38575   0.38816   0.39404
     Eigenvalues ---    0.40795   0.40957   0.41900   0.42736   0.42961
     Eigenvalues ---    0.43546   0.44065   0.44289   0.45305   0.46183
     Eigenvalues ---    0.46389   0.46420   0.46639   0.47131   0.47426
     Eigenvalues ---    0.47611   0.47876   0.48387   0.48543   0.48753
     Eigenvalues ---    0.49571   0.49668   0.49981   0.50483   0.51569
     Eigenvalues ---    0.51924   0.52513   0.53064   0.53605   0.56544
     Eigenvalues ---    0.62703   0.66359   0.67286   0.69911   0.80241
     Eigenvalues ---    0.82601   0.83740   0.84984   0.86944   0.89622
     Eigenvalues ---    1.54648   2.30729   3.30741   9.50491
 RFO step:  Lambda=-4.21360494D-02 EMin=-9.50043219D-03
 Linear search not attempted -- first point.
 Maximum step size (   0.300) exceeded in Quadratic search.
    -- Step size scaled by   0.855
 Iteration  1 RMS(Cart)=  0.22687933 RMS(Int)=  0.00825363
 Iteration  2 RMS(Cart)=  0.08022283 RMS(Int)=  0.00157025
 Iteration  3 RMS(Cart)=  0.00141394 RMS(Int)=  0.00152104
 Iteration  4 RMS(Cart)=  0.00000460 RMS(Int)=  0.00152104
 Iteration  5 RMS(Cart)=  0.00000005 RMS(Int)=  0.00152104
 Variable       Old X    -DE/DX   Delta X   Delta X   Delta X     New X
                                 (Linear)    (Quad)   (Total)
    R1        2.78506   0.02716   0.00000   0.06126   0.06126   2.84632
    R2        1.94822   0.01100   0.00000   0.01983   0.01983   1.96805
    R3        1.92905   0.00366   0.00000   0.00473   0.00473   1.93379
    R4        1.94469   0.00719   0.00000   0.02458   0.02458   1.96927
    R5        2.91689   0.00310   0.00000   0.00137   0.00137   2.91826
    R6        2.86941   0.00646   0.00000   0.01495   0.01495   2.88436
    R7        2.06274   0.00072   0.00000  -0.00057  -0.00057   2.06218
    R8        2.38483  -0.04714   0.00000  -0.05966  -0.05966   2.32517
    R9        2.58796  -0.01120   0.00000  -0.01897  -0.01897   2.56900
   R10        2.85755   0.01438   0.00000   0.02972   0.02972   2.88727
   R11        2.01330   0.00619   0.00000   0.03496   0.03496   2.04826
   R12        2.06087   0.00264   0.00000   0.00695   0.00695   2.06781
   R13        2.56474   0.00433   0.00000   0.00143   0.00143   2.56617
[...]
 528,-0.00105240,0.00048310,0.00031310,0.00025650,0.00088954,0.00003990
 ,0.00000723,-0.00010154,-0.00006376,-0.00008971,-0.00000973,-0.0002189
 3,-0.00010474,-0.00009990,-0.00008878,0.00003532,-0.00021475,0.0001075
 3,0.00006499,-0.00001746,0.00009673,-0.00031949,-0.00033934,0.00000591
 ,0.00009568,0.00002866,-0.00079039,-0.00017804,0.00069513,0.00063277,0
 .00061528,-0.00052471,0.00032100,-0.00007814,-0.00009910,-0.00072672,0
 .00025336,0.00001313,0.00043450,0.00066014,0.00149669,-0.00247453,0.00
 267951,-0.00090772,0.00372186,-0.00374511,-0.00499141,-0.07692734,-0.1
 0845528,-0.41928596,0.00020641,0.00114040,0.00287666,0.00041749,0.0001
 0124,-0.00017799,-0.00005883,0.00004621,0.00063397,-0.00001087,0.00000
 155,-0.00001882,0.00000298,-0.00018059,0.00004288,-0.00000107,0.000009
 67,-0.00002928,0.00012912,-0.00002704,-0.00015291,0.00033438,0.0006421
 3,-0.00054337,-0.00003634,-0.00009940,-0.00020657,-0.00117671,0.000581
 49,0.00038064,-0.00025151,-0.00077257,-0.00050612,0.00236337,-0.002433
 12,-0.00691752,0.07493278,0.10950054,0.42862743,-0.00032775,0.00006922
 ,0.00010528,0.00021037,-0.00008538,0.00012203,-0.00064740,-0.00047037,
 0.00040181,0.00030747,0.00031103,-0.00024322,-0.00000626,0.00013101,-0
 .00012939,0.00004276,-0.00025567,0.00010675,-0.00002166,0.00012164,0.0
 0001603,-0.00007201,0.00016691,-0.00008650,0.00054792,0.00016308,-0.00
 029446,-0.00003416,0.00004644,-0.00002658,0.00005613,-0.00003203,0.000
 04347,-0.00002494,-0.00003776,0.00001639,0.00001840,-0.00002048,-0.000
 00648,0.00001368,-0.00006778,0.00001049,0.00000400,-0.00003474,0.00000
 642,0.00001490,-0.00010477,-0.00001040,0.00017428,0.00086496,-0.000332
 97,0.00076358,-0.00125154,0.00020720,-0.00679850,-0.00582687,0.0113862
 5,0.00412037,0.00362677,-0.00611095,-0.00076207,0.00051987,0.00006609,
 0.00007170,-0.00049527,-0.00022502,0.00010215,0.00027757,0.00014668,0.
 00025625,0.00013215,0.00002545,0.00000794,-0.00002658,-0.00002286,-0.0
 0003772,0.00001565,-0.00000196,0.00003235,0.00009442,0.00000419,0.0006
 6576,-0.00043540,0.00010356,-0.00004273,0.00032029,0.00008439,-0.00028
 864,-0.00103404,-0.00071899,-0.00004827,0.00002438,-0.00015757,-0.0000
 8138,-0.00000242,-0.00001164,0.00000234,-0.00004655,-0.00002797,0.0000
 3306,0.00003028,0.00000964,0.00001329,0.00005467,0.00003118,0.00001040
 ,0.00002318,0.00001764,0.00002300,0.00026414,-0.00634416,-0.00118395,-
 0.00061246,0.00120108,0.00157815,-0.00058548,-0.00057437,-0.00053880,0
 .00063492,-0.00004495,-0.00004972,0.00029703,-0.00007127,0.00060262,0.
 00017278,0.00032967,-0.00026438,-0.00003255,-0.00019199,-0.00090196,-0
 .00017215,-0.00023287,0.00096676,0.00045835,0.00047198,0.00002540,0.00
 012094,-0.00015401,-0.00005501,0.00001018,0.00011748,-0.00005676,-0.00
 008472,-0.00018023,0.00005633,-0.00000506,-0.00002472,0.00003775,-0.00
 001367,0.00004983,-0.00124032,0.00048327,0.00012383,0.00036723,-0.0002
 6411,0.00006482,0.00321940,0.00094195,-0.00108554,-0.00180563,-0.00185
 475,0.00183084,-0.00003899,0.00011650,0.00008355,-0.00000305,0.0000604
 6,-0.00032771,0.00136002,0.00046411,-0.00124596,0.00357725,-0.00121554
 ,0.00120757,-0.01018947,-0.00229598,-0.00663463,-0.00149764,0.00243872
 ,0.00340020,-0.32132414,0.14544038,-0.13544845,-0.00216597,-0.00039267
 ,-0.00025303,0.00083185,-0.00011001,0.00006687,-0.00001506,0.00001534,
 0.00001184,-0.00008994,0.00005415,-0.00006883,-0.00004703,-0.00006203,
 0.00002952,0.00000376,-0.00003805,0.00006591,-0.00002081,-0.00000601,0
 .00003684,0.00019249,0.00006343,0.00046209,0.00005056,0.00001041,0.000
 18129,-0.00061487,0.00119488,0.00057772,0.00295378,-0.00006616,-0.0001
 3412,-0.00019273,-0.00000827,-0.00023414,0.32629531,0.00011282,0.00001
 337,-0.00006806,-0.00005063,0.00002019,0.00001312,-0.00010565,-0.00011
 913,0.00007390,0.00012858,-0.00010398,-0.00007566,-0.00000088,0.000002
 98,0.00002653,-0.00000994,-0.00004080,-0.00001096,0.00001977,0.0000161
 1,0.00000446,0.00001364,0.00002361,-0.00000709,-0.00020308,-0.00009345
 ,0.00011273,0.00000828,-0.00001127,0.00000264,-0.00001162,-0.00001194,
 -0.00000336,0.00000244,-0.00000007,0.00000741,-0.00000889,-0.00000737,
 -0.00000038,-0.00000962,-0.00001168,0.00000441,-0.00000299,-0.00001663
 ,0.00000167,-0.00000436,0.00003357,0.00003374,-0.00003513,-0.00019351,
 -0.00016490,-0.00029633,0.00014545,0.00039578,0.00164247,0.00400173,-0
 .00396956,-0.00307436,-0.00500567,0.00280849,-0.00113837,0.00021399,0.
 00056699,0.00033531,-0.00019774,-0.00015805,-0.00001382,0.00013429,0.0
 0007895,-0.00014054,0.00000266,0.00004990,0.00006232,0.00000104,-0.000
 02175,0.00004035,-0.00003221,-0.00002013,0.00001533,0.00001049,-0.0000
 0243,-0.00032463,-0.00019351,0.00023113,0.00004959,-0.00007361,-0.0001
 6447,0.00000209,-0.00034341,-0.00063325,0.00042348,-0.00004581,0.00002
 390,0.00001610,-0.00001073,-0.00000742,0.00002709,-0.00003584,-0.00006
 543,0.00001476,0.00001505,0.00000614,-0.00000394,0.00000605,0.00000071
 ,0.00001175,0.00000677,0.00000031,-0.00027837,-0.00032644,0.00331865,0
 .00055306,0.00029761,-0.00051561,-0.00093651,0.00035285,0.00045897,0.0
 0030651,-0.00027203,-0.00008447,0.00000047,-0.00014404,0.00006777,-0.0
 0019789,-0.00000968,-0.00015528,0.00009949,-0.00003730,0.00008546,0.00
 030628,-0.00004797,0.00014044,-0.00042432,-0.00008564,-0.00026000,-0.0
 0000823,-0.00004173,0.00010510,0.00002801,-0.00001358,-0.00006420,0.00
 001905,0.00003986,0.00008329,-0.00003172,0.00003233,0.00001261,-0.0000
 1835,0.00002206,-0.00000880,0.00055400,-0.00027651,-0.00026519,-0.0001
 4339,0.00006855,-0.00004937,0.00088405,-0.00017390,0.00043697,-0.00015
 741,-0.00050777,0.00079306,0.00000297,-0.00013097,-0.00002971,-0.00069
 357,-0.00023505,-0.00043935,0.00171200,0.00169783,-0.00024641,-0.00268
 539,0.00005560,-0.00583219,-0.01428693,0.01298138,0.00460356,-0.000896
 18,-0.00387793,-0.00048960,0.13797430,-0.12112913,0.02294562,-0.000188
 79,0.00022446,-0.00042934,-0.00028470,0.00020734,0.00030369,0.00000286
 ,-0.00000087,0.00000727,0.00002286,-0.00002904,0.00003151,0.00002917,0
 .00004334,-0.00001267,0.00015637,0.00011797,-0.00027978,0.00002161,0.0
 0002000,-0.00002403,-0.00005274,0.00002228,-0.00006733,0.00004187,-0.0
 0004477,0.00005313,-0.00070928,-0.00083718,-0.00017455,-0.00054719,-0.
 00081807,-0.00348563,0.00010038,-0.00030546,0.00048535,-0.14071400,0.1
 1781008,-0.00015969,-0.00020262,-0.00003000,0.00007588,0.00002771,0.00
 010726,0.00034099,0.00021255,-0.00015614,-0.00024554,-0.00006488,0.000
 00633,-0.00000419,-0.00001487,0.00002546,0.00008345,0.00009862,0.00017
 918,-0.00003843,-0.00009395,-0.00011526,-0.00007155,-0.00005664,-0.000
 14658,0.00020427,0.00014748,-0.00009396,-0.00000848,-0.00000730,-0.000
 01014,0.00002745,-0.00000513,0.00004346,-0.00000274,-0.00002167,0.0000
 2588,-0.00000562,0.00000786,0.00000205,0.00000450,-0.00002010,0.000034
 12,0.00003828,0.00012439,0.00003818,0.00004556,0.00017145,0.00005538,-
 0.00042546,-0.00038316,-0.00033918,0.00055200,0.00013307,0.00046266,0.
 00361780,0.00190686,-0.00447648,-0.00320383,-0.00046464,0.00047529,-0.
 00082114,0.00012276,0.00023034,0.00024303,-0.00008505,-0.00025979,-0.0
 0003205,0.00011448,0.00003737,-0.00016288,0.00003681,-0.00002611,0.000
 06948,0.00000730,-0.00003390,0.00002525,-0.00001085,-0.00002902,0.0000
 1186,0.00002461,-0.00001598,0.00023836,0.00017828,0.00015378,0.0000175
 0,-0.00010090,-0.00019306,0.00006307,-0.00057948,0.00030808,-0.0001261
 3,0.00003767,0.00004762,0.00003490,-0.00002826,0.00001553,0.00003102,-
 0.00007132,0.00003338,0.00001398,0.00000734,0.00001334,-0.00000352,-0.
 00001217,0.00001321,0.00001286,-0.00000178,0.00000953,-0.00026212,0.00
 034105,0.00149310,0.00033063,0.00028889,-0.00056677,0.00040385,0.00032
 652,-0.00019427,-0.00023690,-0.00056908,0.00024007,-0.00003159,-0.0001
 0716,0.00001198,0.00002917,0.00003931,-0.00053825,0.00007257,0.0000219
 7,0.00031141,-0.00004380,0.00002265,0.00045769,-0.00000311,-0.00034899
 ,-0.00029795,-0.00002229,-0.00004287,0.00011594,0.00002096,0.00000236,
 -0.00003103,0.00002056,0.00000931,0.00005805,-0.00002349,-0.00002599,-
 0.00002606,0.00001218,-0.00000597,-0.00003514,-0.00004931,-0.00001690,
 0.00035970,-0.00028338,0.00014313,-0.00007806,0.00018453,0.00037475,-0
 .00013612,-0.00001801,-0.00039298,0.00033967,0.00000591,0.00000635,-0.
 00004932,0.00020237,0.00010602,0.00030180,-0.00223690,0.00002892,0.001
 34449,-0.00042288,-0.00474366,-0.00280930,-0.02872988,0.01673623,-0.01
 504356,0.00152569,0.00250189,0.00068383,-0.11884237,0.02172186,-0.0775
 1892,-0.00026410,-0.00039664,-0.00002480,-0.00025234,0.00007814,-0.000
 67507,0.00001882,-0.00003532,0.00002963,0.00001840,-0.00000872,-0.0000
 1233,0.00000705,0.00001370,0.00001841,-0.00000029,-0.00002105,0.000109
 49,0.00002152,0.00000252,-0.00003370,-0.00018991,-0.00012652,-0.000540
 48,-0.00004967,-0.00005243,-0.00007501,0.00051504,-0.00043178,-0.00048
 698,-0.00060207,-0.00267537,-0.00010915,0.00066140,0.00046489,-0.00042
 485,0.13581964,-0.03398362,0.09358733,0.00000881,0.00006428,-0.0000076
 1,0.00001912,-0.00001021,0.00002822,-0.00027278,-0.00023486,0.00017658
 ,0.00019385,0.00001160,-0.00009823,-0.00000433,0.00004037,-0.00001698,
 0.00000620,-0.00012712,0.00000927,0.00000522,0.00005893,0.00001988,-0.
 00001313,0.00007999,-0.00001954,-0.00000215,-0.00005619,-0.00002592,-0
 .00000329,0.00000429,-0.00000659,-0.00000065,-0.00002197,0.00000933,-0
 .00000396,-0.00000758,0.00000720,0.00000374,-0.00001262,-0.00000327,-0
 .00000154,-0.00002730,0.00000257,0.00000112,-0.00003740,0.00000009,-0.
 00000463,-0.00003398,0.00000998,0.00009483,0.00022961,-0.00017659,-0.0
 0005967,0.00004824,0.00012375,0.00009668,0.00107364,-0.00077314,-0.001
 90649,-0.00023718,0.00093132,-0.00051754,-0.00001638,0.00023627,0.0001
 0544,-0.00012952,-0.00009143,0.00000482,0.00008109,0.00004644,-0.00010
 303,0.00003117,0.00007559,0.00002377,0.00000235,-0.00000984,0.00004247
 ,-0.00003846,-0.00002957,0.00001968,0.00003208,0.00000019,-0.00017344,
 -0.00029669,0.00025339,0.00000542,-0.00001791,-0.00005768,0.00014421,0
 .00009484,-0.00023137,0.00020990,-0.00001513,-0.00002164,-0.00000569,-
 0.00000388,-0.00000729,0.00003078,-0.00003904,-0.00008043,0.00001341,0
 .00001031,0.00000328,-0.00000044,0.00001559,0.00000707,0.00001477,0.00
 001011,0.00000294,0.00005033,-0.00015977,0.00051836,0.00005928,0.00003
 566,-0.00003317,-0.00027292,0.00004429,0.00018789,0.00009701,0.0000704
 5,-0.00010146,0.00000674,-0.00001093,0.00000255,-0.00008280,-0.0000614
 7,0.00021931,-0.00000819,0.00000785,-0.00015121,0.00022074,0.00003973,
 -0.00026000,-0.00011371,0.00000781,-0.00001465,-0.00000271,0.00000656,
 0.00001734,0.00000241,-0.00000249,-0.00000697,0.00000580,0.00001001,0.
 00000589,0.00001168,0.00000743,0.00001751,-0.00000870,0.00000162,0.000
 00893,-0.00001949,-0.00004916,-0.00011104,-0.00007243,-0.00014102,0.00
 019658,0.00353752,-0.00023029,0.00130314,-0.00383861,-0.00032614,0.001
 18127,0.00003262,-0.00006365,-0.00001967,0.00003148,-0.00006688,0.0001
 5607,-0.00062390,0.00018135,0.00041255,-0.00346425,0.00050360,0.000370
 08,0.00788370,-0.01745362,0.00519112,0.00027169,-0.00025776,-0.0052725
 1,-0.06897888,0.08600829,-0.01423061,-0.00200042,0.00004594,-0.0009506
 4,-0.00004518,0.00014000,0.00024059,-0.00000881,0.00001362,0.00003243,
 -0.00002315,0.00001154,-0.00002588,-0.00000155,0.00001376,-0.00000906,
 -0.00003455,-0.00000580,-0.00001842,-0.00000325,0.00000734,0.00002118,
 -0.00010736,-0.00006916,-0.00023158,0.00000841,-0.00000837,0.00004388,
 0.00036964,-0.00002112,-0.00383143,-0.00059448,-0.00060584,0.00012479,
 0.00189613,0.00036196,-0.00067839,0.00187896,0.02294828,0.01225388,0.0
 6596974,0.00073276,0.00023020,-0.00037041,-0.00021761,0.00006867,-0.00
 015139,-0.00017448,0.00007948,0.00006584,0.00020405,-0.00020388,-0.000
 04141,-0.00000238,-0.00003072,0.00008787,-0.00012121,-0.00012232,-0.00
 018773,0.00009618,0.00008160,0.00008833,0.00012254,0.00007044,0.000113
 00,-0.00125721,-0.00052220,0.00082844,0.00004947,-0.00002920,0.0000323
 0,-0.00008706,0.00001192,-0.00007894,0.00002425,0.00003403,-0.00001611
 ,-0.00002722,-0.00002253,0.00000462,-0.00003679,0.00001083,-0.00001886
 ,-0.00003742,-0.00014585,-0.00001792,0.00000342,0.00009300,0.00011819,
 0.00032641,-0.00041961,0.00006522,-0.00000914,0.00035930,-0.00012748,0
 .00094467,0.00092827,-0.00136574,-0.00173324,-0.00056809,0.00080486,0.
 00004372,-0.00011787,0.00002478,0.00002366,0.00011510,0.00005118,-0.00
 002058,-0.00005656,-0.00000886,-0.00011320,-0.00006065,0.00006684,-0.0
 0000573,0.00000267,0.00001751,0.00004237,-0.00003957,0.00000163,-0.000
 00391,-0.00003732,0.00000283,-0.00092709,0.00053339,-0.00005526,0.0000
 4508,-0.00007421,-0.00000514,-0.00002749,0.00015316,0.00000503,0.00006
 304,-0.00002721,0.00002727,0.00001592,0.00000605,-0.00001404,0.0000010
 1,0.00005113,-0.00007336,-0.00000110,-0.00000130,-0.00000882,-0.000013
 85,-0.00000766,-0.00002481,0.00000341,0.00000607,-0.00001065,-0.000088
 03,-0.00012196,0.00079955,0.00019675,0.00027476,-0.00024376,-0.0006634
 2,-0.00001055,0.00029935,0.00021338,-0.00022171,-0.00015752,-0.0000334
 5,-0.00007394,0.00009508,0.00028202,0.00021951,-0.00033521,-0.00002910
 ,-0.00008275,0.00019145,-0.00032871,-0.00019375,0.00035174,0.00012986,
 -0.00002387,-0.00012762,0.00000865,-0.00005682,0.00005796,0.00000424,-
 0.00003618,-0.00004353,-0.00001845,0.00001759,0.00003827,-0.00000173,0
 .00002001,-0.00002650,0.00000738,0.00003016,0.00000590,0.00057967,-0.0
 0040200,-0.00089766,0.00055068,-0.00012205,0.00017824,-0.00829988,-0.0
 0296276,0.00507346,0.00268047,0.00117150,-0.00630637,0.00021948,0.0001
 3117,-0.00004134,0.00037662,0.00036167,0.00012967,-0.00078469,-0.00059
 029,-0.00090962,0.00333479,-0.00208096,0.00360848,-0.00463249,-0.00880
 111,-0.00715601,0.00019790,0.00411112,0.00105514,0.09480322,-0.3941707
 2,-0.10543992,0.00406231,0.00198726,-0.00066410,0.00024065,0.00032850,
 -0.00015388,-0.00004066,-0.00009363,-0.00014413,0.00016070,-0.00001994
 ,0.00017220,-0.00010237,-0.00013187,-0.00009730,-0.00014093,-0.0001714
 8,0.00019067,-0.00002169,-0.00005413,0.00002181,0.00014743,0.00003883,
 0.00020759,-0.00001267,-0.00004976,0.00006302,0.00119777,0.00415821,0.
 00104894,0.00032992,-0.00047385,0.00043704,0.00048198,0.00044162,-0.00
 019646,-0.00147416,-0.00274746,-0.00037992,-0.09145872,0.40005305,-0.0
 0057248,-0.00031391,0.00016930,0.00021764,-0.00001657,0.00018155,0.000
 33739,0.00014599,-0.00012347,-0.00028623,0.00005922,0.00002207,-0.0000
 2262,0.00000283,-0.00001935,0.00013084,0.00013747,0.00029590,-0.000051
 58,-0.00012913,-0.00017659,-0.00012553,-0.00008554,-0.00022167,0.00093
 310,0.00044572,-0.00055788,-0.00004075,0.00001317,-0.00003672,0.000054
 14,-0.00000332,0.00009205,-0.00001247,-0.00003594,0.00002168,-0.000007
 67,0.00001490,0.00000719,0.00000005,-0.00001796,0.00004125,0.00005442,
 0.00020840,0.00006328,0.00005201,0.00010773,-0.00000410,-0.00053310,-0
 .00001861,-0.00023714,0.00013993,-0.00015889,0.00031544,0.00036945,0.0
 0006184,-0.00009269,-0.00069131,0.00018084,0.00020288,-0.00024388,0.00
 004061,0.00006315,0.00012780,0.00004791,-0.00003586,-0.00001736,0.0000
 0463,-0.00002659,-0.00027155,0.00001155,-0.00000068,0.00004728,0.00001
 478,-0.00003027,0.00005537,0.00000373,-0.00003516,0.00000462,0.0000266
 8,-0.00001413,0.00081138,-0.00017331,0.00023951,-0.00002220,0.00000594
 ,-0.00006256,0.00009679,-0.00000054,0.00016751,0.00001821,0.00000536,-
 0.00002168,0.00003479,-0.00002124,0.00001116,0.00000346,-0.00004400,0.
 00002800,0.00000945,-0.00000331,0.00000800,-0.00001466,-0.00002570,0.0
 0000681,0.00001611,-0.00000293,0.00000916,-0.00018860,0.00010877,0.000
 02804,0.00005216,-0.00014363,0.00003614,0.00101818,0.00017183,-0.00045
 509,-0.00045054,-0.00027485,0.00029779,-0.00001325,0.00001140,-0.00006
 211,-0.00004193,-0.00008047,-0.00013372,0.00002395,0.00007912,0.000079
 37,-0.00000677,0.00015165,0.00006705,-0.00005703,-0.00008316,-0.000025
 36,-0.00001348,0.00004130,0.00000195,0.00000518,0.00002924,0.00001978,
 0.00001918,-0.00001674,-0.00000562,0.00000364,-0.00004517,-0.00001506,
 0.00001334,-0.00002728,-0.00003079,-0.00060552,0.00028478,0.00065033,-
 0.00017437,0.00002939,-0.00049262,0.00662591,0.00276808,-0.00339913,-0
 .00215905,-0.00297192,0.00287867,-0.00014135,0.00000285,-0.00000384,-0
 .00004438,-0.00011383,-0.00008146,0.00058750,0.00047990,-0.00088137,0.
 00189020,0.00067672,0.00065290,0.01166548,-0.03355788,-0.01036178,-0.0
 0429578,-0.00032931,-0.00368141,-0.01285590,-0.08780830,-0.05979423,-0
 .00322912,-0.00130760,-0.00051494,0.00001468,-0.00040252,-0.00028410,-
 0.00000112,0.00003358,0.00009370,-0.00009615,0.00004554,-0.00013299,0.
 00003464,0.00004106,0.00008990,0.00004990,0.00004500,0.00001584,-0.000
 02308,-0.00000350,-0.00000656,0.00011353,0.00001862,0.00027317,0.00012
 392,0.00014963,0.00028906,-0.00319579,-0.00034994,-0.00150733,-0.00002
 237,0.00064998,-0.00061250,-0.00099617,-0.00215190,0.00084553,0.002614
 42,0.01389466,0.00385271,0.00315511,0.10946650,0.07206072\\0.00004070,
 0.00003156,0.00002480,-0.00003553,-0.00000185,-0.00001305,0.00001140,0
 .00001243,0.00001180,0.00000144,-0.00001533,-0.00000343,-0.00002193,-0
 .00000935,0.00001186,0.00004143,0.00001387,0.00003704,0.00002229,0.000
 00649,-0.00002080,-0.00001362,-0.00002680,-0.00001895,-0.00001361,-0.0
 0001846,-0.00000059,0.00000510,-0.00000200,0.00000440,0.00000613,-0.00
 001481,-0.00000635,-0.00000091,0.00000314,-0.00000372,-0.00000666,-0.0
 0000701,-0.00000539,-0.00001295,-0.00000525,-0.00000089,-0.00000936,0.
 00003472,-0.00001562,0.00000047,0.00000117,-0.00000309,-0.00001336,-0.
 00000732,0.00000799,0.00000743,0.00000814,-0.00001059,0.00004051,0.000
 00166,-0.00000003,0.00000601,-0.00000300,-0.00001435,0.00000371,0.0000
 0693,-0.00000298,0.00000559,-0.00000190,0.00000206,-0.00000025,0.00000
 510,-0.00000399,0.00000176,0.00000015,0.00000052,-0.00000186,0.0000037
 0,-0.00000214,0.00000254,-0.00000259,0.00000291,0.00000065,-0.00000030
 ,-0.00000008,-0.00000014,0.00000559,-0.00000546,-0.00000010,-0.0000023
 8,-0.00000481,-0.00000452,-0.00000323,-0.00000209,0.00000087,0.0000025
 2,0.00000108,-0.00000008,0.00000060,0.00000388,0.00000105,0.00000011,0
 .00000080,0.00000026,-0.00000084,-0.00000075,0.00000037,0.00000047,-0.
 00000140,0.00000044,-0.00000041,-0.00000136,-0.00007471,-0.00001035,0.
 00003616,0.00003491,-0.00001308,0.00003257,-0.00000539,-0.00002137,-0.
 00001694,-0.00000354,0.00000601,0.00000313,-0.00000346,-0.00000418,0.0
 0000133,-0.00000508,-0.00000250,0.00000543,-0.00000045,-0.00000034,-0.
 00000207,0.00000225,0.00000238,-0.00000514,0.00000077,0.00001284,-0.00
 003094,0.00000014,0.00000233,-0.00000501,-0.00000267,-0.00000096,0.000
 00082,0.00000040,-0.00000138,0.00000064,0.00000034,-0.00000024,0.00000
 157,-0.00000174,-0.00000124,0.00000190,0.00000040,0.00001673,-0.000010
 28,0.00000303,-0.00002613,0.00001981,-0.00004584,0.00004198,0.00001545
 ,0.00001557,0.00000062,-0.00000430,0.00001636,-0.00000303,-0.00000472,
 -0.00000843,0.00000555,0.00000315,-0.00000784,-0.00002198,0.00000666,0
 .00000946,0.00002465,0.00000397,-0.00001011,0.00001257,0.00000080,0.00
 000308,-0.00002326,0.00000952,-0.00001710,0.00000308,-0.00001660,-0.00
 000992,-0.00002909,-0.00001025,0.00001479,0.00000033,-0.00000001,-0.00
 000080,-0.00000159,-0.00000352,0.00000612,0.00000185,0.00000248,-0.000
 00235,0.00000125,-0.00000084,0.00000093,-0.00000096,-0.00000116,-0.000
 00183,0.00000247,0.00000560,-0.00000142,-0.00000095,0.00000071,-0.0000
 0027,0.00000393,-0.00000321,0.00000190,0.00001358,-0.00000791,-0.00000
 012,-0.00000275,-0.00000926,0.00001128,-0.00000403,-0.00000826,-0.0000
 0029,0.00001407,0.00001057,0.00001639,-0.00001231,0.00001087\\\@
 The archive entry for this job was punched.


 A SLIP OF THE FOOT YOU MAY SOON RECOVER, BUT A SLIP OF THE TONGUE
 YOU MAY NEVER GET OVER. -- BEN FRANKLIN
 Job cpu time:       0 days  7 hours 49 minutes  1.2 seconds.
 Elapsed time:       0 days  0 hours 58 minutes 40.9 seconds.
 File lengths (MBytes):  RWF=   3960 Int=      0 D2E=      0 Chk=     48 Scr=     16
 Normal termination of Gaussian 16 at Tue May 31 21:36:16 2022.
