 Entering Gaussian System, Link 0=/opt/software/Gaussian/g16-AVX2-C.01/g16/g16
 Input=charge-conf-156.com
 Output=charge-conf-156.log
 Initial command:
 /opt/software/Gaussian/g16-AVX2-C.01/g16/l1.exe "/mnt/gs18/scratch/users/kengmith/Gau-20729.inp" -scrdir="/mnt/gs18/scratch/users/kengmith/"
 Entering Link 1 = /opt/software/Gaussian/g16-AVX2-C.01/g16/l1.exe PID=     20739.
  
 Copyright (c) 1988-2019, Gaussian, Inc.  All Rights Reserved.
  
 This is part of the Gaussian(R) 16 program.  It is based on
 the Gaussian(R) 09 system (copyright 2009, Gaussian, Inc.),
 the Gaussian(R) 03 system (copyright 2003, Gaussian, Inc.),
 the Gaussian(R) 98 system (copyright 1998, Gaussian, Inc.),
 the Gaussian(R) 94 system (copyright 1995, Gaussian, Inc.),
 the Gaussian 92(TM) system (copyright 1992, Gaussian, Inc.),
 the Gaussian 90(TM) system (copyright 1990, Gaussian, Inc.),
 the Gaussian 88(TM) system (copyright 1988, Gaussian, Inc.),
 the Gaussian 86(TM) system (copyright 1986, Carnegie Mellon
 University), and the Gaussian 82(TM) system (copyright 1983,
 Carnegie Mellon University). Gaussian is a federally registered
 trademark of Gaussian, Inc.
  
 This software contains proprietary and confidential information,
 including trade secrets, belonging to Gaussian, Inc.
  
 This software is provided under written license and may be
 used, copied, transmitted, or stored only in accord with that
 written license.
  
 The following legend is applicable only to US Government
 contracts under FAR:
  
                    RESTRICTED RIGHTS LEGEND
  
 Use, reproduction and disclosure by the US Government is
 subject to restrictions as set forth in subparagraphs (a)
 and (c) of the Commercial Computer Software - Restricted
 Rights clause in FAR 52.227-19.
  
 Gaussian, Inc.
 340 Quinnipiac St., Bldg. 40, Wallingford CT 06492
  
  
 ---------------------------------------------------------------
 Warning -- This program may not be used in any manner that
 competes with the business of Gaussian, Inc. or will provide
 assistance to any competitor of Gaussian, Inc.  The licensee
 of this program is prohibited from giving any competitor of
 Gaussian, Inc. access to this program.  By using this program,
 the user acknowledges that Gaussian, Inc. is engaged in the
 business of creating and licensing software in the field of
 computational chemistry and represents and warrants to the
 licensee that it is not a competitor of Gaussian, Inc. and that
 it will not use this program in any manner prohibited above.
 ---------------------------------------------------------------
  

 Cite this work as:
 Gaussian 16, Revision C.01,
 M. J. Frisch, G. W. Trucks, H. B. Schlegel, G. E. Scuseria, 
 M. A. Robb, J. R. Cheeseman, G. Scalmani, V. Barone, 
 G. A. Petersson, H. Nakatsuji, X. Li, M. Caricato, A. V. Marenich, 
 J. Bloino, B. G. Janesko, R. Gomperts, B. Mennucci, H. P. Hratchian, 
 J. V. Ortiz, A. F. Izmaylov, J. L. Sonnenberg, D. Williams-Young, 
 F. Ding, F. Lipparini, F. Egidi, J. Goings, B. Peng, A. Petrone, 
 T. Henderson, D. Ranasinghe, V. G. Zakrzewski, J. Gao, N. Rega, 
 G. Zheng, W. Liang, M. Hada, M. Ehara, K. Toyota, R. Fukuda, 
 J. Hasegawa, M. Ishida, T. Nakajima, Y. Honda, O. Kitao, H. Nakai, 
 T. Vreven, K. Throssell, J. A. Montgomery, Jr., J. E. Peralta, 
 F. Ogliaro, M. J. Bearpark, J. J. Heyd, E. N. Brothers, K. N. Kudin, 
 V. N. Staroverov, T. A. Keith, R. Kobayashi, J. Normand, 
 K. Raghavachari, A. P. Rendell, J. C. Burant, S. S. Iyengar, 
 J. Tomasi, M. Cossi, J. M. Millam, M. Klene, C. Adamo, R. Cammi, 
 J. W. Ochterski, R. L. Martin, K. Morokuma, O. Farkas, 
 J. B. Foresman, and D. J. Fox, Gaussian, Inc., Wallingford CT, 2019.
 
 ******************************************
 Gaussian 16:  ES64L-G16RevC.01  3-Jul-2019
                24-May-2022 
 ******************************************
 %mem=8gb
 %nproc=4
 Will use up to    4 processors via shared memory.
 %chk=conf-156.chk
 ----------------------------------------------------------------------
 # B3LYP/6-31G* empiricaldispersion=gd3 guess=read geom=check nosymm in
 tegral(ultrafinegrid)
 ----------------------------------------------------------------------
 1/29=2,38=1,172=1/1;
 2/12=2,15=1,40=1/2;
 3/5=1,6=6,7=1,11=2,14=-4,25=1,30=1,74=-5,75=-5,116=-2,124=31/1,2,3;
 4/5=1/1;
 5/5=2,38=6/2;
 6/7=2,8=2,9=2,10=2,28=1/1;
 99/5=1,9=1/99;
 ------------------------------------------------------
 Candidate Structure: Conf:156 Charge calc in gas phase
 ------------------------------------------------------
 Structure from the checkpoint file:  "conf-156.chk"
 Charge =  1 Multiplicity = 1
 Redundant internal coordinates found in file.  (old form).
 N,0,11.0338739919,17.5373723242,10.5050169493
 C,0,10.9305003015,16.1759807592,11.155670777
 C,0,12.3639688633,15.6089444519,11.0900489869
 O,0,12.8140518784,15.3172211198,9.9896501992
 C,0,9.972013715,15.2232362932,10.4221430925
 C,0,8.631229698,15.8303232551,9.9375491247
 C,0,8.0025417477,16.7607773233,10.9604745244
 O,0,8.2550548554,17.9470287129,10.997926969
 O,0,7.2082924403,16.2258416045,11.9117050313
 H,0,7.0320877183,15.2837687427,11.7476215066
 H,0,10.1201319389,18.0265467837,10.580477223
 H,0,10.5719712363,16.4173529963,12.1568678342
 H,0,9.7802184843,14.3963506492,11.1159041006
 H,0,10.4862485094,14.7976925179,9.5558585739
 H,0,8.7911967416,16.4294225577,9.0366667837
 H,0,7.9556796216,15.0142221626,9.6583404094
 H,0,11.7533311647,18.0576088679,11.0488025523
 H,0,11.3453474194,17.4537417648,9.531554741
 N,0,13.0574020062,15.4336479217,12.2483953795
 C,0,12.8724833696,16.146002209,13.5079811558
 C,0,13.3589167169,17.6109376141,13.3472533391
 O,0,13.0917160429,18.2387458767,12.3127651872
 C,0,13.4719210048,15.3372363291,14.6687218432
 C,0,12.9381505846,13.8935622184,14.7839351844
 C,0,13.5916045519,13.1992243545,15.9871397249
 C,0,11.4071151153,13.8509188197,14.8880950861
 H,0,13.9972070878,15.0859854758,12.0747193552
 H,0,11.8006057804,16.2685887862,13.6921716113
 H,0,13.2406772013,15.8578104173,15.6083520597
 H,0,14.5674638191,15.3090883246,14.5741497483
 H,0,13.2324479992,13.3526257406,13.8747195599
 H,0,13.3076306025,13.6902333458,16.9265395869
 H,0,13.2753934684,12.1530212808,16.0503146855
 H,0,14.6852556759,13.2145323296,15.9160708829
 H,0,10.9200816609,14.2241367353,13.9786981511
 H,0,11.062829249,12.8232204958,15.0424210919
 H,0,11.0504959527,14.4514823373,15.7348495262
 N,0,13.9777383901,18.1731879403,14.4057270581
 C,0,14.4141992915,19.5822283584,14.48571928
 C,0,15.0242375253,19.8387700842,15.8713211838
 O,0,16.0130538498,20.4979553971,16.0308345033
 C,0,13.2675666053,20.5869889349,14.2094364823
 C,0,11.9994216689,20.3726455594,15.0558299673
 C,0,10.7330898098,20.9810420954,14.3945994913
 N,0,9.5134673474,20.2113863195,14.5901060091
 C,0,9.3441219708,18.9665958305,14.018265224
 N,0,10.2010180452,18.3629425496,13.2486695038
 N,0,8.1506205562,18.35128593,14.345515129
 O,0,14.3626313812,19.2900206242,16.9299294902
 H,0,13.4947016556,18.9450209194,16.6598117823
 H,0,14.3266548914,17.5480460051,15.1201593824
 H,0,15.2145357533,19.7583111949,13.7622780372
 H,0,13.0222772531,20.5023542982,13.1479430612
 H,0,13.6787037621,21.591016843,14.3617954758
 H,0,11.8188806048,19.2968594468,15.1704007271
 H,0,12.1295983149,20.7828188821,16.0638799179
 H,0,10.8917124113,21.0763028313,13.3128884035
 H,0,10.5472353619,21.9926908345,14.7638923871
 H,0,8.9650119677,20.4095659065,15.416336768
 H,0,11.0619492468,18.8962881413,13.1842715924
 H,0,7.9361099761,17.5649910538,13.7432549135
 H,0,7.3560008844,18.9734787901,14.4389541412
 Recover connectivity data from disk.
                           ----------------------------
                           !    Current Parameters    !
                           ! (Angstroms and Degrees)  !
 --------------------------                            --------------------------
 ! Name  Definition              Value                                          !
 --------------------------------------------------------------------------------
 ! R1    R(1,2)                  1.5124                                         !
 ! R2    R(1,11)                 1.0392                                         !
 ! R3    R(1,17)                 1.0411                                         !
 ! R4    R(1,18)                 1.0255                                         !
 ! R5    R(2,3)                  1.5429                                         !
 ! R6    R(2,5)                  1.5377                                         !
 ! R7    R(2,12)                 1.0905                                         !
 ! R8    R(3,4)                  1.2242                                         !
 ! R9    R(3,19)                 1.3614                                         !
 ! R10   R(5,6)                  1.5495                                         !
 ! R11   R(5,13)                 1.0963                                         !
 ! R12   R(5,14)                 1.0936                                         !
 ! R13   R(6,7)                  1.519                                          !
 ! R14   R(6,15)                 1.0937                                         !
 ! R15   R(6,16)                 1.0956                                         !
 ! R16   R(7,8)                  1.2134                                         !
 ! R17   R(7,9)                  1.3498                                         !
 ! R18   R(9,10)                 0.9724                                         !
 ! R19   R(19,20)                1.4588                                         !
 ! R20   R(19,27)                1.017                                          !
 ! R21   R(20,21)                1.5519                                         !
 ! R22   R(20,23)                1.5365                                         !
 ! R23   R(20,28)                1.0945                                         !
 ! R24   R(21,22)                1.2392                                         !
 ! R25   R(21,38)                1.3489                                         !
 ! R26   R(23,24)                1.5435                                         !
 ! R27   R(23,29)                1.0988                                         !
 ! R28   R(23,30)                1.1                                            !
 ! R29   R(24,25)                1.5352                                         !
 ! R30   R(24,26)                1.5352                                         !
 ! R31   R(24,31)                1.0981                                         !
 ! R32   R(25,32)                1.0974                                         !
 ! R33   R(25,33)                1.0948                                         !
 ! R34   R(25,34)                1.0961                                         !
 ! R35   R(26,35)                1.097                                          !
 ! R36   R(26,36)                1.0948                                         !
 ! R37   R(26,37)                1.0977                                         !
 ! R38   R(38,39)                1.4773                                         !
 ! R39   R(38,51)                1.0114                                         !
 ! R40   R(39,40)                1.5355                                         !
 ! R41   R(39,42)                1.5494                                         !
 ! R42   R(39,52)                1.0931                                         !
 ! R43   R(40,41)                1.1991                                         !
 ! R44   R(40,49)                1.3636                                         !
 ! R45   R(42,43)                1.5396                                         !
 ! R46   R(42,53)                1.0927                                         !
 ! R47   R(42,54)                1.0956                                         !
 ! R48   R(43,44)                1.5527                                         !
 ! R49   R(43,55)                1.0968                                         !
 ! R50   R(43,56)                1.0961                                         !
 ! R51   R(44,45)                1.4554                                         !
 ! R52   R(44,57)                1.0974                                         !
 ! R53   R(44,58)                1.0929                                         !
 ! R54   R(45,46)                1.3803                                         !
 ! R55   R(45,59)                1.0113                                         !
 ! R56   R(46,47)                1.3004                                         !
 ! R57   R(46,48)                1.3821                                         !
 ! R58   R(47,60)                1.0148                                         !
 ! R59   R(48,61)                1.0134                                         !
 ! R60   R(48,62)                1.0135                                         !
 ! R61   R(49,50)                0.9723                                         !
 ! A1    A(2,1,11)             109.4134                                         !
 ! A2    A(2,1,17)             105.8022                                         !
 ! A3    A(2,1,18)             110.8382                                         !
 ! A4    A(11,1,17)            109.5404                                         !
 ! A5    A(11,1,18)            111.9863                                         !
 ! A6    A(17,1,18)            109.0663                                         !
 ! A7    A(1,2,3)              104.4188                                         !
 ! A8    A(1,2,5)              113.2725                                         !
 ! A9    A(1,2,12)             102.6039                                         !
 ! A10   A(3,2,5)              109.3363                                         !
 ! A11   A(3,2,12)             115.2037                                         !
 ! A12   A(5,2,12)             111.7263                                         !
 ! A13   A(2,3,4)              117.8651                                         !
 ! A14   A(2,3,19)             118.9703                                         !
 ! A15   A(4,3,19)             123.1536                                         !
 ! A16   A(2,5,6)              116.4738                                         !
 ! A17   A(2,5,13)             105.9328                                         !
 ! A18   A(2,5,14)             109.0183                                         !
 ! A19   A(6,5,13)             110.001                                          !
 ! A20   A(6,5,14)             108.1553                                         !
 ! A21   A(13,5,14)            106.8612                                         !
 ! A22   A(5,6,7)              112.7994                                         !
 ! A23   A(5,6,15)             110.2222                                         !
 ! A24   A(5,6,16)             108.7472                                         !
 ! A25   A(7,6,15)             106.2427                                         !
 ! A26   A(7,6,16)             111.8818                                         !
 ! A27   A(15,6,16)            106.7567                                         !
 ! A28   A(6,7,8)              122.2415                                         !
 ! A29   A(6,7,9)              118.3834                                         !
 ! A30   A(8,7,9)              119.2194                                         !
 ! A31   A(7,9,10)             111.8198                                         !
 ! A32   A(3,19,20)            127.3881                                         !
 ! A33   A(3,19,27)            111.6797                                         !
 ! A34   A(20,19,27)           115.5638                                         !
 ! A35   A(19,20,21)           109.3768                                         !
 ! A36   A(19,20,23)           110.2301                                         !
 ! A37   A(19,20,28)           108.9134                                         !
 ! A38   A(21,20,23)           116.9253                                         !
 ! A39   A(21,20,28)           102.6309                                         !
 ! A40   A(23,20,28)           108.2947                                         !
 ! A41   A(20,21,22)           119.8072                                         !
 ! A42   A(20,21,38)           117.1289                                         !
 ! A43   A(22,21,38)           122.8753                                         !
 ! A44   A(20,23,24)           114.4444                                         !
 ! A45   A(20,23,29)           108.3329                                         !
 ! A46   A(20,23,30)           109.6993                                         !
 ! A47   A(24,23,29)           107.8493                                         !
 ! A48   A(24,23,30)           109.0812                                         !
 ! A49   A(29,23,30)           107.1723                                         !
 ! A50   A(23,24,25)           109.5321                                         !
 ! A51   A(23,24,26)           112.0821                                         !
 ! A52   A(23,24,31)           107.8338                                         !
 ! A53   A(25,24,26)           111.0243                                         !
 ! A54   A(25,24,31)           108.1829                                         !
 ! A55   A(26,24,31)           108.0454                                         !
 ! A56   A(24,25,32)           111.0026                                         !
 ! A57   A(24,25,33)           110.7628                                         !
 ! A58   A(24,25,34)           111.5663                                         !
 ! A59   A(32,25,33)           107.665                                          !
 ! A60   A(32,25,34)           107.9066                                         !
 ! A61   A(33,25,34)           107.7756                                         !
 ! A62   A(24,26,35)           112.1519                                         !
 ! A63   A(24,26,36)           110.4431                                         !
 ! A64   A(24,26,37)           111.1714                                         !
 ! A65   A(35,26,36)           107.2537                                         !
 ! A66   A(35,26,37)           108.005                                          !
 ! A67   A(36,26,37)           107.6196                                         !
 ! A68   A(21,38,39)           125.1432                                         !
 ! A69   A(21,38,51)           117.0602                                         !
 ! A70   A(39,38,51)           116.7033                                         !
 ! A71   A(38,39,40)           109.0017                                         !
 ! A72   A(38,39,42)           112.9689                                         !
 ! A73   A(38,39,52)           109.5194                                         !
 ! A74   A(40,39,42)           110.2777                                         !
 ! A75   A(40,39,52)           106.2249                                         !
 ! A76   A(42,39,52)           108.6243                                         !
 ! A77   A(39,40,41)           122.6507                                         !
 ! A78   A(39,40,49)           116.1377                                         !
 ! A79   A(41,40,49)           121.2025                                         !
 ! A80   A(39,42,43)           114.9131                                         !
 ! A81   A(39,42,53)           106.8046                                         !
 ! A82   A(39,42,54)           106.9642                                         !
 ! A83   A(43,42,53)           109.7757                                         !
 ! A84   A(43,42,54)           111.1139                                         !
 ! A85   A(53,42,54)           106.8761                                         !
 ! A86   A(42,43,44)           112.5249                                         !
 ! A87   A(42,43,55)           109.2411                                         !
 ! A88   A(42,43,56)           110.8343                                         !
 ! A89   A(44,43,55)           107.1304                                         !
 ! A90   A(44,43,56)           109.9918                                         !
 ! A91   A(55,43,56)           106.8894                                         !
 ! A92   A(43,44,45)           114.7734                                         !
 ! A93   A(43,44,57)           109.6264                                         !
 ! A94   A(43,44,58)           110.9467                                         !
 ! A95   A(45,44,57)           107.4244                                         !
 ! A96   A(45,44,58)           107.5557                                         !
 ! A97   A(57,44,58)           106.0993                                         !
 ! A98   A(44,45,46)           121.6071                                         !
 ! A99   A(44,45,59)           117.4256                                         !
 ! A100  A(46,45,59)           116.6581                                         !
 ! A101  A(45,46,47)           125.6613                                         !
 ! A102  A(45,46,48)           114.1643                                         !
 ! A103  A(47,46,48)           120.1665                                         !
 ! A104  A(46,47,60)           110.6484                                         !
 ! A105  A(46,48,61)           112.7994                                         !
 ! A106  A(46,48,62)           115.1857                                         !
 ! A107  A(61,48,62)           111.4162                                         !
 ! A108  A(40,49,50)           111.1144                                         !
 ! D1    D(11,1,2,3)          -175.1868                                         !
 ! D2    D(11,1,2,5)            65.9485                                         !
 ! D3    D(11,1,2,12)          -54.6539                                         !
 ! D4    D(17,1,2,3)           -57.2626                                         !
 ! D5    D(17,1,2,5)          -176.1272                                         !
 ! D6    D(17,1,2,12)           63.2703                                         !
 ! D7    D(18,1,2,3)            60.8351                                         !
 ! D8    D(18,1,2,5)           -58.0296                                         !
 ! D9    D(18,1,2,12)         -178.6321                                         !
 ! D10   D(1,2,3,4)            -68.5058                                         !
 ! D11   D(1,2,3,19)           112.6668                                         !
 ! D12   D(5,2,3,4)             52.9985                                         !
 ! D13   D(5,2,3,19)          -125.829                                          !
 ! D14   D(12,2,3,4)           179.7776                                         !
 ! D15   D(12,2,3,19)            0.9501                                         !
 ! D16   D(1,2,5,6)            -42.7137                                         !
 ! D17   D(1,2,5,13)          -165.366                                          !
 ! D18   D(1,2,5,14)            79.9598                                         !
 ! D19   D(3,2,5,6)           -158.7021                                         !
 ! D20   D(3,2,5,13)            78.6455                                         !
 ! D21   D(3,2,5,14)           -36.0287                                         !
 ! D22   D(12,2,5,6)            72.5691                                         !
 ! D23   D(12,2,5,13)          -50.0832                                         !
 ! D24   D(12,2,5,14)         -164.7574                                         !
 ! D25   D(2,3,19,20)          -25.3773                                         !
 ! D26   D(2,3,19,27)         -178.0317                                         !
 ! D27   D(4,3,19,20)          155.8608                                         !
 ! D28   D(4,3,19,27)            3.2064                                         !
 ! D29   D(2,5,6,7)            -41.7617                                         !
 ! D30   D(2,5,6,15)            76.8054                                         !
 ! D31   D(2,5,6,16)          -166.4839                                         !
 ! D32   D(13,5,6,7)            78.7438                                         !
 ! D33   D(13,5,6,15)         -162.689                                          !
 ! D34   D(13,5,6,16)          -45.9783                                         !
 ! D35   D(14,5,6,7)          -164.8838                                         !
 ! D36   D(14,5,6,15)          -46.3167                                         !
 ! D37   D(14,5,6,16)           70.394                                          !
 ! D38   D(5,6,7,8)             89.0128                                         !
 ! D39   D(5,6,7,9)            -86.415                                          !
 ! D40   D(15,6,7,8)           -31.8517                                         !
 ! D41   D(15,6,7,9)           152.7205                                         !
 ! D42   D(16,6,7,8)          -147.995                                          !
 ! D43   D(16,6,7,9)            36.5772                                         !
 ! D44   D(6,7,9,10)            -8.0069                                         !
 ! D45   D(8,7,9,10)           176.4238                                         !
 ! D46   D(3,19,20,21)         -70.3967                                         !
 ! D47   D(3,19,20,23)         159.723                                          !
 ! D48   D(3,19,20,28)          41.0438                                         !
 ! D49   D(27,19,20,21)         81.3621                                         !
 ! D50   D(27,19,20,23)        -48.5183                                         !
 ! D51   D(27,19,20,28)       -167.1975                                         !
 ! D52   D(19,20,21,22)         41.7197                                         !
 ! D53   D(19,20,21,38)       -143.1277                                         !
 ! D54   D(23,20,21,22)        167.8585                                         !
 ! D55   D(23,20,21,38)        -16.9889                                         !
 ! D56   D(28,20,21,22)        -73.8073                                         !
 ! D57   D(28,20,21,38)        101.3453                                         !
 ! D58   D(19,20,23,24)        -54.8706                                         !
 ! D59   D(19,20,23,29)       -175.2229                                         !
 ! D60   D(19,20,23,30)         68.0972                                         !
 ! D61   D(21,20,23,24)        179.4147                                         !
 ! D62   D(21,20,23,29)         59.0623                                         !
 ! D63   D(21,20,23,30)        -57.6176                                         !
 ! D64   D(28,20,23,24)         64.1864                                         !
 ! D65   D(28,20,23,29)        -56.1659                                         !
 ! D66   D(28,20,23,30)       -172.8459                                         !
 ! D67   D(20,21,38,39)       -174.9002                                         !
 ! D68   D(20,21,38,51)         17.4912                                         !
 ! D69   D(22,21,38,39)          0.0912                                         !
 ! D70   D(22,21,38,51)       -167.5174                                         !
 ! D71   D(20,23,24,25)       -179.1123                                         !
 ! D72   D(20,23,24,26)        -55.4206                                         !
 ! D73   D(20,23,24,31)         63.3749                                         !
 ! D74   D(29,23,24,25)        -58.4916                                         !
 ! D75   D(29,23,24,26)         65.2001                                         !
 ! D76   D(29,23,24,31)       -176.0045                                         !
 ! D77   D(30,23,24,25)         57.5867                                         !
 ! D78   D(30,23,24,26)       -178.7216                                         !
 ! D79   D(30,23,24,31)        -59.9262                                         !
 ! D80   D(23,24,25,32)         64.0543                                         !
 ! D81   D(23,24,25,33)       -176.3964                                         !
 ! D82   D(23,24,25,34)        -56.3355                                         !
 ! D83   D(26,24,25,32)        -60.2568                                         !
 ! D84   D(26,24,25,33)         59.2925                                         !
 ! D85   D(26,24,25,34)        179.3533                                         !
 ! D86   D(31,24,25,32)       -178.6517                                         !
 ! D87   D(31,24,25,33)        -59.1024                                         !
 ! D88   D(31,24,25,34)         60.9584                                         !
 ! D89   D(23,24,26,35)         64.5874                                         !
 ! D90   D(23,24,26,36)       -175.8405                                         !
 ! D91   D(23,24,26,37)        -56.4479                                         !
 ! D92   D(25,24,26,35)       -172.5611                                         !
 ! D93   D(25,24,26,36)        -52.9891                                         !
 ! D94   D(25,24,26,37)         66.4036                                         !
 ! D95   D(31,24,26,35)        -54.0831                                         !
 ! D96   D(31,24,26,36)         65.489                                          !
 ! D97   D(31,24,26,37)       -175.1184                                         !
 ! D98   D(21,38,39,40)        177.7817                                         !
 ! D99   D(21,38,39,42)         54.8213                                         !
 ! D100  D(21,38,39,52)        -66.3944                                         !
 ! D101  D(51,38,39,40)        -14.57                                           !
 ! D102  D(51,38,39,42)       -137.5304                                         !
 ! D103  D(51,38,39,52)        101.2539                                         !
 ! D104  D(38,39,40,41)        138.8616                                         !
 ! D105  D(38,39,40,49)        -42.2231                                         !
 ! D106  D(42,39,40,41)        -96.5818                                         !
 ! D107  D(42,39,40,49)         82.3335                                         !
 ! D108  D(52,39,40,41)         20.9409                                         !
 ! D109  D(52,39,40,49)       -160.1438                                         !
 ! D110  D(38,39,42,43)         52.291                                          !
 ! D111  D(38,39,42,53)        -69.712                                          !
 ! D112  D(38,39,42,54)        176.135                                          !
 ! D113  D(40,39,42,43)        -69.9575                                         !
 ! D114  D(40,39,42,53)        168.0395                                         !
 ! D115  D(40,39,42,54)         53.8865                                         !
 ! D116  D(52,39,42,43)        174.0123                                         !
 ! D117  D(52,39,42,53)         52.0093                                         !
 ! D118  D(52,39,42,54)        -62.1437                                         !
 ! D119  D(39,40,49,50)        -10.5443                                         !
 ! D120  D(41,40,49,50)        168.3879                                         !
 ! D121  D(39,42,43,44)       -157.1831                                         !
 ! D122  D(39,42,43,55)        -38.3347                                         !
 ! D123  D(39,42,43,56)         79.1861                                         !
 ! D124  D(53,42,43,44)        -36.8024                                         !
 ! D125  D(53,42,43,55)         82.046                                          !
 ! D126  D(53,42,43,56)       -160.4332                                         !
 ! D127  D(54,42,43,44)         81.2016                                         !
 ! D128  D(54,42,43,55)       -159.95                                           !
 ! D129  D(54,42,43,56)        -42.4292                                         !
 ! D130  D(42,43,44,45)        143.845                                          !
 ! D131  D(42,43,44,57)         22.8668                                         !
 ! D132  D(42,43,44,58)        -93.989                                          !
 ! D133  D(55,43,44,45)         23.769                                          !
 ! D134  D(55,43,44,57)        -97.2092                                         !
 ! D135  D(55,43,44,58)        145.935                                          !
 ! D136  D(56,43,44,45)        -92.057                                          !
 ! D137  D(56,43,44,57)        146.9648                                         !
 ! D138  D(56,43,44,58)         30.109                                          !
 ! D139  D(43,44,45,46)        -67.4549                                         !
 ! D140  D(43,44,45,59)         88.4468                                         !
 ! D141  D(57,44,45,46)         54.7238                                         !
 ! D142  D(57,44,45,59)       -149.3745                                         !
 ! D143  D(58,44,45,46)        168.5603                                         !
 ! D144  D(58,44,45,59)        -35.5379                                         !
 ! D145  D(44,45,46,47)         -1.3126                                         !
 ! D146  D(44,45,46,48)        177.6639                                         !
 ! D147  D(59,45,46,47)       -157.3889                                         !
 ! D148  D(59,45,46,48)         21.5876                                         !
 ! D149  D(45,46,47,60)          5.0312                                         !
 ! D150  D(48,46,47,60)       -173.8887                                         !
 ! D151  D(45,46,48,61)        165.2262                                         !
 ! D152  D(45,46,48,62)         35.7787                                         !
 ! D153  D(47,46,48,61)        -15.7357                                         !
 ! D154  D(47,46,48,62)       -145.1832                                         !
 --------------------------------------------------------------------------------
 Symmetry turned off by external request.
 Stoichiometry    C17H33N6O6(1+)
 Framework group  C1[X(C17H33N6O6)]
 Deg. of freedom   180
 Full point group                 C1      NOp   1
                          Input orientation:                          
 ---------------------------------------------------------------------
 Center     Atomic      Atomic             Coordinates (Angstroms)
 Number     Number       Type             X           Y           Z
 ---------------------------------------------------------------------
      1          7           0       11.033874   17.537372   10.505017
      2          6           0       10.930500   16.175981   11.155671
      3          6           0       12.363969   15.608944   11.090049
      4          8           0       12.814052   15.317221    9.989650
      5          6           0        9.972014   15.223236   10.422143
      6          6           0        8.631230   15.830323    9.937549
      7          6           0        8.002542   16.760777   10.960475
      8          8           0        8.255055   17.947029   10.997927
      9          8           0        7.208292   16.225842   11.911705
     10          1           0        7.032088   15.283769   11.747622
     11          1           0       10.120132   18.026547   10.580477
     12          1           0       10.571971   16.417353   12.156868
     13          1           0        9.780218   14.396351   11.115904
     14          1           0       10.486249   14.797693    9.555859
     15          1           0        8.791197   16.429423    9.036667
     16          1           0        7.955680   15.014222    9.658340
     17          1           0       11.753331   18.057609   11.048803
     18          1           0       11.345347   17.453742    9.531555
     19          7           0       13.057402   15.433648   12.248395
     20          6           0       12.872483   16.146002   13.507981
     21          6           0       13.358917   17.610938   13.347253
     22          8           0       13.091716   18.238746   12.312765
     23          6           0       13.471921   15.337236   14.668722
     24          6           0       12.938151   13.893562   14.783935
     25          6           0       13.591605   13.199224   15.987140
     26          6           0       11.407115   13.850919   14.888095
     27          1           0       13.997207   15.085985   12.074719
     28          1           0       11.800606   16.268589   13.692172
     29          1           0       13.240677   15.857810   15.608352
     30          1           0       14.567464   15.309088   14.574150
     31          1           0       13.232448   13.352626   13.874720
     32          1           0       13.307631   13.690233   16.926540
     33          1           0       13.275393   12.153021   16.050315
     34          1           0       14.685256   13.214532   15.916071
     35          1           0       10.920082   14.224137   13.978698
     36          1           0       11.062829   12.823220   15.042421
     37          1           0       11.050496   14.451482   15.734850
     38          7           0       13.977738   18.173188   14.405727
     39          6           0       14.414199   19.582228   14.485719
     40          6           0       15.024238   19.838770   15.871321
     41          8           0       16.013054   20.497955   16.030835
     42          6           0       13.267567   20.586989   14.209436
     43          6           0       11.999422   20.372646   15.055830
     44          6           0       10.733090   20.981042   14.394599
     45          7           0        9.513467   20.211386   14.590106
     46          6           0        9.344122   18.966596   14.018265
     47          7           0       10.201018   18.362943   13.248670
     48          7           0        8.150621   18.351286   14.345515
     49          8           0       14.362631   19.290021   16.929929
     50          1           0       13.494702   18.945021   16.659812
     51          1           0       14.326655   17.548046   15.120159
     52          1           0       15.214536   19.758311   13.762278
     53          1           0       13.022277   20.502354   13.147943
     54          1           0       13.678704   21.591017   14.361795
     55          1           0       11.818881   19.296859   15.170401
     56          1           0       12.129598   20.782819   16.063880
     57          1           0       10.891712   21.076303   13.312888
     58          1           0       10.547235   21.992691   14.763892
     59          1           0        8.965012   20.409566   15.416337
     60          1           0       11.061949   18.896288   13.184272
     61          1           0        7.936110   17.564991   13.743255
     62          1           0        7.356001   18.973479   14.438954
 ---------------------------------------------------------------------
 Rotational constants (GHZ):           0.1864639           0.1207944           0.0957988
 Standard basis: 6-31G(d) (6D, 7F)
   501 basis functions,   944 primitive gaussians,   501 cartesian basis functions
   112 alpha electrons      112 beta electrons
       nuclear repulsion energy      3211.7468623778 Hartrees.
 NAtoms=   62 NActive=   62 NUniq=   62 SFac= 1.00D+00 NAtFMM=   60 NAOKFM=T Big=T
 Integral buffers will be    131072 words long.
 Raffenetti 2 integral format.
 Two-electron integral symmetry is turned off.
 Nuclear repulsion after empirical dispersion term =     3211.6585478104 Hartrees.
 One-electron integrals computed using PRISM.
 NBasis=   501 RedAO= T EigKep=  1.56D-03  NBF=   501
 NBsUse=   501 1.00D-06 EigRej= -1.00D+00 NBFU=   501
 Initial guess from the checkpoint file:  "conf-156.chk"
 B after Tr=     0.000000    0.000000    0.000000
         Rot=    1.000000    0.000000    0.000000    0.000000 Ang=   0.00 deg.
 Requested convergence on RMS density matrix=1.00D-08 within 128 cycles.
 Requested convergence on MAX density matrix=1.00D-06.
 Requested convergence on             energy=1.00D-06.
 No special actions if energy rises.
 SCF Done:  E(RB3LYP) =  -1447.46201752     A.U. after    3 cycles
            NFock=  3  Conv=0.99D-09     -V/T= 2.0093

 **********************************************************************

            Population analysis using the SCF Density.

 **********************************************************************

 Alpha  occ. eigenvalues --  -19.33434 -19.30014 -19.27406 -19.26523 -19.24774
 Alpha  occ. eigenvalues --  -19.23757 -14.56830 -14.50584 -14.49348 -14.45869
 Alpha  occ. eigenvalues --  -14.44016 -14.39303 -10.45781 -10.43230 -10.42369
 Alpha  occ. eigenvalues --  -10.42292 -10.39118 -10.38264 -10.36887 -10.35992
 Alpha  occ. eigenvalues --  -10.34423 -10.34175 -10.33214 -10.31517 -10.30550
 Alpha  occ. eigenvalues --  -10.30139 -10.30006 -10.27936 -10.26852  -1.23848
 Alpha  occ. eigenvalues --   -1.20358  -1.18166  -1.16983  -1.15606  -1.12335
 Alpha  occ. eigenvalues --   -1.11663  -1.08314  -1.06563  -1.05877  -0.99158
 Alpha  occ. eigenvalues --   -0.94628  -0.94385  -0.93113  -0.91379  -0.87539
 Alpha  occ. eigenvalues --   -0.86902  -0.84720  -0.79143  -0.78599  -0.78471
 Alpha  occ. eigenvalues --   -0.77115  -0.75274  -0.73691  -0.73016  -0.72284
 Alpha  occ. eigenvalues --   -0.71339  -0.70399  -0.69422  -0.68703  -0.68349
 Alpha  occ. eigenvalues --   -0.66721  -0.65764  -0.65385  -0.63304  -0.62320
 Alpha  occ. eigenvalues --   -0.61930  -0.61201  -0.60866  -0.60343  -0.59787
 Alpha  occ. eigenvalues --   -0.58784  -0.57947  -0.57700  -0.57413  -0.56304
 Alpha  occ. eigenvalues --   -0.55804  -0.55372  -0.54544  -0.54134  -0.53768
 Alpha  occ. eigenvalues --   -0.53416  -0.52994  -0.52799  -0.52536  -0.51930
 Alpha  occ. eigenvalues --   -0.51404  -0.51001  -0.50496  -0.50319  -0.49775
 Alpha  occ. eigenvalues --   -0.49232  -0.48486  -0.48144  -0.47721  -0.47232
 Alpha  occ. eigenvalues --   -0.46732  -0.45926  -0.45252  -0.45116  -0.44364
 Alpha  occ. eigenvalues --   -0.43465  -0.43262  -0.41857  -0.41218  -0.40794
 Alpha  occ. eigenvalues --   -0.40079  -0.39054  -0.38339  -0.37631  -0.36900
 Alpha  occ. eigenvalues --   -0.35600  -0.33410
 Alpha virt. eigenvalues --   -0.13782  -0.13141  -0.11503  -0.09686  -0.08299
 Alpha virt. eigenvalues --   -0.06473  -0.05941  -0.04837  -0.03475  -0.03069
 Alpha virt. eigenvalues --   -0.02428  -0.01266  -0.00589  -0.00159   0.00154
 Alpha virt. eigenvalues --    0.00603   0.01041   0.01173   0.01700   0.01923
 Alpha virt. eigenvalues --    0.02942   0.03109   0.03582   0.03625   0.04277
 Alpha virt. eigenvalues --    0.04465   0.04990   0.05620   0.05638   0.06229
 Alpha virt. eigenvalues --    0.06515   0.07112   0.07389   0.07587   0.07676
 Alpha virt. eigenvalues --    0.08287   0.08341   0.09004   0.09457   0.09650
 Alpha virt. eigenvalues --    0.10265   0.10474   0.10977   0.11915   0.12194
 Alpha virt. eigenvalues --    0.13109   0.13523   0.13959   0.14322   0.14929
 Alpha virt. eigenvalues --    0.15236   0.15640   0.16854   0.17858   0.19012
 Alpha virt. eigenvalues --    0.20403   0.20929   0.22390   0.23277   0.23687
 Alpha virt. eigenvalues --    0.23977   0.25847   0.28807   0.29809   0.31081
 Alpha virt. eigenvalues --    0.32763   0.35935   0.36618   0.37237   0.39251
 Alpha virt. eigenvalues --    0.39608   0.40119   0.40964   0.41399   0.41724
 Alpha virt. eigenvalues --    0.42655   0.43195   0.43591   0.43876   0.45029
 Alpha virt. eigenvalues --    0.45310   0.45987   0.46605   0.47097   0.47330
 Alpha virt. eigenvalues --    0.47381   0.48546   0.48662   0.49769   0.50585
 Alpha virt. eigenvalues --    0.50976   0.51206   0.52301   0.52720   0.52771
 Alpha virt. eigenvalues --    0.54298   0.54739   0.55020   0.55623   0.55853
 Alpha virt. eigenvalues --    0.55955   0.57265   0.57565   0.58540   0.59372
 Alpha virt. eigenvalues --    0.60046   0.61085   0.61571   0.62031   0.62392
 Alpha virt. eigenvalues --    0.62958   0.63453   0.63763   0.64674   0.65492
 Alpha virt. eigenvalues --    0.65816   0.66759   0.67348   0.67992   0.69038
 Alpha virt. eigenvalues --    0.69539   0.69780   0.70467   0.71216   0.71787
 Alpha virt. eigenvalues --    0.72348   0.73069   0.73265   0.74242   0.74398
 Alpha virt. eigenvalues --    0.74681   0.75171   0.75783   0.76361   0.76733
 Alpha virt. eigenvalues --    0.77137   0.78244   0.78310   0.79091   0.79234
 Alpha virt. eigenvalues --    0.79484   0.79838   0.80685   0.80874   0.81160
 Alpha virt. eigenvalues --    0.81518   0.81945   0.82724   0.82800   0.83212
 Alpha virt. eigenvalues --    0.83955   0.84556   0.85004   0.85144   0.85844
 Alpha virt. eigenvalues --    0.86907   0.87481   0.88304   0.89009   0.89388
 Alpha virt. eigenvalues --    0.90320   0.90792   0.91179   0.91981   0.92442
 Alpha virt. eigenvalues --    0.93264   0.94124   0.94427   0.95597   0.96506
 Alpha virt. eigenvalues --    0.96765   0.97967   0.99192   0.99689   1.00144
 Alpha virt. eigenvalues --    1.00427   1.02158   1.03453   1.03944   1.05508
 Alpha virt. eigenvalues --    1.06061   1.07313   1.08282   1.08481   1.09726
 Alpha virt. eigenvalues --    1.10594   1.12335   1.13638   1.15770   1.16583
 Alpha virt. eigenvalues --    1.18596   1.19807   1.20877   1.21526   1.22247
 Alpha virt. eigenvalues --    1.23085   1.23754   1.24927   1.25914   1.26913
 Alpha virt. eigenvalues --    1.27637   1.29301   1.29751   1.30622   1.32024
 Alpha virt. eigenvalues --    1.32179   1.34354   1.34957   1.35421   1.36147
 Alpha virt. eigenvalues --    1.36432   1.38206   1.40472   1.41432   1.43991
 Alpha virt. eigenvalues --    1.44698   1.45786   1.47475   1.49060   1.50637
 Alpha virt. eigenvalues --    1.51682   1.52723   1.53115   1.54037   1.56218
 Alpha virt. eigenvalues --    1.56481   1.56602   1.57648   1.59272   1.60550
 Alpha virt. eigenvalues --    1.62218   1.62786   1.63167   1.64049   1.64206
 Alpha virt. eigenvalues --    1.64717   1.65058   1.66035   1.66662   1.67757
 Alpha virt. eigenvalues --    1.68167   1.69027   1.69331   1.70008   1.70668
 Alpha virt. eigenvalues --    1.71538   1.72081   1.72778   1.73407   1.73855
 Alpha virt. eigenvalues --    1.74354   1.74876   1.76225   1.76830   1.77172
 Alpha virt. eigenvalues --    1.77555   1.79385   1.80692   1.80861   1.81428
 Alpha virt. eigenvalues --    1.83095   1.83352   1.84022   1.84458   1.85776
 Alpha virt. eigenvalues --    1.86104   1.87199   1.87543   1.88673   1.89908
 Alpha virt. eigenvalues --    1.90095   1.90895   1.91829   1.92519   1.93459
 Alpha virt. eigenvalues --    1.93575   1.94315   1.94804   1.95687   1.97005
 Alpha virt. eigenvalues --    1.97056   1.98324   2.00099   2.00450   2.02692
 Alpha virt. eigenvalues --    2.03393   2.05001   2.05908   2.07216   2.08530
 Alpha virt. eigenvalues --    2.09603   2.10216   2.13805   2.14644   2.14789
 Alpha virt. eigenvalues --    2.16605   2.17286   2.18004   2.18574   2.20058
 Alpha virt. eigenvalues --    2.20492   2.21393   2.22215   2.23623   2.24636
 Alpha virt. eigenvalues --    2.26356   2.27987   2.28389   2.29558   2.30417
 Alpha virt. eigenvalues --    2.30672   2.31339   2.33180   2.33338   2.33855
 Alpha virt. eigenvalues --    2.34572   2.37788   2.39169   2.40085   2.40711
 Alpha virt. eigenvalues --    2.40868   2.41477   2.43113   2.44434   2.47677
 Alpha virt. eigenvalues --    2.49335   2.49861   2.50502   2.50935   2.51435
 Alpha virt. eigenvalues --    2.52876   2.54172   2.55000   2.56034   2.56981
 Alpha virt. eigenvalues --    2.57899   2.58414   2.59750   2.61907   2.62189
 Alpha virt. eigenvalues --    2.62964   2.64154   2.65825   2.68282   2.69935
 Alpha virt. eigenvalues --    2.71721   2.72501   2.73984   2.80827   2.83562
 Alpha virt. eigenvalues --    2.87179   2.88049   2.89276   2.90851   2.92991
 Alpha virt. eigenvalues --    2.93445   2.98542   2.98955   3.01853   3.05378
 Alpha virt. eigenvalues --    3.71340   3.73844   3.78572   3.82318   3.84466
 Alpha virt. eigenvalues --    3.88926   3.90629   3.92128   4.00572   4.03546
 Alpha virt. eigenvalues --    4.04495   4.05249   4.09908   4.11213   4.13547
 Alpha virt. eigenvalues --    4.18376   4.19921   4.20497   4.23097   4.27623
 Alpha virt. eigenvalues --    4.28790   4.34046   4.35013   4.41198   4.44229
 Alpha virt. eigenvalues --    4.47014   4.56266   4.59040   4.65071
          Condensed to atoms (all electrons):
 Mulliken charges:
               1
     1  N   -0.777897
     2  C   -0.110081
     3  C    0.596666
     4  O   -0.490382
     5  C   -0.299019
     6  C   -0.408464
     7  C    0.622223
     8  O   -0.446647
     9  O   -0.554701
    10  H    0.434272
    11  H    0.439852
    12  H    0.240543
    13  H    0.183109
    14  H    0.218967
    15  H    0.197957
    16  H    0.192470
    17  H    0.445521
    18  H    0.399926
    19  N   -0.573216
    20  C   -0.099941
    21  C    0.672994
    22  O   -0.568776
    23  C   -0.323264
    24  C   -0.070353
    25  C   -0.449742
    26  C   -0.455799
    27  H    0.353897
    28  H    0.220111
    29  H    0.148124
    30  H    0.157694
    31  H    0.145487
    32  H    0.151837
    33  H    0.167810
    34  H    0.155964
    35  H    0.125002
    36  H    0.170807
    37  H    0.153839
    38  N   -0.652614
    39  C   -0.038171
    40  C    0.579431
    41  O   -0.405569
    42  C   -0.298054
    43  C   -0.323405
    44  C   -0.162821
    45  N   -0.594268
    46  C    0.649936
    47  N   -0.768487
    48  N   -0.760960
    49  O   -0.564955
    50  H    0.418307
    51  H    0.364964
    52  H    0.213208
    53  H    0.182297
    54  H    0.193525
    55  H    0.143335
    56  H    0.173618
    57  H    0.168820
    58  H    0.182932
    59  H    0.339273
    60  H    0.300886
    61  H    0.355172
    62  H    0.336811
 Sum of Mulliken charges =   1.00000
 Mulliken charges with hydrogens summed into heavy atoms:
               1
     1  N    0.507402
     2  C    0.130463
     3  C    0.596666
     4  O   -0.490382
     5  C    0.103056
     6  C   -0.018037
     7  C    0.622223
     8  O   -0.446647
     9  O   -0.120429
    19  N   -0.219319
    20  C    0.120170
    21  C    0.672994
    22  O   -0.568776
    23  C   -0.017446
    24  C    0.075133
    25  C    0.025869
    26  C   -0.006151
    38  N   -0.287650
    39  C    0.175037
    40  C    0.579431
    41  O   -0.405569
    42  C    0.077768
    43  C   -0.006453
    44  C    0.188931
    45  N   -0.254995
    46  C    0.649936
    47  N   -0.467602
    48  N   -0.068977
    49  O   -0.146648
 Electronic spatial extent (au):  <R**2>=         506263.8350
 Charge=              1.0000 electrons
 Dipole moment (field-independent basis, Debye):
    X=             49.0788    Y=             80.2642    Z=             60.3482  Tot=            111.7720
 Quadrupole moment (field-independent basis, Debye-Ang):
   XX=            343.6186   YY=           1198.8109   ZZ=            606.1191
   XY=            813.5278   XZ=            620.5507   YZ=           1009.8223
 Traceless Quadrupole moment (field-independent basis, Debye-Ang):
   XX=           -372.5643   YY=            482.6280   ZZ=           -110.0637
   XY=            813.5278   XZ=            620.5507   YZ=           1009.8223
 Octapole moment (field-independent basis, Debye-Ang**2):
  XXX=           -583.4370  YYY=          14982.5639  ZZZ=           3333.9570  XYY=          11727.5578
  XXY=           5374.3787  XXZ=           4213.2170  XZZ=           5956.1944  YZZ=          10046.4654
  YYZ=          15009.9787  XYZ=          10187.8573
 Hexadecapole moment (field-independent basis, Debye-Ang**3):
 XXXX=         -90337.0706 YYYY=         111060.5561 ZZZZ=         -52505.2856 XXXY=         -20404.0173
 XXXZ=         -14090.8881 YYYX=         131532.9446 YYYZ=         183581.1087 ZZZX=          21173.8906
 ZZZY=          50801.7493 XXYY=          60094.5563 XXZZ=          26329.8441 YYZZ=         139778.6637
 XXYZ=          62871.7838 YYXZ=         143286.0210 ZZXY=          94271.0942
 N-N= 3.211658547810D+03 E-N=-9.771001718910D+03  KE= 1.434081580177D+03
 Unable to Open any file for archive entry.
 1\1\GINC-SKL-151\SP\RB3LYP\6-31G(d)\C17H33N6O6(1+)\KENGMITH\24-May-202
 2\0\\# B3LYP/6-31G* empiricaldispersion=gd3 guess=read geom=check nosy
 mm integral(ultrafinegrid)\\Candidate Structure: Conf:156 Charge calc 
 in gas phase\\1,1\N,0,11.0338739919,17.5373723242,10.5050169493\C,0,10
 .9305003015,16.1759807592,11.155670777\C,0,12.3639688633,15.6089444519
 ,11.0900489869\O,0,12.8140518784,15.3172211198,9.9896501992\C,0,9.9720
 13715,15.2232362932,10.4221430925\C,0,8.631229698,15.8303232551,9.9375
 491247\C,0,8.0025417477,16.7607773233,10.9604745244\O,0,8.2550548554,1
 7.9470287129,10.997926969\O,0,7.2082924403,16.2258416045,11.9117050313
 \H,0,7.0320877183,15.2837687427,11.7476215066\H,0,10.1201319389,18.026
 5467837,10.580477223\H,0,10.5719712363,16.4173529963,12.1568678342\H,0
 ,9.7802184843,14.3963506492,11.1159041006\H,0,10.4862485094,14.7976925
 179,9.5558585739\H,0,8.7911967416,16.4294225577,9.0366667837\H,0,7.955
 6796216,15.0142221626,9.6583404094\H,0,11.7533311647,18.0576088679,11.
 0488025523\H,0,11.3453474194,17.4537417648,9.531554741\N,0,13.05740200
 62,15.4336479217,12.2483953795\C,0,12.8724833696,16.146002209,13.50798
 11558\C,0,13.3589167169,17.6109376141,13.3472533391\O,0,13.0917160429,
 18.2387458767,12.3127651872\C,0,13.4719210048,15.3372363291,14.6687218
 432\C,0,12.9381505846,13.8935622184,14.7839351844\C,0,13.5916045519,13
 .1992243545,15.9871397249\C,0,11.4071151153,13.8509188197,14.888095086
 1\H,0,13.9972070878,15.0859854758,12.0747193552\H,0,11.8006057804,16.2
 685887862,13.6921716113\H,0,13.2406772013,15.8578104173,15.6083520597\
 H,0,14.5674638191,15.3090883246,14.5741497483\H,0,13.2324479992,13.352
 6257406,13.8747195599\H,0,13.3076306025,13.6902333458,16.9265395869\H,
 0,13.2753934684,12.1530212808,16.0503146855\H,0,14.6852556759,13.21453
 23296,15.9160708829\H,0,10.9200816609,14.2241367353,13.9786981511\H,0,
 11.062829249,12.8232204958,15.0424210919\H,0,11.0504959527,14.45148233
 73,15.7348495262\N,0,13.9777383901,18.1731879403,14.4057270581\C,0,14.
 4141992915,19.5822283584,14.48571928\C,0,15.0242375253,19.8387700842,1
 5.8713211838\O,0,16.0130538498,20.4979553971,16.0308345033\C,0,13.2675
 666053,20.5869889349,14.2094364823\C,0,11.9994216689,20.3726455594,15.
 0558299673\C,0,10.7330898098,20.9810420954,14.3945994913\N,0,9.5134673
 474,20.2113863195,14.5901060091\C,0,9.3441219708,18.9665958305,14.0182
 65224\N,0,10.2010180452,18.3629425496,13.2486695038\N,0,8.1506205562,1
 8.35128593,14.345515129\O,0,14.3626313812,19.2900206242,16.9299294902\
 H,0,13.4947016556,18.9450209194,16.6598117823\H,0,14.3266548914,17.548
 0460051,15.1201593824\H,0,15.2145357533,19.7583111949,13.7622780372\H,
 0,13.0222772531,20.5023542982,13.1479430612\H,0,13.6787037621,21.59101
 6843,14.3617954758\H,0,11.8188806048,19.2968594468,15.1704007271\H,0,1
 2.1295983149,20.7828188821,16.0638799179\H,0,10.8917124113,21.07630283
 13,13.3128884035\H,0,10.5472353619,21.9926908345,14.7638923871\H,0,8.9
 650119677,20.4095659065,15.416336768\H,0,11.0619492468,18.8962881413,1
 3.1842715924\H,0,7.9361099761,17.5649910538,13.7432549135\H,0,7.356000
 8844,18.9734787901,14.4389541412\\Version=ES64L-G16RevC.01\HF=-1447.46
 20175\RMSD=9.950e-10\Dipole=-2.7701028,-1.3117822,-1.4580968\Quadrupol
 e=-276.9924349,358.8221172,-81.8296823,604.8379911,461.3642498,750.778
 0991\PG=C01 [X(C17H33N6O6)]\\@
 The archive entry for this job was punched.


 DEFINE YOUR TERMS, YOU WILL PERMIT ME AGAIN TO SAY, 
 OR WE SHALL NEVER UNDERSTAND ONE ANOTHER.

                                    -- VOLTAIRE
 Job cpu time:       0 days  0 hours  2 minutes 34.1 seconds.
 Elapsed time:       0 days  0 hours  0 minutes 39.0 seconds.
 File lengths (MBytes):  RWF=    248 Int=      0 D2E=      0 Chk=     32 Scr=     16
 Normal termination of Gaussian 16 at Tue May 24 03:34:32 2022.
