 Entering Gaussian System, Link 0=/opt/software/Gaussian/g16-AVX2-C.01/g16/g16
 Input=charge-conf-549.com
 Output=charge-conf-549.log
 Initial command:
 /opt/software/Gaussian/g16-AVX2-C.01/g16/l1.exe "/mnt/gs18/scratch/users/kengmith/Gau-19604.inp" -scrdir="/mnt/gs18/scratch/users/kengmith/"
 Entering Link 1 = /opt/software/Gaussian/g16-AVX2-C.01/g16/l1.exe PID=     19614.
  
 Copyright (c) 1988-2019, Gaussian, Inc.  All Rights Reserved.
  
 This is part of the Gaussian(R) 16 program.  It is based on
 the Gaussian(R) 09 system (copyright 2009, Gaussian, Inc.),
 the Gaussian(R) 03 system (copyright 2003, Gaussian, Inc.),
 the Gaussian(R) 98 system (copyright 1998, Gaussian, Inc.),
 the Gaussian(R) 94 system (copyright 1995, Gaussian, Inc.),
 the Gaussian 92(TM) system (copyright 1992, Gaussian, Inc.),
 the Gaussian 90(TM) system (copyright 1990, Gaussian, Inc.),
 the Gaussian 88(TM) system (copyright 1988, Gaussian, Inc.),
 the Gaussian 86(TM) system (copyright 1986, Carnegie Mellon
 University), and the Gaussian 82(TM) system (copyright 1983,
 Carnegie Mellon University). Gaussian is a federally registered
 trademark of Gaussian, Inc.
  
 This software contains proprietary and confidential information,
 including trade secrets, belonging to Gaussian, Inc.
  
 This software is provided under written license and may be
 used, copied, transmitted, or stored only in accord with that
 written license.
  
 The following legend is applicable only to US Government
 contracts under FAR:
  
                    RESTRICTED RIGHTS LEGEND
  
 Use, reproduction and disclosure by the US Government is
 subject to restrictions as set forth in subparagraphs (a)
 and (c) of the Commercial Computer Software - Restricted
 Rights clause in FAR 52.227-19.
  
 Gaussian, Inc.
 340 Quinnipiac St., Bldg. 40, Wallingford CT 06492
  
  
 ---------------------------------------------------------------
 Warning -- This program may not be used in any manner that
 competes with the business of Gaussian, Inc. or will provide
 assistance to any competitor of Gaussian, Inc.  The licensee
 of this program is prohibited from giving any competitor of
 Gaussian, Inc. access to this program.  By using this program,
 the user acknowledges that Gaussian, Inc. is engaged in the
 business of creating and licensing software in the field of
 computational chemistry and represents and warrants to the
 licensee that it is not a competitor of Gaussian, Inc. and that
 it will not use this program in any manner prohibited above.
 ---------------------------------------------------------------
  

 Cite this work as:
 Gaussian 16, Revision C.01,
 M. J. Frisch, G. W. Trucks, H. B. Schlegel, G. E. Scuseria, 
 M. A. Robb, J. R. Cheeseman, G. Scalmani, V. Barone, 
 G. A. Petersson, H. Nakatsuji, X. Li, M. Caricato, A. V. Marenich, 
 J. Bloino, B. G. Janesko, R. Gomperts, B. Mennucci, H. P. Hratchian, 
 J. V. Ortiz, A. F. Izmaylov, J. L. Sonnenberg, D. Williams-Young, 
 F. Ding, F. Lipparini, F. Egidi, J. Goings, B. Peng, A. Petrone, 
 T. Henderson, D. Ranasinghe, V. G. Zakrzewski, J. Gao, N. Rega, 
 G. Zheng, W. Liang, M. Hada, M. Ehara, K. Toyota, R. Fukuda, 
 J. Hasegawa, M. Ishida, T. Nakajima, Y. Honda, O. Kitao, H. Nakai, 
 T. Vreven, K. Throssell, J. A. Montgomery, Jr., J. E. Peralta, 
 F. Ogliaro, M. J. Bearpark, J. J. Heyd, E. N. Brothers, K. N. Kudin, 
 V. N. Staroverov, T. A. Keith, R. Kobayashi, J. Normand, 
 K. Raghavachari, A. P. Rendell, J. C. Burant, S. S. Iyengar, 
 J. Tomasi, M. Cossi, J. M. Millam, M. Klene, C. Adamo, R. Cammi, 
 J. W. Ochterski, R. L. Martin, K. Morokuma, O. Farkas, 
 J. B. Foresman, and D. J. Fox, Gaussian, Inc., Wallingford CT, 2019.
 
 ******************************************
 Gaussian 16:  ES64L-G16RevC.01  3-Jul-2019
                24-May-2022 
 ******************************************
 %mem=8gb
 %nproc=4
 Will use up to    4 processors via shared memory.
 %chk=conf-549.chk
 ----------------------------------------------------------------------
 # B3LYP/6-31G* empiricaldispersion=gd3 guess=read geom=check nosymm in
 tegral(ultrafinegrid)
 ----------------------------------------------------------------------
 1/29=2,38=1,172=1/1;
 2/12=2,15=1,40=1/2;
 3/5=1,6=6,7=1,11=2,14=-4,25=1,30=1,74=-5,75=-5,116=-2,124=31/1,2,3;
 4/5=1/1;
 5/5=2,38=6/2;
 6/7=2,8=2,9=2,10=2,28=1/1;
 99/5=1,9=1/99;
 ------------------------------------------------------
 Candidate Structure: Conf:549 Charge calc in gas phase
 ------------------------------------------------------
 Structure from the checkpoint file:  "conf-549.chk"
 Charge =  1 Multiplicity = 1
 Redundant internal coordinates found in file.  (old form).
 N,0,9.0936698653,16.1689940492,15.0426407589
 C,0,10.0409021747,15.8903790205,13.8999089244
 C,0,9.2375915457,16.1747893473,12.6182901553
 O,0,8.0234654996,15.9967001763,12.6687345259
 C,0,10.5095781779,14.4254303462,13.8962243228
 C,0,11.1844506081,13.9164626039,15.2008272508
 C,0,12.057723915,15.0122793108,15.7806496125
 O,0,11.5571692619,15.9666085869,16.3548191623
 O,0,13.3719719146,15.0010062257,15.5339389195
 H,0,13.6610150962,14.1671648386,15.123877988
 H,0,8.8215273151,17.1604363288,15.0367893565
 H,0,10.8686128449,16.5809866874,14.0528314166
 H,0,11.2073617081,14.3364709221,13.0588027119
 H,0,9.6578881792,13.7781744534,13.6595588708
 H,0,10.4330674766,13.6684389877,15.9565522745
 H,0,11.7332846265,12.9951142314,14.982923878
 H,0,8.2285746384,15.6267711017,14.9111447079
 H,0,9.5841405285,15.9795047699,15.9337768229
 N,0,9.9385594376,16.5068803108,11.5144792855
 C,0,11.2762889036,17.1291975737,11.4578718227
 C,0,11.0284656545,18.645413021,11.3691678928
 O,0,10.3046034509,19.0896627942,10.4900321413
 C,0,12.074740032,16.6071309011,10.2573121932
 C,0,12.4865803099,15.1270125389,10.3719582761
 C,0,13.012850492,14.6188229654,9.0219282125
 C,0,13.542992216,14.9044675124,11.4694585855
 H,0,9.3495573368,16.7360144602,10.7150617745
 H,0,11.8165442861,16.8861786478,12.3739280892
 H,0,12.9730847598,17.2299187645,10.1510010035
 H,0,11.4765369024,16.7757382738,9.3540021356
 H,0,11.5861283071,14.5461190692,10.6241352131
 H,0,13.8986239242,15.1859380879,8.7106796423
 H,0,13.2964960313,13.5625863833,9.0811327563
 H,0,12.2557216198,14.7210569369,8.2371976941
 H,0,14.4652444186,15.4490314446,11.2338217686
 H,0,13.2158741637,15.24257333,12.4641233859
 H,0,13.7997508959,13.8419426798,11.5491140918
 N,0,11.6349176158,19.39528229,12.3361962508
 C,0,11.1821558419,20.7630339773,12.6062076017
 C,0,12.3852262621,21.6401327114,13.0010894946
 O,0,12.3341659458,22.484445793,13.8639668091
 C,0,10.026762539,20.8242091956,13.6246395816
 C,0,10.0941321003,19.8440089561,14.8136923011
 C,0,11.3853584137,19.8569640891,15.6595999033
 N,0,12.3766936173,18.8588512256,15.1937080536
 C,0,13.7786174323,19.1712745612,15.3023207396
 N,0,14.3592339064,20.3012779185,15.2649454795
 N,0,14.5325773648,18.0129248802,15.4710469311
 O,0,13.5029404171,21.428305096,12.2899291654
 H,0,13.3705903427,20.6607237957,11.7041386476
 H,0,12.0341791542,18.925769856,13.1567498247
 H,0,10.820385036,21.1577555543,11.6494338821
 H,0,9.0919042173,20.6397753644,13.0840232578
 H,0,9.9862353113,21.8482821694,14.0065557831
 H,0,9.2414329949,20.0741646528,15.4641137405
 H,0,9.9330588939,18.8180088526,14.4376225501
 H,0,11.1456136711,19.6618355706,16.7122785086
 H,0,11.8246102135,20.853895671,15.6202620027
 H,0,12.215551123,17.9829941625,15.6898093577
 H,0,13.7438176083,21.1099151257,15.2349181656
 H,0,15.5248865837,18.1932595822,15.3760196203
 H,0,14.2266087156,17.1777030159,14.9890985137
 Recover connectivity data from disk.
                           ----------------------------
                           !    Current Parameters    !
                           ! (Angstroms and Degrees)  !
 --------------------------                            --------------------------
 ! Name  Definition              Value                                          !
 --------------------------------------------------------------------------------
 ! R1    R(1,2)                  1.5102                                         !
 ! R2    R(1,11)                 1.0281                                         !
 ! R3    R(1,17)                 1.0294                                         !
 ! R4    R(1,18)                 1.0347                                         !
 ! R5    R(2,3)                  1.5391                                         !
 ! R6    R(2,5)                  1.5381                                         !
 ! R7    R(2,12)                 1.0888                                         !
 ! R8    R(3,4)                  1.2282                                         !
 ! R9    R(3,19)                 1.3491                                         !
 ! R10   R(5,6)                  1.5545                                         !
 ! R11   R(5,13)                 1.0937                                         !
 ! R12   R(5,14)                 1.0956                                         !
 ! R13   R(6,7)                  1.5164                                         !
 ! R14   R(6,15)                 1.0942                                         !
 ! R15   R(6,16)                 1.0943                                         !
 ! R16   R(7,8)                  1.2211                                         !
 ! R17   R(7,9)                  1.3373                                         !
 ! R18   R(9,10)                 0.9731                                         !
 ! R19   R(19,20)                1.4765                                         !
 ! R20   R(19,27)                1.0191                                         !
 ! R21   R(20,21)                1.5389                                         !
 ! R22   R(20,23)                1.5334                                         !
 ! R23   R(20,28)                1.0909                                         !
 ! R24   R(21,22)                1.2224                                         !
 ! R25   R(21,38)                1.3657                                         !
 ! R26   R(23,24)                1.5406                                         !
 ! R27   R(23,29)                1.0983                                         !
 ! R28   R(23,30)                1.0965                                         !
 ! R29   R(24,25)                1.5355                                         !
 ! R30   R(24,26)                1.5395                                         !
 ! R31   R(24,31)                1.1008                                         !
 ! R32   R(25,32)                1.0969                                         !
 ! R33   R(25,33)                1.0953                                         !
 ! R34   R(25,34)                1.0952                                         !
 ! R35   R(26,35)                1.0966                                         !
 ! R36   R(26,36)                1.1003                                         !
 ! R37   R(26,37)                1.096                                          !
 ! R38   R(38,39)                1.4658                                         !
 ! R39   R(38,51)                1.0262                                         !
 ! R40   R(39,40)                1.5403                                         !
 ! R41   R(39,42)                1.5414                                         !
 ! R42   R(39,52)                1.0964                                         !
 ! R43   R(40,41)                1.2083                                         !
 ! R44   R(40,49)                1.3416                                         !
 ! R45   R(42,43)                1.5425                                         !
 ! R46   R(42,53)                1.0956                                         !
 ! R47   R(42,54)                1.0937                                         !
 ! R48   R(43,44)                1.5437                                         !
 ! R49   R(43,55)                1.0969                                         !
 ! R50   R(43,56)                1.1046                                         !
 ! R51   R(44,45)                1.4819                                         !
 ! R52   R(44,57)                1.0971                                         !
 ! R53   R(44,58)                1.0901                                         !
 ! R54   R(45,46)                1.4404                                         !
 ! R55   R(45,59)                1.0194                                         !
 ! R56   R(46,47)                1.271                                          !
 ! R57   R(46,48)                1.3924                                         !
 ! R58   R(47,60)                1.0166                                         !
 ! R59   R(48,61)                1.013                                          !
 ! R60   R(48,62)                1.0117                                         !
 ! R61   R(49,50)                0.9746                                         !
 ! A1    A(2,1,11)             109.8538                                         !
 ! A2    A(2,1,17)             109.4675                                         !
 ! A3    A(2,1,18)             108.6983                                         !
 ! A4    A(11,1,17)            106.5447                                         !
 ! A5    A(11,1,18)            107.877                                          !
 ! A6    A(17,1,18)            114.3251                                         !
 ! A7    A(1,2,3)              105.5829                                         !
 ! A8    A(1,2,5)              111.6323                                         !
 ! A9    A(1,2,12)             104.6865                                         !
 ! A10   A(3,2,5)              109.4542                                         !
 ! A11   A(3,2,12)             113.362                                          !
 ! A12   A(5,2,12)             111.8897                                         !
 ! A13   A(2,3,4)              117.0639                                         !
 ! A14   A(2,3,19)             117.1047                                         !
 ! A15   A(4,3,19)             125.6584                                         !
 ! A16   A(2,5,6)              116.2392                                         !
 ! A17   A(2,5,13)             105.8858                                         !
 ! A18   A(2,5,14)             109.0459                                         !
 ! A19   A(6,5,13)             109.8151                                         !
 ! A20   A(6,5,14)             108.9867                                         !
 ! A21   A(13,5,14)            106.4111                                         !
 ! A22   A(5,6,7)              109.5299                                         !
 ! A23   A(5,6,15)             110.8385                                         !
 ! A24   A(5,6,16)             109.043                                          !
 ! A25   A(7,6,15)             107.1678                                         !
 ! A26   A(7,6,16)             113.3105                                         !
 ! A27   A(15,6,16)            106.9229                                         !
 ! A28   A(6,7,8)              120.5638                                         !
 ! A29   A(6,7,9)              119.2965                                         !
 ! A30   A(8,7,9)              119.7506                                         !
 ! A31   A(7,9,10)             112.1405                                         !
 ! A32   A(3,19,20)            127.2922                                         !
 ! A33   A(3,19,27)            113.383                                          !
 ! A34   A(20,19,27)           113.5045                                         !
 ! A35   A(19,20,21)           105.7582                                         !
 ! A36   A(19,20,23)           110.9947                                         !
 ! A37   A(19,20,28)           108.8205                                         !
 ! A38   A(21,20,23)           111.9726                                         !
 ! A39   A(21,20,28)           110.3429                                         !
 ! A40   A(23,20,28)           108.8883                                         !
 ! A41   A(20,21,22)           119.6627                                         !
 ! A42   A(20,21,38)           115.3816                                         !
 ! A43   A(22,21,38)           124.9352                                         !
 ! A44   A(20,23,24)           114.0803                                         !
 ! A45   A(20,23,29)           107.9771                                         !
 ! A46   A(20,23,30)           107.973                                          !
 ! A47   A(24,23,29)           109.4716                                         !
 ! A48   A(24,23,30)           110.7863                                         !
 ! A49   A(29,23,30)           106.2193                                         !
 ! A50   A(23,24,25)           110.1302                                         !
 ! A51   A(23,24,26)           112.0471                                         !
 ! A52   A(23,24,31)           107.779                                          !
 ! A53   A(25,24,26)           110.1058                                         !
 ! A54   A(25,24,31)           107.8852                                         !
 ! A55   A(26,24,31)           108.7662                                         !
 ! A56   A(24,25,32)           110.8024                                         !
 ! A57   A(24,25,33)           111.1247                                         !
 ! A58   A(24,25,34)           111.2311                                         !
 ! A59   A(32,25,33)           107.7472                                         !
 ! A60   A(32,25,34)           107.8596                                         !
 ! A61   A(33,25,34)           107.9256                                         !
 ! A62   A(24,26,35)           110.6171                                         !
 ! A63   A(24,26,36)           113.3298                                         !
 ! A64   A(24,26,37)           110.6531                                         !
 ! A65   A(35,26,36)           106.9581                                         !
 ! A66   A(35,26,37)           107.458                                          !
 ! A67   A(36,26,37)           107.5683                                         !
 ! A68   A(21,38,39)           120.3709                                         !
 ! A69   A(21,38,51)           119.1902                                         !
 ! A70   A(39,38,51)           113.5647                                         !
 ! A71   A(38,39,40)           109.7124                                         !
 ! A72   A(38,39,42)           112.9713                                         !
 ! A73   A(38,39,52)           106.0872                                         !
 ! A74   A(40,39,42)           113.1708                                         !
 ! A75   A(40,39,52)           106.0472                                         !
 ! A76   A(42,39,52)           108.3583                                         !
 ! A77   A(39,40,41)           123.2266                                         !
 ! A78   A(39,40,49)           115.1446                                         !
 ! A79   A(41,40,49)           121.6058                                         !
 ! A80   A(39,42,43)           116.8322                                         !
 ! A81   A(39,42,53)           107.8729                                         !
 ! A82   A(39,42,54)           107.1968                                         !
 ! A83   A(43,42,53)           108.1009                                         !
 ! A84   A(43,42,54)           109.1138                                         !
 ! A85   A(53,42,54)           107.3567                                         !
 ! A86   A(42,43,44)           116.9765                                         !
 ! A87   A(42,43,55)           106.8473                                         !
 ! A88   A(42,43,56)           108.7507                                         !
 ! A89   A(44,43,55)           108.878                                          !
 ! A90   A(44,43,56)           108.4418                                         !
 ! A91   A(55,43,56)           106.4653                                         !
 ! A92   A(43,44,45)           112.4344                                         !
 ! A93   A(43,44,57)           109.9684                                         !
 ! A94   A(43,44,58)           108.9619                                         !
 ! A95   A(45,44,57)           109.15                                           !
 ! A96   A(45,44,58)           109.5764                                         !
 ! A97   A(57,44,58)           106.5783                                         !
 ! A98   A(44,45,46)           118.7698                                         !
 ! A99   A(44,45,59)           108.6594                                         !
 ! A100  A(46,45,59)           107.6684                                         !
 ! A101  A(45,46,47)           129.4374                                         !
 ! A102  A(45,46,48)           110.8374                                         !
 ! A103  A(47,46,48)           119.7251                                         !
 ! A104  A(46,47,60)           115.5634                                         !
 ! A105  A(46,48,61)           111.7745                                         !
 ! A106  A(46,48,62)           117.7314                                         !
 ! A107  A(61,48,62)           113.4864                                         !
 ! A108  A(40,49,50)           109.2582                                         !
 ! D1    D(11,1,2,3)           -62.9277                                         !
 ! D2    D(11,1,2,5)           178.2196                                         !
 ! D3    D(11,1,2,12)           56.9842                                         !
 ! D4    D(17,1,2,3)            53.7359                                         !
 ! D5    D(17,1,2,5)           -65.1168                                         !
 ! D6    D(17,1,2,12)          173.6478                                         !
 ! D7    D(18,1,2,3)           179.2475                                         !
 ! D8    D(18,1,2,5)            60.3949                                         !
 ! D9    D(18,1,2,12)          -60.8405                                         !
 ! D10   D(1,2,3,4)            -29.4938                                         !
 ! D11   D(1,2,3,19)           155.0118                                         !
 ! D12   D(5,2,3,4)             90.7975                                         !
 ! D13   D(5,2,3,19)           -84.697                                          !
 ! D14   D(12,2,3,4)          -143.5212                                         !
 ! D15   D(12,2,3,19)           40.9844                                         !
 ! D16   D(1,2,5,6)            -56.0773                                         !
 ! D17   D(1,2,5,13)          -178.3001                                         !
 ! D18   D(1,2,5,14)            67.5575                                         !
 ! D19   D(3,2,5,6)           -172.6007                                         !
 ! D20   D(3,2,5,13)            65.1765                                         !
 ! D21   D(3,2,5,14)           -48.9659                                         !
 ! D22   D(12,2,5,6)            60.8765                                         !
 ! D23   D(12,2,5,13)          -61.3463                                         !
 ! D24   D(12,2,5,14)         -175.4887                                         !
 ! D25   D(2,3,19,20)          -25.5126                                         !
 ! D26   D(2,3,19,27)         -176.6122                                         !
 ! D27   D(4,3,19,20)          159.4265                                         !
 ! D28   D(4,3,19,27)            8.3269                                         !
 ! D29   D(2,5,6,7)            -38.509                                          !
 ! D30   D(2,5,6,15)            79.5333                                         !
 ! D31   D(2,5,6,16)          -163.0233                                         !
 ! D32   D(13,5,6,7)            81.622                                          !
 ! D33   D(13,5,6,15)         -160.3357                                         !
 ! D34   D(13,5,6,16)          -42.8923                                         !
 ! D35   D(14,5,6,7)          -162.1744                                         !
 ! D36   D(14,5,6,15)          -44.1321                                         !
 ! D37   D(14,5,6,16)           73.3113                                         !
 ! D38   D(5,6,7,8)             75.0596                                         !
 ! D39   D(5,6,7,9)            -97.7627                                         !
 ! D40   D(15,6,7,8)           -45.2475                                         !
 ! D41   D(15,6,7,9)           141.9302                                         !
 ! D42   D(16,6,7,8)          -162.9482                                         !
 ! D43   D(16,6,7,9)            24.2295                                         !
 ! D44   D(6,7,9,10)           -10.7274                                         !
 ! D45   D(8,7,9,10)           176.3911                                         !
 ! D46   D(3,19,20,21)         -93.1052                                         !
 ! D47   D(3,19,20,23)         145.2461                                         !
 ! D48   D(3,19,20,28)          25.4362                                         !
 ! D49   D(27,19,20,21)         57.9653                                         !
 ! D50   D(27,19,20,23)        -63.6833                                         !
 ! D51   D(27,19,20,28)        176.5067                                         !
 ! D52   D(19,20,21,22)        -54.1176                                         !
 ! D53   D(19,20,21,38)        124.3148                                         !
 ! D54   D(23,20,21,22)         66.8988                                         !
 ! D55   D(23,20,21,38)       -114.6687                                         !
 ! D56   D(28,20,21,22)       -171.6419                                         !
 ! D57   D(28,20,21,38)          6.7906                                         !
 ! D58   D(19,20,23,24)        -68.5448                                         !
 ! D59   D(19,20,23,29)        169.5264                                         !
 ! D60   D(19,20,23,30)         55.0716                                         !
 ! D61   D(21,20,23,24)        173.5177                                         !
 ! D62   D(21,20,23,29)         51.5889                                         !
 ! D63   D(21,20,23,30)        -62.8659                                         !
 ! D64   D(28,20,23,24)         51.2247                                         !
 ! D65   D(28,20,23,29)        -70.7041                                         !
 ! D66   D(28,20,23,30)        174.8412                                         !
 ! D67   D(20,21,38,39)       -162.0969                                         !
 ! D68   D(20,21,38,51)        -12.9865                                         !
 ! D69   D(22,21,38,39)         16.2415                                         !
 ! D70   D(22,21,38,51)        165.3519                                         !
 ! D71   D(20,23,24,25)        168.1919                                         !
 ! D72   D(20,23,24,26)        -68.8894                                         !
 ! D73   D(20,23,24,31)         50.7381                                         !
 ! D74   D(29,23,24,25)        -70.7055                                         !
 ! D75   D(29,23,24,26)         52.2132                                         !
 ! D76   D(29,23,24,31)        171.8407                                         !
 ! D77   D(30,23,24,25)         46.1082                                         !
 ! D78   D(30,23,24,26)        169.027                                          !
 ! D79   D(30,23,24,31)        -71.3455                                         !
 ! D80   D(23,24,25,32)         61.0987                                         !
 ! D81   D(23,24,25,33)       -179.1425                                         !
 ! D82   D(23,24,25,34)        -58.872                                          !
 ! D83   D(26,24,25,32)        -62.9512                                         !
 ! D84   D(26,24,25,33)         56.8076                                         !
 ! D85   D(26,24,25,34)        177.0781                                         !
 ! D86   D(31,24,25,32)        178.4867                                         !
 ! D87   D(31,24,25,33)        -61.7546                                         !
 ! D88   D(31,24,25,34)         58.516                                          !
 ! D89   D(23,24,26,35)        -62.5109                                         !
 ! D90   D(23,24,26,36)         57.5973                                         !
 ! D91   D(23,24,26,37)        178.5186                                         !
 ! D92   D(25,24,26,35)         60.4217                                         !
 ! D93   D(25,24,26,36)       -179.4702                                         !
 ! D94   D(25,24,26,37)        -58.5488                                         !
 ! D95   D(31,24,26,35)        178.4416                                         !
 ! D96   D(31,24,26,36)        -61.4502                                         !
 ! D97   D(31,24,26,37)         59.4711                                         !
 ! D98   D(21,38,39,40)       -145.636                                          !
 ! D99   D(21,38,39,42)         87.0745                                         !
 ! D100  D(21,38,39,52)        -31.4981                                         !
 ! D101  D(51,38,39,40)         63.6364                                         !
 ! D102  D(51,38,39,42)        -63.6531                                         !
 ! D103  D(51,38,39,52)        177.7743                                         !
 ! D104  D(38,39,40,41)       -140.9744                                         !
 ! D105  D(38,39,40,49)         40.7465                                         !
 ! D106  D(42,39,40,41)        -13.7968                                         !
 ! D107  D(42,39,40,49)        167.9242                                         !
 ! D108  D(52,39,40,41)        104.862                                          !
 ! D109  D(52,39,40,49)        -73.4171                                         !
 ! D110  D(38,39,42,43)         38.7631                                         !
 ! D111  D(38,39,42,53)        -83.1715                                         !
 ! D112  D(38,39,42,54)        161.4931                                         !
 ! D113  D(40,39,42,43)        -86.6815                                         !
 ! D114  D(40,39,42,53)        151.3839                                         !
 ! D115  D(40,39,42,54)         36.0485                                         !
 ! D116  D(52,39,42,43)        156.0065                                         !
 ! D117  D(52,39,42,53)         34.0718                                         !
 ! D118  D(52,39,42,54)        -81.2635                                         !
 ! D119  D(39,40,49,50)         -6.6884                                         !
 ! D120  D(41,40,49,50)        175.0019                                         !
 ! D121  D(39,42,43,44)         53.8288                                         !
 ! D122  D(39,42,43,55)        176.0694                                         !
 ! D123  D(39,42,43,56)        -69.3772                                         !
 ! D124  D(53,42,43,44)        175.6444                                         !
 ! D125  D(53,42,43,55)        -62.115                                          !
 ! D126  D(53,42,43,56)         52.4384                                         !
 ! D127  D(54,42,43,44)        -67.904                                          !
 ! D128  D(54,42,43,55)         54.3365                                         !
 ! D129  D(54,42,43,56)        168.8899                                         !
 ! D130  D(42,43,44,45)        -92.9063                                         !
 ! D131  D(42,43,44,57)        145.2491                                         !
 ! D132  D(42,43,44,58)         28.7723                                         !
 ! D133  D(55,43,44,45)        145.9124                                         !
 ! D134  D(55,43,44,57)         24.0678                                         !
 ! D135  D(55,43,44,58)        -92.409                                          !
 ! D136  D(56,43,44,45)         30.4581                                         !
 ! D137  D(56,43,44,57)        -91.3866                                         !
 ! D138  D(56,43,44,58)        152.1367                                         !
 ! D139  D(43,44,45,46)        146.2364                                         !
 ! D140  D(43,44,45,59)        -90.3366                                         !
 ! D141  D(57,44,45,46)        -91.4549                                         !
 ! D142  D(57,44,45,59)         31.972                                          !
 ! D143  D(58,44,45,46)         24.9083                                         !
 ! D144  D(58,44,45,59)        148.3353                                         !
 ! D145  D(44,45,46,47)        -29.4146                                         !
 ! D146  D(44,45,46,48)        150.5354                                         !
 ! D147  D(59,45,46,47)       -153.3297                                         !
 ! D148  D(59,45,46,48)         26.6204                                         !
 ! D149  D(45,46,47,60)          5.9296                                         !
 ! D150  D(48,46,47,60)       -174.0166                                         !
 ! D151  D(45,46,48,61)        169.3474                                         !
 ! D152  D(45,46,48,62)         35.333                                          !
 ! D153  D(47,46,48,61)        -10.6971                                         !
 ! D154  D(47,46,48,62)       -144.7114                                         !
 --------------------------------------------------------------------------------
 Symmetry turned off by external request.
 Stoichiometry    C17H33N6O6(1+)
 Framework group  C1[X(C17H33N6O6)]
 Deg. of freedom   180
 Full point group                 C1      NOp   1
                          Input orientation:                          
 ---------------------------------------------------------------------
 Center     Atomic      Atomic             Coordinates (Angstroms)
 Number     Number       Type             X           Y           Z
 ---------------------------------------------------------------------
      1          7           0        9.093670   16.168994   15.042641
      2          6           0       10.040902   15.890379   13.899909
      3          6           0        9.237592   16.174789   12.618290
      4          8           0        8.023465   15.996700   12.668735
      5          6           0       10.509578   14.425430   13.896224
      6          6           0       11.184451   13.916463   15.200827
      7          6           0       12.057724   15.012279   15.780650
      8          8           0       11.557169   15.966609   16.354819
      9          8           0       13.371972   15.001006   15.533939
     10          1           0       13.661015   14.167165   15.123878
     11          1           0        8.821527   17.160436   15.036789
     12          1           0       10.868613   16.580987   14.052831
     13          1           0       11.207362   14.336471   13.058803
     14          1           0        9.657888   13.778174   13.659559
     15          1           0       10.433067   13.668439   15.956552
     16          1           0       11.733285   12.995114   14.982924
     17          1           0        8.228575   15.626771   14.911145
     18          1           0        9.584141   15.979505   15.933777
     19          7           0        9.938559   16.506880   11.514479
     20          6           0       11.276289   17.129198   11.457872
     21          6           0       11.028466   18.645413   11.369168
     22          8           0       10.304603   19.089663   10.490032
     23          6           0       12.074740   16.607131   10.257312
     24          6           0       12.486580   15.127013   10.371958
     25          6           0       13.012850   14.618823    9.021928
     26          6           0       13.542992   14.904468   11.469459
     27          1           0        9.349557   16.736014   10.715062
     28          1           0       11.816544   16.886179   12.373928
     29          1           0       12.973085   17.229919   10.151001
     30          1           0       11.476537   16.775738    9.354002
     31          1           0       11.586128   14.546119   10.624135
     32          1           0       13.898624   15.185938    8.710680
     33          1           0       13.296496   13.562586    9.081133
     34          1           0       12.255722   14.721057    8.237198
     35          1           0       14.465244   15.449031   11.233822
     36          1           0       13.215874   15.242573   12.464123
     37          1           0       13.799751   13.841943   11.549114
     38          7           0       11.634918   19.395282   12.336196
     39          6           0       11.182156   20.763034   12.606208
     40          6           0       12.385226   21.640133   13.001089
     41          8           0       12.334166   22.484446   13.863967
     42          6           0       10.026763   20.824209   13.624640
     43          6           0       10.094132   19.844009   14.813692
     44          6           0       11.385358   19.856964   15.659600
     45          7           0       12.376694   18.858851   15.193708
     46          6           0       13.778617   19.171275   15.302321
     47          7           0       14.359234   20.301278   15.264945
     48          7           0       14.532577   18.012925   15.471047
     49          8           0       13.502940   21.428305   12.289929
     50          1           0       13.370590   20.660724   11.704139
     51          1           0       12.034179   18.925770   13.156750
     52          1           0       10.820385   21.157756   11.649434
     53          1           0        9.091904   20.639775   13.084023
     54          1           0        9.986235   21.848282   14.006556
     55          1           0        9.241433   20.074165   15.464114
     56          1           0        9.933059   18.818009   14.437623
     57          1           0       11.145614   19.661836   16.712279
     58          1           0       11.824610   20.853896   15.620262
     59          1           0       12.215551   17.982994   15.689809
     60          1           0       13.743818   21.109915   15.234918
     61          1           0       15.524887   18.193260   15.376020
     62          1           0       14.226609   17.177703   14.989099
 ---------------------------------------------------------------------
 Rotational constants (GHZ):           0.1838240           0.1342488           0.1161871
 Standard basis: 6-31G(d) (6D, 7F)
   501 basis functions,   944 primitive gaussians,   501 cartesian basis functions
   112 alpha electrons      112 beta electrons
       nuclear repulsion energy      3279.0586444959 Hartrees.
 NAtoms=   62 NActive=   62 NUniq=   62 SFac= 1.00D+00 NAtFMM=   60 NAOKFM=T Big=T
 Integral buffers will be    131072 words long.
 Raffenetti 2 integral format.
 Two-electron integral symmetry is turned off.
 Nuclear repulsion after empirical dispersion term =     3278.9679325702 Hartrees.
 One-electron integrals computed using PRISM.
 NBasis=   501 RedAO= T EigKep=  1.95D-03  NBF=   501
 NBsUse=   501 1.00D-06 EigRej= -1.00D+00 NBFU=   501
 Initial guess from the checkpoint file:  "conf-549.chk"
 B after Tr=     0.000000    0.000000    0.000000
         Rot=    1.000000    0.000000    0.000000    0.000000 Ang=   0.00 deg.
 Requested convergence on RMS density matrix=1.00D-08 within 128 cycles.
 Requested convergence on MAX density matrix=1.00D-06.
 Requested convergence on             energy=1.00D-06.
 No special actions if energy rises.
 SCF Done:  E(RB3LYP) =  -1447.43506849     A.U. after    3 cycles
            NFock=  3  Conv=0.90D-09     -V/T= 2.0093

 **********************************************************************

            Population analysis using the SCF Density.

 **********************************************************************

 Alpha  occ. eigenvalues --  -19.37122 -19.31522 -19.28459 -19.27660 -19.24050
 Alpha  occ. eigenvalues --  -19.22769 -14.62660 -14.51358 -14.48163 -14.45861
 Alpha  occ. eigenvalues --  -14.42733 -14.36969 -10.49910 -10.45299 -10.43129
 Alpha  occ. eigenvalues --  -10.41263 -10.41229 -10.38416 -10.38107 -10.37595
 Alpha  occ. eigenvalues --  -10.36971 -10.34517 -10.32655 -10.31424 -10.31145
 Alpha  occ. eigenvalues --  -10.31079 -10.30131 -10.29666 -10.27633  -1.27830
 Alpha  occ. eigenvalues --   -1.20605  -1.19467  -1.19434  -1.16581  -1.16072
 Alpha  occ. eigenvalues --   -1.11153  -1.07875  -1.06584  -1.04693  -0.98652
 Alpha  occ. eigenvalues --   -0.98163  -0.93786  -0.92879  -0.91292  -0.90677
 Alpha  occ. eigenvalues --   -0.87945  -0.84482  -0.82167  -0.80157  -0.79331
 Alpha  occ. eigenvalues --   -0.78375  -0.77508  -0.76929  -0.75554  -0.74202
 Alpha  occ. eigenvalues --   -0.72023  -0.71102  -0.69570  -0.69197  -0.68928
 Alpha  occ. eigenvalues --   -0.67650  -0.66521  -0.66100  -0.65161  -0.64168
 Alpha  occ. eigenvalues --   -0.63671  -0.62621  -0.61874  -0.61162  -0.60814
 Alpha  occ. eigenvalues --   -0.60513  -0.59256  -0.58294  -0.57930  -0.57624
 Alpha  occ. eigenvalues --   -0.57255  -0.56097  -0.55707  -0.55089  -0.54725
 Alpha  occ. eigenvalues --   -0.54343  -0.54242  -0.53972  -0.53141  -0.52241
 Alpha  occ. eigenvalues --   -0.52229  -0.51990  -0.51685  -0.51154  -0.50443
 Alpha  occ. eigenvalues --   -0.50243  -0.49419  -0.49026  -0.48879  -0.47982
 Alpha  occ. eigenvalues --   -0.46761  -0.46407  -0.45313  -0.44969  -0.44649
 Alpha  occ. eigenvalues --   -0.44520  -0.44345  -0.44093  -0.41978  -0.41088
 Alpha  occ. eigenvalues --   -0.40604  -0.39147  -0.37435  -0.36230  -0.35812
 Alpha  occ. eigenvalues --   -0.34029  -0.31953
 Alpha virt. eigenvalues --   -0.17391  -0.15045  -0.12666  -0.11026  -0.10093
 Alpha virt. eigenvalues --   -0.08977  -0.08198  -0.06365  -0.05705  -0.04748
 Alpha virt. eigenvalues --   -0.04104  -0.03257  -0.03058  -0.02506  -0.01290
 Alpha virt. eigenvalues --   -0.01161  -0.00800  -0.00344   0.00369   0.01174
 Alpha virt. eigenvalues --    0.01796   0.02101   0.02529   0.02909   0.03225
 Alpha virt. eigenvalues --    0.03914   0.03939   0.04056   0.04700   0.05142
 Alpha virt. eigenvalues --    0.05369   0.06107   0.06724   0.07050   0.07309
 Alpha virt. eigenvalues --    0.07729   0.07880   0.08269   0.08730   0.09202
 Alpha virt. eigenvalues --    0.09581   0.10002   0.10707   0.11115   0.11838
 Alpha virt. eigenvalues --    0.12313   0.12770   0.13231   0.14006   0.14416
 Alpha virt. eigenvalues --    0.14770   0.15238   0.15930   0.16889   0.17285
 Alpha virt. eigenvalues --    0.19162   0.20004   0.20842   0.21252   0.22803
 Alpha virt. eigenvalues --    0.24505   0.25656   0.26456   0.30096   0.31213
 Alpha virt. eigenvalues --    0.31947   0.33698   0.34928   0.35418   0.36965
 Alpha virt. eigenvalues --    0.38380   0.39029   0.39542   0.40017   0.40267
 Alpha virt. eigenvalues --    0.41103   0.41905   0.42544   0.42930   0.43562
 Alpha virt. eigenvalues --    0.44547   0.45047   0.45330   0.45807   0.45984
 Alpha virt. eigenvalues --    0.47262   0.47786   0.48435   0.50023   0.50220
 Alpha virt. eigenvalues --    0.51202   0.51345   0.52261   0.52787   0.53272
 Alpha virt. eigenvalues --    0.53928   0.54332   0.54794   0.54934   0.55236
 Alpha virt. eigenvalues --    0.56117   0.56483   0.57192   0.57827   0.58325
 Alpha virt. eigenvalues --    0.58923   0.59920   0.60140   0.60324   0.61156
 Alpha virt. eigenvalues --    0.61938   0.62224   0.62902   0.63428   0.64036
 Alpha virt. eigenvalues --    0.64342   0.65574   0.65772   0.66618   0.66820
 Alpha virt. eigenvalues --    0.67344   0.68167   0.68992   0.69768   0.69892
 Alpha virt. eigenvalues --    0.71060   0.71461   0.72256   0.72621   0.73564
 Alpha virt. eigenvalues --    0.73797   0.74093   0.74699   0.75069   0.75729
 Alpha virt. eigenvalues --    0.75925   0.76293   0.77412   0.77765   0.78292
 Alpha virt. eigenvalues --    0.79060   0.79406   0.80281   0.80631   0.81041
 Alpha virt. eigenvalues --    0.81189   0.81800   0.82025   0.82199   0.82988
 Alpha virt. eigenvalues --    0.83294   0.83852   0.84165   0.84408   0.85165
 Alpha virt. eigenvalues --    0.85704   0.86311   0.87058   0.87626   0.88614
 Alpha virt. eigenvalues --    0.88750   0.89715   0.90434   0.90588   0.91663
 Alpha virt. eigenvalues --    0.92156   0.93284   0.94708   0.95101   0.95427
 Alpha virt. eigenvalues --    0.96052   0.96967   0.98084   0.98932   0.99208
 Alpha virt. eigenvalues --    0.99741   1.01937   1.02947   1.04188   1.04719
 Alpha virt. eigenvalues --    1.05417   1.06395   1.07152   1.07494   1.09443
 Alpha virt. eigenvalues --    1.10025   1.10845   1.12728   1.14206   1.14683
 Alpha virt. eigenvalues --    1.15833   1.16864   1.17670   1.18952   1.19986
 Alpha virt. eigenvalues --    1.21828   1.22633   1.23513   1.25983   1.26281
 Alpha virt. eigenvalues --    1.27947   1.28172   1.29662   1.31381   1.31633
 Alpha virt. eigenvalues --    1.31990   1.32658   1.33479   1.35224   1.35689
 Alpha virt. eigenvalues --    1.36475   1.40212   1.40612   1.41602   1.42423
 Alpha virt. eigenvalues --    1.43779   1.45021   1.46743   1.49002   1.49765
 Alpha virt. eigenvalues --    1.50059   1.51967   1.53274   1.53441   1.54795
 Alpha virt. eigenvalues --    1.56259   1.56948   1.58220   1.59249   1.59578
 Alpha virt. eigenvalues --    1.60763   1.61660   1.61973   1.62611   1.62938
 Alpha virt. eigenvalues --    1.63784   1.64792   1.65535   1.66209   1.67008
 Alpha virt. eigenvalues --    1.67697   1.67982   1.68804   1.69590   1.70243
 Alpha virt. eigenvalues --    1.70647   1.71514   1.71848   1.72922   1.73789
 Alpha virt. eigenvalues --    1.74085   1.74737   1.75287   1.75686   1.76596
 Alpha virt. eigenvalues --    1.77367   1.78593   1.78793   1.79497   1.79827
 Alpha virt. eigenvalues --    1.80335   1.81853   1.83051   1.83394   1.84018
 Alpha virt. eigenvalues --    1.84071   1.84713   1.86293   1.86908   1.88203
 Alpha virt. eigenvalues --    1.89020   1.89530   1.91059   1.91431   1.92438
 Alpha virt. eigenvalues --    1.93221   1.94269   1.95328   1.96229   1.96577
 Alpha virt. eigenvalues --    1.97020   1.98567   1.99351   2.00232   2.01067
 Alpha virt. eigenvalues --    2.02798   2.03834   2.04814   2.05580   2.08133
 Alpha virt. eigenvalues --    2.09882   2.12227   2.12792   2.13072   2.13530
 Alpha virt. eigenvalues --    2.14264   2.15213   2.15457   2.16199   2.16889
 Alpha virt. eigenvalues --    2.18194   2.19749   2.20053   2.20758   2.23729
 Alpha virt. eigenvalues --    2.23902   2.25062   2.26510   2.26767   2.28492
 Alpha virt. eigenvalues --    2.30002   2.30840   2.32433   2.33595   2.34777
 Alpha virt. eigenvalues --    2.35616   2.36571   2.38438   2.38707   2.39648
 Alpha virt. eigenvalues --    2.40715   2.41056   2.43915   2.45094   2.46213
 Alpha virt. eigenvalues --    2.46824   2.47108   2.48979   2.50538   2.51225
 Alpha virt. eigenvalues --    2.52600   2.53384   2.54560   2.55126   2.56120
 Alpha virt. eigenvalues --    2.57248   2.58088   2.58612   2.59513   2.61734
 Alpha virt. eigenvalues --    2.62149   2.63486   2.65194   2.67789   2.68089
 Alpha virt. eigenvalues --    2.69809   2.73936   2.78106   2.80791   2.82940
 Alpha virt. eigenvalues --    2.83627   2.85592   2.88128   2.89402   2.91514
 Alpha virt. eigenvalues --    2.92147   2.93403   2.98228   3.01939   3.03740
 Alpha virt. eigenvalues --    3.63098   3.71885   3.78320   3.80194   3.86894
 Alpha virt. eigenvalues --    3.89031   3.93227   3.95680   3.96463   4.00082
 Alpha virt. eigenvalues --    4.02614   4.05873   4.10203   4.13552   4.17422
 Alpha virt. eigenvalues --    4.18021   4.19825   4.20684   4.22677   4.27988
 Alpha virt. eigenvalues --    4.29236   4.35007   4.38574   4.42042   4.46395
 Alpha virt. eigenvalues --    4.50439   4.51913   4.54776   4.62630
          Condensed to atoms (all electrons):
 Mulliken charges:
               1
     1  N   -0.736428
     2  C   -0.144137
     3  C    0.625628
     4  O   -0.499412
     5  C   -0.309731
     6  C   -0.397635
     7  C    0.627309
     8  O   -0.471617
     9  O   -0.525836
    10  H    0.445288
    11  H    0.425275
    12  H    0.214501
    13  H    0.219455
    14  H    0.214743
    15  H    0.208401
    16  H    0.201076
    17  H    0.422110
    18  H    0.427357
    19  N   -0.573369
    20  C   -0.112744
    21  C    0.633424
    22  O   -0.499268
    23  C   -0.261352
    24  C   -0.087885
    25  C   -0.449245
    26  C   -0.461260
    27  H    0.376894
    28  H    0.137613
    29  H    0.162292
    30  H    0.179573
    31  H    0.131697
    32  H    0.161630
    33  H    0.160616
    34  H    0.164439
    35  H    0.174128
    36  H    0.091488
    37  H    0.161152
    38  N   -0.673496
    39  C   -0.099801
    40  C    0.627903
    41  O   -0.456067
    42  C   -0.277545
    43  C   -0.290645
    44  C   -0.164890
    45  N   -0.699697
    46  C    0.558137
    47  N   -0.612178
    48  N   -0.746847
    49  O   -0.541661
    50  H    0.424603
    51  H    0.383082
    52  H    0.228932
    53  H    0.163328
    54  H    0.204557
    55  H    0.167271
    56  H    0.068996
    57  H    0.165345
    58  H    0.207966
    59  H    0.350276
    60  H    0.315453
    61  H    0.350635
    62  H    0.310174
 Sum of Mulliken charges =   1.00000
 Mulliken charges with hydrogens summed into heavy atoms:
               1
     1  N    0.538314
     2  C    0.070363
     3  C    0.625628
     4  O   -0.499412
     5  C    0.124466
     6  C    0.011843
     7  C    0.627309
     8  O   -0.471617
     9  O   -0.080548
    19  N   -0.196475
    20  C    0.024869
    21  C    0.633424
    22  O   -0.499268
    23  C    0.080513
    24  C    0.043812
    25  C    0.037441
    26  C   -0.034492
    38  N   -0.290414
    39  C    0.129130
    40  C    0.627903
    41  O   -0.456067
    42  C    0.090340
    43  C   -0.054379
    44  C    0.208421
    45  N   -0.349421
    46  C    0.558137
    47  N   -0.296725
    48  N   -0.086038
    49  O   -0.117058
 Electronic spatial extent (au):  <R**2>=         510977.3030
 Charge=              1.0000 electrons
 Dipole moment (field-independent basis, Debye):
    X=             50.5654    Y=             70.3067    Z=             67.1913  Tot=            109.6110
 Quadrupole moment (field-independent basis, Debye-Ang):
   XX=            365.0682   YY=            842.7427   ZZ=            782.8646
   XY=            709.7253   XZ=            683.6907   YZ=            978.1065
 Traceless Quadrupole moment (field-independent basis, Debye-Ang):
   XX=           -298.4903   YY=            179.1842   ZZ=            119.3061
   XY=            709.7253   XZ=            683.6907   YZ=            978.1065
 Octapole moment (field-independent basis, Debye-Ang**2):
  XXX=           -230.5078  YYY=           5085.7116  ZZZ=           6857.5981  XYY=           7595.2997
  XXY=           4082.0566  XXZ=           4706.8224  XZZ=           7409.4111  YZZ=          10792.6774
  YYZ=          11734.4236  XYZ=           9451.6418
 Hexadecapole moment (field-independent basis, Debye-Ang**3):
 XXXX=         -79610.2161 YYYY=        -142425.4251 ZZZZ=          11624.2046 XXXY=         -35475.0004
 XXXZ=          -7858.9824 YYYX=          13540.1008 YYYZ=          72821.8242 ZZZX=          51255.3763
 ZZZY=          76334.9596 XXYY=           8415.2487 XXZZ=          37794.6188 YYZZ=         111208.6019
 XXYZ=          49207.4762 YYXZ=          98292.7393 ZZXY=          92813.9449
 N-N= 3.278967932570D+03 E-N=-9.903651874456D+03  KE= 1.434101672365D+03
 Unable to Open any file for archive entry.
 1\1\GINC-SKL-157\SP\RB3LYP\6-31G(d)\C17H33N6O6(1+)\KENGMITH\24-May-202
 2\0\\# B3LYP/6-31G* empiricaldispersion=gd3 guess=read geom=check nosy
 mm integral(ultrafinegrid)\\Candidate Structure: Conf:549 Charge calc 
 in gas phase\\1,1\N,0,9.0936698653,16.1689940492,15.0426407589\C,0,10.
 0409021747,15.8903790205,13.8999089244\C,0,9.2375915457,16.1747893473,
 12.6182901553\O,0,8.0234654996,15.9967001763,12.6687345259\C,0,10.5095
 781779,14.4254303462,13.8962243228\C,0,11.1844506081,13.9164626039,15.
 2008272508\C,0,12.057723915,15.0122793108,15.7806496125\O,0,11.5571692
 619,15.9666085869,16.3548191623\O,0,13.3719719146,15.0010062257,15.533
 9389195\H,0,13.6610150962,14.1671648386,15.123877988\H,0,8.8215273151,
 17.1604363288,15.0367893565\H,0,10.8686128449,16.5809866874,14.0528314
 166\H,0,11.2073617081,14.3364709221,13.0588027119\H,0,9.6578881792,13.
 7781744534,13.6595588708\H,0,10.4330674766,13.6684389877,15.9565522745
 \H,0,11.7332846265,12.9951142314,14.982923878\H,0,8.2285746384,15.6267
 711017,14.9111447079\H,0,9.5841405285,15.9795047699,15.9337768229\N,0,
 9.9385594376,16.5068803108,11.5144792855\C,0,11.2762889036,17.12919757
 37,11.4578718227\C,0,11.0284656545,18.645413021,11.3691678928\O,0,10.3
 046034509,19.0896627942,10.4900321413\C,0,12.074740032,16.6071309011,1
 0.2573121932\C,0,12.4865803099,15.1270125389,10.3719582761\C,0,13.0128
 50492,14.6188229654,9.0219282125\C,0,13.542992216,14.9044675124,11.469
 4585855\H,0,9.3495573368,16.7360144602,10.7150617745\H,0,11.8165442861
 ,16.8861786478,12.3739280892\H,0,12.9730847598,17.2299187645,10.151001
 0035\H,0,11.4765369024,16.7757382738,9.3540021356\H,0,11.5861283071,14
 .5461190692,10.6241352131\H,0,13.8986239242,15.1859380879,8.7106796423
 \H,0,13.2964960313,13.5625863833,9.0811327563\H,0,12.2557216198,14.721
 0569369,8.2371976941\H,0,14.4652444186,15.4490314446,11.2338217686\H,0
 ,13.2158741637,15.24257333,12.4641233859\H,0,13.7997508959,13.84194267
 98,11.5491140918\N,0,11.6349176158,19.39528229,12.3361962508\C,0,11.18
 21558419,20.7630339773,12.6062076017\C,0,12.3852262621,21.6401327114,1
 3.0010894946\O,0,12.3341659458,22.484445793,13.8639668091\C,0,10.02676
 2539,20.8242091956,13.6246395816\C,0,10.0941321003,19.8440089561,14.81
 36923011\C,0,11.3853584137,19.8569640891,15.6595999033\N,0,12.37669361
 73,18.8588512256,15.1937080536\C,0,13.7786174323,19.1712745612,15.3023
 207396\N,0,14.3592339064,20.3012779185,15.2649454795\N,0,14.5325773648
 ,18.0129248802,15.4710469311\O,0,13.5029404171,21.428305096,12.2899291
 654\H,0,13.3705903427,20.6607237957,11.7041386476\H,0,12.0341791542,18
 .925769856,13.1567498247\H,0,10.820385036,21.1577555543,11.6494338821\
 H,0,9.0919042173,20.6397753644,13.0840232578\H,0,9.9862353113,21.84828
 21694,14.0065557831\H,0,9.2414329949,20.0741646528,15.4641137405\H,0,9
 .9330588939,18.8180088526,14.4376225501\H,0,11.1456136711,19.661835570
 6,16.7122785086\H,0,11.8246102135,20.853895671,15.6202620027\H,0,12.21
 5551123,17.9829941625,15.6898093577\H,0,13.7438176083,21.1099151257,15
 .2349181656\H,0,15.5248865837,18.1932595822,15.3760196203\H,0,14.22660
 87156,17.1777030159,14.9890985137\\Version=ES64L-G16RevC.01\HF=-1447.4
 350685\RMSD=8.975e-10\Dipole=-2.0572446,-5.7102864,1.2403071\Quadrupol
 e=-221.9202453,133.2190762,88.7011691,527.6633889,508.3072437,727.1981
 782\PG=C01 [X(C17H33N6O6)]\\@
 The archive entry for this job was punched.


 IT'S WHAT YOU LEARN AFTER YOU KNOW IT ALL
 THAT COUNTS.
 Job cpu time:       0 days  0 hours  2 minutes 46.2 seconds.
 Elapsed time:       0 days  0 hours  0 minutes 42.0 seconds.
 File lengths (MBytes):  RWF=    248 Int=      0 D2E=      0 Chk=     32 Scr=     16
 Normal termination of Gaussian 16 at Tue May 24 03:34:35 2022.
