 Entering Gaussian System, Link 0=/opt/software/Gaussian/g16-AVX2-C.01/g16/g16
 Input=charge-conf-797.com
 Output=charge-conf-797.log
 Initial command:
 /opt/software/Gaussian/g16-AVX2-C.01/g16/l1.exe "/mnt/gs18/scratch/users/kengmith/Gau-37982.inp" -scrdir="/mnt/gs18/scratch/users/kengmith/"
 Entering Link 1 = /opt/software/Gaussian/g16-AVX2-C.01/g16/l1.exe PID=     37992.
  
 Copyright (c) 1988-2019, Gaussian, Inc.  All Rights Reserved.
  
 This is part of the Gaussian(R) 16 program.  It is based on
 the Gaussian(R) 09 system (copyright 2009, Gaussian, Inc.),
 the Gaussian(R) 03 system (copyright 2003, Gaussian, Inc.),
 the Gaussian(R) 98 system (copyright 1998, Gaussian, Inc.),
 the Gaussian(R) 94 system (copyright 1995, Gaussian, Inc.),
 the Gaussian 92(TM) system (copyright 1992, Gaussian, Inc.),
 the Gaussian 90(TM) system (copyright 1990, Gaussian, Inc.),
 the Gaussian 88(TM) system (copyright 1988, Gaussian, Inc.),
 the Gaussian 86(TM) system (copyright 1986, Carnegie Mellon
 University), and the Gaussian 82(TM) system (copyright 1983,
 Carnegie Mellon University). Gaussian is a federally registered
 trademark of Gaussian, Inc.
  
 This software contains proprietary and confidential information,
 including trade secrets, belonging to Gaussian, Inc.
  
 This software is provided under written license and may be
 used, copied, transmitted, or stored only in accord with that
 written license.
  
 The following legend is applicable only to US Government
 contracts under FAR:
  
                    RESTRICTED RIGHTS LEGEND
  
 Use, reproduction and disclosure by the US Government is
 subject to restrictions as set forth in subparagraphs (a)
 and (c) of the Commercial Computer Software - Restricted
 Rights clause in FAR 52.227-19.
  
 Gaussian, Inc.
 340 Quinnipiac St., Bldg. 40, Wallingford CT 06492
  
  
 ---------------------------------------------------------------
 Warning -- This program may not be used in any manner that
 competes with the business of Gaussian, Inc. or will provide
 assistance to any competitor of Gaussian, Inc.  The licensee
 of this program is prohibited from giving any competitor of
 Gaussian, Inc. access to this program.  By using this program,
 the user acknowledges that Gaussian, Inc. is engaged in the
 business of creating and licensing software in the field of
 computational chemistry and represents and warrants to the
 licensee that it is not a competitor of Gaussian, Inc. and that
 it will not use this program in any manner prohibited above.
 ---------------------------------------------------------------
  

 Cite this work as:
 Gaussian 16, Revision C.01,
 M. J. Frisch, G. W. Trucks, H. B. Schlegel, G. E. Scuseria, 
 M. A. Robb, J. R. Cheeseman, G. Scalmani, V. Barone, 
 G. A. Petersson, H. Nakatsuji, X. Li, M. Caricato, A. V. Marenich, 
 J. Bloino, B. G. Janesko, R. Gomperts, B. Mennucci, H. P. Hratchian, 
 J. V. Ortiz, A. F. Izmaylov, J. L. Sonnenberg, D. Williams-Young, 
 F. Ding, F. Lipparini, F. Egidi, J. Goings, B. Peng, A. Petrone, 
 T. Henderson, D. Ranasinghe, V. G. Zakrzewski, J. Gao, N. Rega, 
 G. Zheng, W. Liang, M. Hada, M. Ehara, K. Toyota, R. Fukuda, 
 J. Hasegawa, M. Ishida, T. Nakajima, Y. Honda, O. Kitao, H. Nakai, 
 T. Vreven, K. Throssell, J. A. Montgomery, Jr., J. E. Peralta, 
 F. Ogliaro, M. J. Bearpark, J. J. Heyd, E. N. Brothers, K. N. Kudin, 
 V. N. Staroverov, T. A. Keith, R. Kobayashi, J. Normand, 
 K. Raghavachari, A. P. Rendell, J. C. Burant, S. S. Iyengar, 
 J. Tomasi, M. Cossi, J. M. Millam, M. Klene, C. Adamo, R. Cammi, 
 J. W. Ochterski, R. L. Martin, K. Morokuma, O. Farkas, 
 J. B. Foresman, and D. J. Fox, Gaussian, Inc., Wallingford CT, 2019.
 
 ******************************************
 Gaussian 16:  ES64L-G16RevC.01  3-Jul-2019
                24-May-2022 
 ******************************************
 %mem=8gb
 %nproc=4
 Will use up to    4 processors via shared memory.
 %chk=conf-797.chk
 ----------------------------------------------------------------------
 # B3LYP/6-31G* empiricaldispersion=gd3 guess=read geom=check nosymm in
 tegral(ultrafinegrid)
 ----------------------------------------------------------------------
 1/29=2,38=1,172=1/1;
 2/12=2,15=1,40=1/2;
 3/5=1,6=6,7=1,11=2,14=-4,25=1,30=1,74=-5,75=-5,116=-2,124=31/1,2,3;
 4/5=1/1;
 5/5=2,38=6/2;
 6/7=2,8=2,9=2,10=2,28=1/1;
 99/5=1,9=1/99;
 ------------------------------------------------------
 Candidate Structure: Conf:797 Charge calc in gas phase
 ------------------------------------------------------
 Structure from the checkpoint file:  "conf-797.chk"
 Charge =  1 Multiplicity = 1
 Redundant internal coordinates found in file.  (old form).
 N,0,8.9209820446,16.3188670154,12.7977983583
 C,0,9.9063450759,16.7311979145,11.7287345926
 C,0,9.2506522015,17.9814145613,11.1139314921
 O,0,8.1473253728,17.8376137397,10.6018996876
 C,0,10.1419652274,15.6331398697,10.6833725193
 C,0,10.4876131605,14.2198543359,11.2362038566
 C,0,11.3235197345,14.266336354,12.5027193359
 O,0,10.7882053892,14.6131046628,13.5748136145
 O,0,12.5821163924,13.9838116108,12.3803744992
 H,0,13.1159540349,14.0865679822,13.2982541371
 H,0,7.9952154151,16.1709812353,12.3797818673
 H,0,10.8296089322,16.9335570298,12.2675786138
 H,0,10.9661489016,15.9893700986,10.0552322716
 H,0,9.2613526259,15.5627162402,10.0379773462
 H,0,9.5653687998,13.6853007291,11.4881678146
 H,0,11.0016557512,13.6491348734,10.4606563717
 H,0,9.3115698368,15.4699131707,13.2751195912
 H,0,8.8754311663,17.0960018692,13.4789773765
 N,0,9.8782268799,19.1778455858,11.218214926
 C,0,11.0890739737,19.5189928537,11.9465328411
 C,0,11.0297675863,19.0471509779,13.430652358
 O,0,9.9905054445,18.6560620021,13.9565402659
 C,0,11.3058362526,21.0487175361,11.8737947245
 C,0,11.484811803,21.6290612756,10.4543346516
 C,0,11.6665190536,23.151145728,10.5543491363
 C,0,12.6573320426,20.9804481552,9.7064590412
 H,0,9.3219659355,19.945097173,10.8567246535
 H,0,11.9476993113,19.0204667233,11.4770231143
 H,0,12.1982358109,21.302992816,12.4597031627
 H,0,10.4600244881,21.5352438757,12.3779040714
 H,0,10.5682016288,21.4422823032,9.8759687806
 H,0,10.8260657154,23.624952545,11.0740115687
 H,0,12.5854046377,23.4002554062,11.0997229311
 H,0,11.7400246461,23.5973534993,9.5576524348
 H,0,13.5930885248,21.0939533407,10.2696220153
 H,0,12.4950565864,19.9121846031,9.5198131241
 H,0,12.800972944,21.4578597968,8.732217899
 N,0,12.2578633497,19.0586196635,14.0235046158
 C,0,12.6660713186,18.8889188895,15.4420880604
 C,0,13.8834654075,17.9397560426,15.5470084829
 O,0,14.461477953,17.7760196548,16.5854261639
 C,0,11.5715900942,18.6032568061,16.4927336364
 C,0,10.8709760317,17.2368435399,16.5822125966
 C,0,11.7559170272,16.0331368385,16.9267653154
 N,0,12.4667902391,15.5929300576,15.7317365079
 C,0,13.4608782747,14.6255180722,15.8333693456
 N,0,13.9227901947,13.9971953205,16.8355522137
 N,0,14.0579821486,14.3812764984,14.5359284201
 O,0,14.3463058618,17.4183703609,14.3728319022
 H,0,13.6344648691,17.5036343517,13.7134346162
 H,0,12.9640408221,19.553586792,13.4875671703
 H,0,13.0855174573,19.8605724802,15.7343629647
 H,0,10.8093702871,19.3797843305,16.380741859
 H,0,12.0743822909,18.7885134297,17.4484943475
 H,0,10.1133834072,17.3375449669,17.3684824819
 H,0,10.3195065921,17.0343492467,15.6578815991
 H,0,11.1373727053,15.2258802241,17.3492844978
 H,0,12.4989135395,16.3117131561,17.6817914977
 H,0,11.8428698952,15.3930574942,14.9508650787
 H,0,13.4027864029,14.1883085395,17.6923853831
 H,0,14.7372870591,13.6285478798,14.6581709837
 H,0,14.5723036239,15.2261748247,14.2691338436
 Recover connectivity data from disk.
                           ----------------------------
                           !    Current Parameters    !
                           ! (Angstroms and Degrees)  !
 --------------------------                            --------------------------
 ! Name  Definition              Value                                          !
 --------------------------------------------------------------------------------
 ! R1    R(1,2)                  1.5112                                         !
 ! R2    R(1,11)                 1.0265                                         !
 ! R3    R(1,17)                 1.0493                                         !
 ! R4    R(1,18)                 1.0344                                         !
 ! R5    R(2,3)                  1.5398                                         !
 ! R6    R(2,5)                  1.5343                                         !
 ! R7    R(2,12)                 1.088                                          !
 ! R8    R(3,4)                  1.2248                                         !
 ! R9    R(3,19)                 1.3551                                         !
 ! R10   R(5,6)                  1.5564                                         !
 ! R11   R(5,13)                 1.0958                                         !
 ! R12   R(5,14)                 1.0941                                         !
 ! R13   R(6,7)                  1.5182                                         !
 ! R14   R(6,15)                 1.0953                                         !
 ! R15   R(6,16)                 1.0915                                         !
 ! R16   R(7,8)                  1.2475                                         !
 ! R17   R(7,9)                  1.2957                                         !
 ! R18   R(9,10)                 1.0668                                         !
 ! R19   R(19,20)                1.4536                                         !
 ! R20   R(19,27)                1.0143                                         !
 ! R21   R(20,21)                1.5584                                         !
 ! R22   R(20,23)                1.5467                                         !
 ! R23   R(20,28)                1.0983                                         !
 ! R24   R(21,22)                1.2286                                         !
 ! R25   R(21,38)                1.3638                                         !
 ! R26   R(23,24)                1.5439                                         !
 ! R27   R(23,29)                1.0974                                         !
 ! R28   R(23,30)                1.0983                                         !
 ! R29   R(24,25)                1.5362                                         !
 ! R30   R(24,26)                1.5345                                         !
 ! R31   R(24,31)                1.0998                                         !
 ! R32   R(25,32)                1.0959                                         !
 ! R33   R(25,33)                1.0972                                         !
 ! R34   R(25,34)                1.0945                                         !
 ! R35   R(26,35)                1.098                                          !
 ! R36   R(26,36)                1.0965                                         !
 ! R37   R(26,37)                1.0944                                         !
 ! R38   R(38,39)                1.4859                                         !
 ! R39   R(38,51)                1.0153                                         !
 ! R40   R(39,40)                1.5472                                         !
 ! R41   R(39,42)                1.5438                                         !
 ! R42   R(39,52)                1.0979                                         !
 ! R43   R(40,41)                1.1997                                         !
 ! R44   R(40,49)                1.3656                                         !
 ! R45   R(42,43)                1.5382                                         !
 ! R46   R(42,53)                1.0939                                         !
 ! R47   R(42,54)                1.0957                                         !
 ! R48   R(43,44)                1.5332                                         !
 ! R49   R(43,55)                1.0965                                         !
 ! R50   R(43,56)                1.0952                                         !
 ! R51   R(44,45)                1.4585                                         !
 ! R52   R(44,57)                1.1013                                         !
 ! R53   R(44,58)                1.0953                                         !
 ! R54   R(45,46)                1.3908                                         !
 ! R55   R(45,59)                1.0193                                         !
 ! R56   R(46,47)                1.2699                                         !
 ! R57   R(46,48)                1.449                                          !
 ! R58   R(47,60)                1.0203                                         !
 ! R59   R(48,61)                1.0213                                         !
 ! R60   R(48,62)                1.0245                                         !
 ! R61   R(49,50)                0.9741                                         !
 ! A1    A(2,1,11)             109.833                                          !
 ! A2    A(2,1,17)             107.4471                                         !
 ! A3    A(2,1,18)             106.8322                                         !
 ! A4    A(11,1,17)            113.8526                                         !
 ! A5    A(11,1,18)            109.6755                                         !
 ! A6    A(17,1,18)            108.9449                                         !
 ! A7    A(1,2,3)              103.0811                                         !
 ! A8    A(1,2,5)              112.7583                                         !
 ! A9    A(1,2,12)             104.6963                                         !
 ! A10   A(3,2,5)              111.9899                                         !
 ! A11   A(3,2,12)             114.0851                                         !
 ! A12   A(5,2,12)             109.8912                                         !
 ! A13   A(2,3,4)              117.0767                                         !
 ! A14   A(2,3,19)             119.2714                                         !
 ! A15   A(4,3,19)             123.5752                                         !
 ! A16   A(2,5,6)              116.229                                          !
 ! A17   A(2,5,13)             105.8672                                         !
 ! A18   A(2,5,14)             108.9282                                         !
 ! A19   A(6,5,13)             109.3761                                         !
 ! A20   A(6,5,14)             109.2586                                         !
 ! A21   A(13,5,14)            106.7485                                         !
 ! A22   A(5,6,7)              113.003                                          !
 ! A23   A(5,6,15)             109.7469                                         !
 ! A24   A(5,6,16)             109.0862                                         !
 ! A25   A(7,6,15)             106.6559                                         !
 ! A26   A(7,6,16)             110.453                                          !
 ! A27   A(15,6,16)            107.7454                                         !
 ! A28   A(6,7,8)              119.2866                                         !
 ! A29   A(6,7,9)              116.7034                                         !
 ! A30   A(8,7,9)              123.9582                                         !
 ! A31   A(7,9,10)             112.5715                                         !
 ! A32   A(3,19,20)            129.1658                                         !
 ! A33   A(3,19,27)            112.7351                                         !
 ! A34   A(20,19,27)           117.2501                                         !
 ! A35   A(19,20,21)           111.9866                                         !
 ! A36   A(19,20,23)           108.983                                          !
 ! A37   A(19,20,28)           109.2995                                         !
 ! A38   A(21,20,23)           110.4601                                         !
 ! A39   A(21,20,28)           107.4234                                         !
 ! A40   A(23,20,28)           108.6184                                         !
 ! A41   A(20,21,22)           122.4232                                         !
 ! A42   A(20,21,38)           112.1586                                         !
 ! A43   A(22,21,38)           125.3328                                         !
 ! A44   A(20,23,24)           115.5464                                         !
 ! A45   A(20,23,29)           108.5428                                         !
 ! A46   A(20,23,30)           107.9753                                         !
 ! A47   A(24,23,29)           108.0289                                         !
 ! A48   A(24,23,30)           110.1668                                         !
 ! A49   A(29,23,30)           106.1736                                         !
 ! A50   A(23,24,25)           109.0444                                         !
 ! A51   A(23,24,26)           112.1955                                         !
 ! A52   A(23,24,31)           108.8467                                         !
 ! A53   A(25,24,26)           111.1096                                         !
 ! A54   A(25,24,31)           107.5235                                         !
 ! A55   A(26,24,31)           107.983                                          !
 ! A56   A(24,25,32)           111.6267                                         !
 ! A57   A(24,25,33)           110.8786                                         !
 ! A58   A(24,25,34)           110.6468                                         !
 ! A59   A(32,25,33)           107.9643                                         !
 ! A60   A(32,25,34)           107.8831                                         !
 ! A61   A(33,25,34)           107.6885                                         !
 ! A62   A(24,26,35)           110.9474                                         !
 ! A63   A(24,26,36)           112.4367                                         !
 ! A64   A(24,26,37)           110.4724                                         !
 ! A65   A(35,26,36)           108.3082                                         !
 ! A66   A(35,26,37)           107.4351                                         !
 ! A67   A(36,26,37)           107.0309                                         !
 ! A68   A(21,38,39)           131.4123                                         !
 ! A69   A(21,38,51)           113.6383                                         !
 ! A70   A(39,38,51)           111.6256                                         !
 ! A71   A(38,39,40)           110.5461                                         !
 ! A72   A(38,39,42)           118.4311                                         !
 ! A73   A(38,39,52)           104.9531                                         !
 ! A74   A(40,39,42)           113.4626                                         !
 ! A75   A(40,39,52)           102.9591                                         !
 ! A76   A(42,39,52)           104.6805                                         !
 ! A77   A(39,40,41)           121.434                                          !
 ! A78   A(39,40,49)           116.2697                                         !
 ! A79   A(41,40,49)           121.9283                                         !
 ! A80   A(39,42,43)           121.795                                          !
 ! A81   A(39,42,53)           107.0361                                         !
 ! A82   A(39,42,54)           103.7111                                         !
 ! A83   A(43,42,53)           108.6143                                         !
 ! A84   A(43,42,54)           107.9665                                         !
 ! A85   A(53,42,54)           106.7999                                         !
 ! A86   A(42,43,44)           116.5897                                         !
 ! A87   A(42,43,55)           105.9522                                         !
 ! A88   A(42,43,56)           110.1511                                         !
 ! A89   A(44,43,55)           108.0437                                         !
 ! A90   A(44,43,56)           109.5805                                         !
 ! A91   A(55,43,56)           105.9187                                         !
 ! A92   A(43,44,45)           109.5205                                         !
 ! A93   A(43,44,57)           109.7263                                         !
 ! A94   A(43,44,58)           110.2892                                         !
 ! A95   A(45,44,57)           111.5229                                         !
 ! A96   A(45,44,58)           108.116                                          !
 ! A97   A(57,44,58)           107.6358                                         !
 ! A98   A(44,45,46)           119.8961                                         !
 ! A99   A(44,45,59)           112.8635                                         !
 ! A100  A(46,45,59)           110.9213                                         !
 ! A101  A(45,46,47)           131.4391                                         !
 ! A102  A(45,46,48)           110.2641                                         !
 ! A103  A(47,46,48)           118.2535                                         !
 ! A104  A(46,47,60)           112.6241                                         !
 ! A105  A(46,48,61)           106.9275                                         !
 ! A106  A(46,48,62)           107.5207                                         !
 ! A107  A(61,48,62)           107.7638                                         !
 ! A108  A(40,49,50)           107.5156                                         !
 ! D1    D(11,1,2,3)            56.4446                                         !
 ! D2    D(11,1,2,5)           -64.5094                                         !
 ! D3    D(11,1,2,12)          176.0536                                         !
 ! D4    D(17,1,2,3)          -179.2247                                         !
 ! D5    D(17,1,2,5)            59.8213                                         !
 ! D6    D(17,1,2,12)          -59.6157                                         !
 ! D7    D(18,1,2,3)           -62.4407                                         !
 ! D8    D(18,1,2,5)           176.6052                                         !
 ! D9    D(18,1,2,12)           57.1682                                         !
 ! D10   D(1,2,3,4)            -60.5306                                         !
 ! D11   D(1,2,3,19)           116.3982                                         !
 ! D12   D(5,2,3,4)             60.9454                                         !
 ! D13   D(5,2,3,19)          -122.1257                                         !
 ! D14   D(12,2,3,4)          -173.4328                                         !
 ! D15   D(12,2,3,19)            3.4961                                         !
 ! D16   D(1,2,5,6)            -50.5876                                         !
 ! D17   D(1,2,5,13)          -172.225                                          !
 ! D18   D(1,2,5,14)            73.307                                          !
 ! D19   D(3,2,5,6)           -166.3157                                         !
 ! D20   D(3,2,5,13)            72.0469                                         !
 ! D21   D(3,2,5,14)           -42.4211                                         !
 ! D22   D(12,2,5,6)            65.7945                                         !
 ! D23   D(12,2,5,13)          -55.8429                                         !
 ! D24   D(12,2,5,14)         -170.3109                                         !
 ! D25   D(2,3,19,20)           -5.6675                                         !
 ! D26   D(2,3,19,27)         -174.6738                                         !
 ! D27   D(4,3,19,20)          171.0502                                         !
 ! D28   D(4,3,19,27)            2.0438                                         !
 ! D29   D(2,5,6,7)            -34.749                                          !
 ! D30   D(2,5,6,15)            84.1479                                         !
 ! D31   D(2,5,6,16)          -158.0202                                         !
 ! D32   D(13,5,6,7)            85.0108                                         !
 ! D33   D(13,5,6,15)         -156.0923                                         !
 ! D34   D(13,5,6,16)          -38.2605                                         !
 ! D35   D(14,5,6,7)          -158.4728                                         !
 ! D36   D(14,5,6,15)          -39.5759                                         !
 ! D37   D(14,5,6,16)           78.2559                                         !
 ! D38   D(5,6,7,8)             73.083                                          !
 ! D39   D(5,6,7,9)           -104.4048                                         !
 ! D40   D(15,6,7,8)           -47.59                                           !
 ! D41   D(15,6,7,9)           134.9223                                         !
 ! D42   D(16,6,7,8)          -164.4054                                         !
 ! D43   D(16,6,7,9)            18.1068                                         !
 ! D44   D(6,7,9,10)           176.9595                                         !
 ! D45   D(8,7,9,10)            -0.3987                                         !
 ! D46   D(3,19,20,21)         -51.4427                                         !
 ! D47   D(3,19,20,23)        -173.9591                                         !
 ! D48   D(3,19,20,28)          67.4736                                         !
 ! D49   D(27,19,20,21)        117.1467                                         !
 ! D50   D(27,19,20,23)         -5.3698                                         !
 ! D51   D(27,19,20,28)       -123.9371                                         !
 ! D52   D(19,20,21,22)        -12.0132                                         !
 ! D53   D(19,20,21,38)        164.7916                                         !
 ! D54   D(23,20,21,22)        109.6589                                         !
 ! D55   D(23,20,21,38)        -73.5363                                         !
 ! D56   D(28,20,21,22)       -132.0317                                         !
 ! D57   D(28,20,21,38)         44.7732                                         !
 ! D58   D(19,20,23,24)        -60.8061                                         !
 ! D59   D(19,20,23,29)        177.718                                          !
 ! D60   D(19,20,23,30)         63.0283                                         !
 ! D61   D(21,20,23,24)        175.7637                                         !
 ! D62   D(21,20,23,29)         54.2878                                         !
 ! D63   D(21,20,23,30)        -60.402                                          !
 ! D64   D(28,20,23,24)         58.1872                                         !
 ! D65   D(28,20,23,29)        -63.2887                                         !
 ! D66   D(28,20,23,30)       -177.9785                                         !
 ! D67   D(20,21,38,39)        169.9003                                         !
 ! D68   D(20,21,38,51)         12.613                                          !
 ! D69   D(22,21,38,39)        -13.4059                                         !
 ! D70   D(22,21,38,51)       -170.6932                                         !
 ! D71   D(20,23,24,25)        179.1425                                         !
 ! D72   D(20,23,24,26)        -57.3299                                         !
 ! D73   D(20,23,24,31)         62.1159                                         !
 ! D74   D(29,23,24,25)        -59.1058                                         !
 ! D75   D(29,23,24,26)         64.4219                                         !
 ! D76   D(29,23,24,31)       -176.1324                                         !
 ! D77   D(30,23,24,25)         56.4635                                         !
 ! D78   D(30,23,24,26)        179.9912                                         !
 ! D79   D(30,23,24,31)        -60.5631                                         !
 ! D80   D(23,24,25,32)        -56.6856                                         !
 ! D81   D(23,24,25,33)         63.7336                                         !
 ! D82   D(23,24,25,34)       -176.8441                                         !
 ! D83   D(26,24,25,32)        179.144                                          !
 ! D84   D(26,24,25,33)        -60.4368                                         !
 ! D85   D(26,24,25,34)         58.9855                                         !
 ! D86   D(31,24,25,32)         61.178                                          !
 ! D87   D(31,24,25,33)       -178.4028                                         !
 ! D88   D(31,24,25,34)        -58.9805                                         !
 ! D89   D(23,24,26,35)        -57.1584                                         !
 ! D90   D(23,24,26,36)         64.3065                                         !
 ! D91   D(23,24,26,37)       -176.1955                                         !
 ! D92   D(25,24,26,35)         65.2044                                         !
 ! D93   D(25,24,26,36)       -173.3307                                         !
 ! D94   D(25,24,26,37)        -53.8327                                         !
 ! D95   D(31,24,26,35)       -177.1083                                         !
 ! D96   D(31,24,26,36)        -55.6434                                         !
 ! D97   D(31,24,26,37)         63.8546                                         !
 ! D98   D(21,38,39,40)        135.4797                                         !
 ! D99   D(21,38,39,42)          2.1314                                         !
 ! D100  D(21,38,39,52)       -114.1563                                         !
 ! D101  D(51,38,39,40)        -66.8847                                         !
 ! D102  D(51,38,39,42)        159.767                                          !
 ! D103  D(51,38,39,52)         43.4792                                         !
 ! D104  D(38,39,40,41)        172.0595                                         !
 ! D105  D(38,39,40,49)         -1.1035                                         !
 ! D106  D(42,39,40,41)        -52.1374                                         !
 ! D107  D(42,39,40,49)        134.6996                                         !
 ! D108  D(52,39,40,41)         60.4051                                         !
 ! D109  D(52,39,40,49)       -112.7579                                         !
 ! D110  D(38,39,42,43)         72.963                                          !
 ! D111  D(38,39,42,53)        -52.6805                                         !
 ! D112  D(38,39,42,54)       -165.3815                                         !
 ! D113  D(40,39,42,43)        -59.1082                                         !
 ! D114  D(40,39,42,53)        175.2483                                         !
 ! D115  D(40,39,42,54)         62.5473                                         !
 ! D116  D(52,39,42,43)       -170.6037                                         !
 ! D117  D(52,39,42,53)         63.7529                                         !
 ! D118  D(52,39,42,54)        -48.9481                                         !
 ! D119  D(39,40,49,50)        -19.1523                                         !
 ! D120  D(41,40,49,50)        167.7215                                         !
 ! D121  D(39,42,43,44)         62.8509                                         !
 ! D122  D(39,42,43,55)       -176.9289                                         !
 ! D123  D(39,42,43,56)        -62.8026                                         !
 ! D124  D(53,42,43,44)       -172.2228                                         !
 ! D125  D(53,42,43,55)        -52.0026                                         !
 ! D126  D(53,42,43,56)         62.1237                                         !
 ! D127  D(54,42,43,44)        -56.7655                                         !
 ! D128  D(54,42,43,55)         63.4547                                         !
 ! D129  D(54,42,43,56)        177.581                                          !
 ! D130  D(42,43,44,45)        -79.6717                                         !
 ! D131  D(42,43,44,57)        157.6015                                         !
 ! D132  D(42,43,44,58)         39.1962                                         !
 ! D133  D(55,43,44,45)        161.231                                          !
 ! D134  D(55,43,44,57)         38.5042                                         !
 ! D135  D(55,43,44,58)        -79.9011                                         !
 ! D136  D(56,43,44,45)         46.2677                                         !
 ! D137  D(56,43,44,57)        -76.4591                                         !
 ! D138  D(56,43,44,58)        165.1356                                         !
 ! D139  D(43,44,45,46)        171.6718                                         !
 ! D140  D(43,44,45,59)        -54.7419                                         !
 ! D141  D(57,44,45,46)        -66.6757                                         !
 ! D142  D(57,44,45,59)         66.9106                                         !
 ! D143  D(58,44,45,46)         51.4679                                         !
 ! D144  D(58,44,45,59)       -174.9458                                         !
 ! D145  D(44,45,46,47)         -0.4622                                         !
 ! D146  D(44,45,46,48)       -177.9688                                         !
 ! D147  D(59,45,46,47)       -134.857                                          !
 ! D148  D(59,45,46,48)         47.6364                                         !
 ! D149  D(45,46,47,60)          6.3178                                         !
 ! D150  D(48,46,47,60)       -176.3378                                         !
 ! D151  D(45,46,48,61)       -176.7072                                         !
 ! D152  D(45,46,48,62)         67.7931                                         !
 ! D153  D(47,46,48,61)          5.4146                                         !
 ! D154  D(47,46,48,62)       -110.0851                                         !
 --------------------------------------------------------------------------------
 Symmetry turned off by external request.
 Stoichiometry    C17H33N6O6(1+)
 Framework group  C1[X(C17H33N6O6)]
 Deg. of freedom   180
 Full point group                 C1      NOp   1
                          Input orientation:                          
 ---------------------------------------------------------------------
 Center     Atomic      Atomic             Coordinates (Angstroms)
 Number     Number       Type             X           Y           Z
 ---------------------------------------------------------------------
      1          7           0        8.920982   16.318867   12.797798
      2          6           0        9.906345   16.731198   11.728735
      3          6           0        9.250652   17.981415   11.113931
      4          8           0        8.147325   17.837614   10.601900
      5          6           0       10.141965   15.633140   10.683373
      6          6           0       10.487613   14.219854   11.236204
      7          6           0       11.323520   14.266336   12.502719
      8          8           0       10.788205   14.613105   13.574814
      9          8           0       12.582116   13.983812   12.380374
     10          1           0       13.115954   14.086568   13.298254
     11          1           0        7.995215   16.170981   12.379782
     12          1           0       10.829609   16.933557   12.267579
     13          1           0       10.966149   15.989370   10.055232
     14          1           0        9.261353   15.562716   10.037977
     15          1           0        9.565369   13.685301   11.488168
     16          1           0       11.001656   13.649135   10.460656
     17          1           0        9.311570   15.469913   13.275120
     18          1           0        8.875431   17.096002   13.478977
     19          7           0        9.878227   19.177846   11.218215
     20          6           0       11.089074   19.518993   11.946533
     21          6           0       11.029768   19.047151   13.430652
     22          8           0        9.990505   18.656062   13.956540
     23          6           0       11.305836   21.048718   11.873795
     24          6           0       11.484812   21.629061   10.454335
     25          6           0       11.666519   23.151146   10.554349
     26          6           0       12.657332   20.980448    9.706459
     27          1           0        9.321966   19.945097   10.856725
     28          1           0       11.947699   19.020467   11.477023
     29          1           0       12.198236   21.302993   12.459703
     30          1           0       10.460024   21.535244   12.377904
     31          1           0       10.568202   21.442282    9.875969
     32          1           0       10.826066   23.624953   11.074012
     33          1           0       12.585405   23.400255   11.099723
     34          1           0       11.740025   23.597353    9.557652
     35          1           0       13.593089   21.093953   10.269622
     36          1           0       12.495057   19.912185    9.519813
     37          1           0       12.800973   21.457860    8.732218
     38          7           0       12.257863   19.058620   14.023505
     39          6           0       12.666071   18.888919   15.442088
     40          6           0       13.883465   17.939756   15.547008
     41          8           0       14.461478   17.776020   16.585426
     42          6           0       11.571590   18.603257   16.492734
     43          6           0       10.870976   17.236844   16.582213
     44          6           0       11.755917   16.033137   16.926765
     45          7           0       12.466790   15.592930   15.731737
     46          6           0       13.460878   14.625518   15.833369
     47          7           0       13.922790   13.997195   16.835552
     48          7           0       14.057982   14.381276   14.535928
     49          8           0       14.346306   17.418370   14.372832
     50          1           0       13.634465   17.503634   13.713435
     51          1           0       12.964041   19.553587   13.487567
     52          1           0       13.085517   19.860572   15.734363
     53          1           0       10.809370   19.379784   16.380742
     54          1           0       12.074382   18.788513   17.448494
     55          1           0       10.113383   17.337545   17.368482
     56          1           0       10.319507   17.034349   15.657882
     57          1           0       11.137373   15.225880   17.349284
     58          1           0       12.498914   16.311713   17.681791
     59          1           0       11.842870   15.393057   14.950865
     60          1           0       13.402786   14.188309   17.692385
     61          1           0       14.737287   13.628548   14.658171
     62          1           0       14.572304   15.226175   14.269134
 ---------------------------------------------------------------------
 Rotational constants (GHZ):           0.2062958           0.1232002           0.0964463
 Standard basis: 6-31G(d) (6D, 7F)
   501 basis functions,   944 primitive gaussians,   501 cartesian basis functions
   112 alpha electrons      112 beta electrons
       nuclear repulsion energy      3254.9089663698 Hartrees.
 NAtoms=   62 NActive=   62 NUniq=   62 SFac= 1.00D+00 NAtFMM=   60 NAOKFM=T Big=T
 Integral buffers will be    131072 words long.
 Raffenetti 2 integral format.
 Two-electron integral symmetry is turned off.
 Nuclear repulsion after empirical dispersion term =     3254.8205546933 Hartrees.
 One-electron integrals computed using PRISM.
 NBasis=   501 RedAO= T EigKep=  1.77D-03  NBF=   501
 NBsUse=   501 1.00D-06 EigRej= -1.00D+00 NBFU=   501
 Initial guess from the checkpoint file:  "conf-797.chk"
 B after Tr=     0.000000    0.000000    0.000000
         Rot=    1.000000    0.000000    0.000000    0.000000 Ang=   0.00 deg.
 Requested convergence on RMS density matrix=1.00D-08 within 128 cycles.
 Requested convergence on MAX density matrix=1.00D-06.
 Requested convergence on             energy=1.00D-06.
 No special actions if energy rises.
 SCF Done:  E(RB3LYP) =  -1447.47075048     A.U. after    1 cycles
            NFock=  1  Conv=0.75D-08     -V/T= 2.0093

 **********************************************************************

            Population analysis using the SCF Density.

 **********************************************************************

 Alpha  occ. eigenvalues --  -19.31044 -19.30427 -19.27944 -19.27852 -19.26024
 Alpha  occ. eigenvalues --  -19.24375 -14.58239 -14.52147 -14.50722 -14.46132
 Alpha  occ. eigenvalues --  -14.44242 -14.39101 -10.45834 -10.44891 -10.43796
 Alpha  occ. eigenvalues --  -10.43289 -10.40594 -10.38734 -10.37837 -10.37437
 Alpha  occ. eigenvalues --  -10.34878 -10.33735 -10.32717 -10.31655 -10.31063
 Alpha  occ. eigenvalues --  -10.30842 -10.29561 -10.28448 -10.27576  -1.22901
 Alpha  occ. eigenvalues --   -1.21354  -1.19646  -1.18410  -1.14436  -1.13325
 Alpha  occ. eigenvalues --   -1.12749  -1.08023  -1.07560  -1.07285  -0.99310
 Alpha  occ. eigenvalues --   -0.95059  -0.94658  -0.94048  -0.91727  -0.88326
 Alpha  occ. eigenvalues --   -0.87679  -0.85277  -0.79957  -0.79501  -0.79072
 Alpha  occ. eigenvalues --   -0.77768  -0.74805  -0.74006  -0.73437  -0.72890
 Alpha  occ. eigenvalues --   -0.71561  -0.71191  -0.69420  -0.68759  -0.67888
 Alpha  occ. eigenvalues --   -0.67590  -0.65374  -0.64707  -0.64078  -0.63741
 Alpha  occ. eigenvalues --   -0.62924  -0.62762  -0.61051  -0.60136  -0.59647
 Alpha  occ. eigenvalues --   -0.59451  -0.58995  -0.58489  -0.57407  -0.57168
 Alpha  occ. eigenvalues --   -0.56715  -0.55952  -0.55115  -0.55063  -0.54543
 Alpha  occ. eigenvalues --   -0.54254  -0.54150  -0.53608  -0.53171  -0.52395
 Alpha  occ. eigenvalues --   -0.51827  -0.51092  -0.50615  -0.50211  -0.49769
 Alpha  occ. eigenvalues --   -0.49711  -0.49416  -0.49099  -0.47913  -0.47054
 Alpha  occ. eigenvalues --   -0.45845  -0.45045  -0.44911  -0.44681  -0.44346
 Alpha  occ. eigenvalues --   -0.44277  -0.44174  -0.43187  -0.42216  -0.41888
 Alpha  occ. eigenvalues --   -0.41210  -0.40218  -0.39515  -0.39075  -0.37450
 Alpha  occ. eigenvalues --   -0.36178  -0.33154
 Alpha virt. eigenvalues --   -0.14202  -0.13856  -0.12872  -0.10341  -0.09618
 Alpha virt. eigenvalues --   -0.07307  -0.06008  -0.05548  -0.04409  -0.02538
 Alpha virt. eigenvalues --   -0.02029  -0.01250  -0.01010  -0.00496  -0.00218
 Alpha virt. eigenvalues --    0.00587   0.00876   0.01540   0.02094   0.02403
 Alpha virt. eigenvalues --    0.02424   0.02748   0.03418   0.03732   0.04303
 Alpha virt. eigenvalues --    0.04841   0.04975   0.05280   0.05524   0.05954
 Alpha virt. eigenvalues --    0.06424   0.06740   0.06933   0.07183   0.07330
 Alpha virt. eigenvalues --    0.07893   0.08351   0.08658   0.09064   0.09637
 Alpha virt. eigenvalues --    0.09856   0.10320   0.10699   0.10904   0.11269
 Alpha virt. eigenvalues --    0.11899   0.12049   0.12991   0.13531   0.14065
 Alpha virt. eigenvalues --    0.14787   0.15369   0.16205   0.16907   0.17589
 Alpha virt. eigenvalues --    0.19758   0.20559   0.21037   0.22422   0.22845
 Alpha virt. eigenvalues --    0.24629   0.25435   0.27545   0.27898   0.29146
 Alpha virt. eigenvalues --    0.34103   0.34570   0.35930   0.36818   0.37672
 Alpha virt. eigenvalues --    0.38663   0.39234   0.39430   0.40843   0.41108
 Alpha virt. eigenvalues --    0.42091   0.42435   0.42797   0.43575   0.43773
 Alpha virt. eigenvalues --    0.44283   0.44899   0.45026   0.46313   0.46854
 Alpha virt. eigenvalues --    0.47542   0.47953   0.48653   0.49509   0.50173
 Alpha virt. eigenvalues --    0.50638   0.50715   0.51642   0.52305   0.52756
 Alpha virt. eigenvalues --    0.53622   0.54348   0.54786   0.55619   0.55894
 Alpha virt. eigenvalues --    0.56436   0.57355   0.58195   0.58953   0.59834
 Alpha virt. eigenvalues --    0.60640   0.60988   0.61257   0.61524   0.62040
 Alpha virt. eigenvalues --    0.62463   0.63481   0.63852   0.64127   0.64814
 Alpha virt. eigenvalues --    0.66018   0.66659   0.67257   0.67652   0.68442
 Alpha virt. eigenvalues --    0.68862   0.69227   0.69871   0.71013   0.71442
 Alpha virt. eigenvalues --    0.71917   0.72676   0.72829   0.73652   0.74140
 Alpha virt. eigenvalues --    0.74481   0.75406   0.75617   0.75978   0.76438
 Alpha virt. eigenvalues --    0.76678   0.77107   0.77870   0.78722   0.78970
 Alpha virt. eigenvalues --    0.79131   0.79859   0.80631   0.80888   0.81384
 Alpha virt. eigenvalues --    0.81758   0.81867   0.82361   0.82654   0.83080
 Alpha virt. eigenvalues --    0.83814   0.84084   0.84495   0.84784   0.85037
 Alpha virt. eigenvalues --    0.85575   0.86830   0.87581   0.88323   0.88596
 Alpha virt. eigenvalues --    0.89313   0.90248   0.90785   0.91123   0.91311
 Alpha virt. eigenvalues --    0.92384   0.93388   0.93614   0.94568   0.95237
 Alpha virt. eigenvalues --    0.95880   0.96778   0.97894   0.99017   0.99630
 Alpha virt. eigenvalues --    1.00264   1.02045   1.02564   1.02686   1.04478
 Alpha virt. eigenvalues --    1.05188   1.05806   1.06965   1.08214   1.08888
 Alpha virt. eigenvalues --    1.10562   1.11594   1.12831   1.14694   1.15044
 Alpha virt. eigenvalues --    1.16790   1.17758   1.18076   1.20703   1.22834
 Alpha virt. eigenvalues --    1.23678   1.24448   1.25913   1.26979   1.28451
 Alpha virt. eigenvalues --    1.29281   1.29675   1.30064   1.30471   1.32921
 Alpha virt. eigenvalues --    1.33202   1.34941   1.35739   1.36128   1.37186
 Alpha virt. eigenvalues --    1.38667   1.40874   1.41733   1.42413   1.43435
 Alpha virt. eigenvalues --    1.45889   1.47105   1.47844   1.48371   1.50544
 Alpha virt. eigenvalues --    1.51774   1.52753   1.54677   1.54931   1.55764
 Alpha virt. eigenvalues --    1.56160   1.57053   1.57696   1.59078   1.60566
 Alpha virt. eigenvalues --    1.61091   1.61507   1.61626   1.64023   1.64371
 Alpha virt. eigenvalues --    1.64940   1.65257   1.65536   1.66565   1.66886
 Alpha virt. eigenvalues --    1.67627   1.68162   1.69019   1.69398   1.69734
 Alpha virt. eigenvalues --    1.71295   1.71801   1.72997   1.73437   1.74487
 Alpha virt. eigenvalues --    1.75252   1.75790   1.76141   1.77427   1.77971
 Alpha virt. eigenvalues --    1.78506   1.79745   1.79947   1.80495   1.81188
 Alpha virt. eigenvalues --    1.82606   1.83075   1.83165   1.84073   1.84901
 Alpha virt. eigenvalues --    1.85278   1.85723   1.86885   1.88364   1.89464
 Alpha virt. eigenvalues --    1.89826   1.90202   1.91182   1.91478   1.93176
 Alpha virt. eigenvalues --    1.93249   1.94883   1.95875   1.96712   1.97836
 Alpha virt. eigenvalues --    1.98175   1.98880   1.99623   2.00450   2.02173
 Alpha virt. eigenvalues --    2.02643   2.04161   2.04495   2.06358   2.08078
 Alpha virt. eigenvalues --    2.09680   2.11246   2.11968   2.12768   2.13929
 Alpha virt. eigenvalues --    2.15224   2.15545   2.16946   2.18336   2.18401
 Alpha virt. eigenvalues --    2.20256   2.21523   2.22246   2.22989   2.23598
 Alpha virt. eigenvalues --    2.25452   2.26778   2.26977   2.27403   2.27866
 Alpha virt. eigenvalues --    2.29641   2.30053   2.30559   2.32132   2.32768
 Alpha virt. eigenvalues --    2.35369   2.36521   2.37603   2.38373   2.39692
 Alpha virt. eigenvalues --    2.40621   2.41607   2.42695   2.43595   2.46276
 Alpha virt. eigenvalues --    2.49390   2.50024   2.50556   2.52229   2.52451
 Alpha virt. eigenvalues --    2.53253   2.54265   2.54535   2.54931   2.56000
 Alpha virt. eigenvalues --    2.56665   2.58440   2.59364   2.60865   2.61857
 Alpha virt. eigenvalues --    2.63290   2.64509   2.64681   2.67785   2.68810
 Alpha virt. eigenvalues --    2.72414   2.75364   2.77233   2.81122   2.84869
 Alpha virt. eigenvalues --    2.86051   2.86729   2.90945   2.91106   2.93167
 Alpha virt. eigenvalues --    2.94950   2.97344   2.97802   3.01620   3.06943
 Alpha virt. eigenvalues --    3.69672   3.75112   3.78098   3.85459   3.87368
 Alpha virt. eigenvalues --    3.92332   3.97167   3.99716   4.00073   4.03934
 Alpha virt. eigenvalues --    4.08414   4.10078   4.11873   4.15982   4.17395
 Alpha virt. eigenvalues --    4.18449   4.19052   4.19868   4.24092   4.27867
 Alpha virt. eigenvalues --    4.29324   4.33310   4.39484   4.41546   4.42895
 Alpha virt. eigenvalues --    4.49257   4.52416   4.59925   4.61144
          Condensed to atoms (all electrons):
 Mulliken charges:
               1
     1  N   -0.767825
     2  C   -0.111616
     3  C    0.625822
     4  O   -0.495193
     5  C   -0.298682
     6  C   -0.367392
     7  C    0.606921
     8  O   -0.549320
     9  O   -0.558837
    10  H    0.473605
    11  H    0.409477
    12  H    0.183761
    13  H    0.194735
    14  H    0.213338
    15  H    0.191812
    16  H    0.217130
    17  H    0.435384
    18  H    0.441179
    19  N   -0.602534
    20  C   -0.053988
    21  C    0.629506
    22  O   -0.539483
    23  C   -0.308817
    24  C   -0.085036
    25  C   -0.448690
    26  C   -0.456324
    27  H    0.365822
    28  H    0.169707
    29  H    0.151256
    30  H    0.175545
    31  H    0.139265
    32  H    0.158360
    33  H    0.154766
    34  H    0.173185
    35  H    0.147388
    36  H    0.141021
    37  H    0.181030
    38  N   -0.666739
    39  C   -0.065671
    40  C    0.665743
    41  O   -0.434321
    42  C   -0.268002
    43  C   -0.284485
    44  C   -0.151642
    45  N   -0.656003
    46  C    0.577133
    47  N   -0.588955
    48  N   -0.853613
    49  O   -0.596653
    50  H    0.406158
    51  H    0.354649
    52  H    0.211819
    53  H    0.173950
    54  H    0.189489
    55  H    0.167912
    56  H    0.124799
    57  H    0.155917
    58  H    0.188502
    59  H    0.363509
    60  H    0.304750
    61  H    0.369015
    62  H    0.376464
 Sum of Mulliken charges =   1.00000
 Mulliken charges with hydrogens summed into heavy atoms:
               1
     1  N    0.518215
     2  C    0.072145
     3  C    0.625822
     4  O   -0.495193
     5  C    0.109392
     6  C    0.041550
     7  C    0.606921
     8  O   -0.549320
     9  O   -0.085232
    19  N   -0.236712
    20  C    0.115720
    21  C    0.629506
    22  O   -0.539483
    23  C    0.017984
    24  C    0.054228
    25  C    0.037621
    26  C    0.013115
    38  N   -0.312091
    39  C    0.146147
    40  C    0.665743
    41  O   -0.434321
    42  C    0.095436
    43  C    0.008226
    44  C    0.192777
    45  N   -0.292494
    46  C    0.577133
    47  N   -0.284205
    48  N   -0.108134
    49  O   -0.190494
 Electronic spatial extent (au):  <R**2>=         507299.5685
 Charge=              1.0000 electrons
 Dipole moment (field-independent basis, Debye):
    X=             51.2201    Y=             85.9202    Z=             59.4085  Tot=            116.3406
 Quadrupole moment (field-independent basis, Debye-Ang):
   XX=            375.4142   YY=           1402.8309   ZZ=            574.8702
   XY=            932.0841   XZ=            617.8565   YZ=           1064.5730
 Traceless Quadrupole moment (field-independent basis, Debye-Ang):
   XX=           -408.9576   YY=            618.4591   ZZ=           -209.5016
   XY=            932.0841   XZ=            617.8565   YZ=           1064.5730
 Octapole moment (field-independent basis, Debye-Ang**2):
  XXX=           -161.7922  YYY=          20520.3616  ZZZ=           2680.1994  XYY=          15364.0052
  XXY=           7111.8961  XXZ=           4085.4213  XZZ=           5528.1943  YZZ=          10417.0494
  YYZ=          17193.8133  XYZ=          11296.0519
 Hexadecapole moment (field-independent basis, Debye-Ang**3):
 XXXX=         -80754.0968 YYYY=         243824.3367 ZZZZ=         -64116.8169 XXXY=           4829.4941
 XXXZ=         -16369.3700 YYYX=         225851.6189 YYYZ=         244990.2710 ZZZX=          11632.2686
 ZZZY=          53351.4530 XXYY=         113913.8137 XXZZ=          18676.5891 YYZZ=         160454.5055
 XXYZ=          79343.7029 YYXZ=         183771.4591 ZZXY=         103752.5571
 N-N= 3.254820554693D+03 E-N=-9.856188386799D+03  KE= 1.434079828276D+03
 Unable to Open any file for archive entry.
 1\1\GINC-SKL-161\SP\RB3LYP\6-31G(d)\C17H33N6O6(1+)\KENGMITH\24-May-202
 2\0\\# B3LYP/6-31G* empiricaldispersion=gd3 guess=read geom=check nosy
 mm integral(ultrafinegrid)\\Candidate Structure: Conf:797 Charge calc 
 in gas phase\\1,1\N,0,8.9209820446,16.3188670154,12.7977983583\C,0,9.9
 063450759,16.7311979145,11.7287345926\C,0,9.2506522015,17.9814145613,1
 1.1139314921\O,0,8.1473253728,17.8376137397,10.6018996876\C,0,10.14196
 52274,15.6331398697,10.6833725193\C,0,10.4876131605,14.2198543359,11.2
 362038566\C,0,11.3235197345,14.266336354,12.5027193359\O,0,10.78820538
 92,14.6131046628,13.5748136145\O,0,12.5821163924,13.9838116108,12.3803
 744992\H,0,13.1159540349,14.0865679822,13.2982541371\H,0,7.9952154151,
 16.1709812353,12.3797818673\H,0,10.8296089322,16.9335570298,12.2675786
 138\H,0,10.9661489016,15.9893700986,10.0552322716\H,0,9.2613526259,15.
 5627162402,10.0379773462\H,0,9.5653687998,13.6853007291,11.4881678146\
 H,0,11.0016557512,13.6491348734,10.4606563717\H,0,9.3115698368,15.4699
 131707,13.2751195912\H,0,8.8754311663,17.0960018692,13.4789773765\N,0,
 9.8782268799,19.1778455858,11.218214926\C,0,11.0890739737,19.518992853
 7,11.9465328411\C,0,11.0297675863,19.0471509779,13.430652358\O,0,9.990
 5054445,18.6560620021,13.9565402659\C,0,11.3058362526,21.0487175361,11
 .8737947245\C,0,11.484811803,21.6290612756,10.4543346516\C,0,11.666519
 0536,23.151145728,10.5543491363\C,0,12.6573320426,20.9804481552,9.7064
 590412\H,0,9.3219659355,19.945097173,10.8567246535\H,0,11.9476993113,1
 9.0204667233,11.4770231143\H,0,12.1982358109,21.302992816,12.459703162
 7\H,0,10.4600244881,21.5352438757,12.3779040714\H,0,10.5682016288,21.4
 422823032,9.8759687806\H,0,10.8260657154,23.624952545,11.0740115687\H,
 0,12.5854046377,23.4002554062,11.0997229311\H,0,11.7400246461,23.59735
 34993,9.5576524348\H,0,13.5930885248,21.0939533407,10.2696220153\H,0,1
 2.4950565864,19.9121846031,9.5198131241\H,0,12.800972944,21.4578597968
 ,8.732217899\N,0,12.2578633497,19.0586196635,14.0235046158\C,0,12.6660
 713186,18.8889188895,15.4420880604\C,0,13.8834654075,17.9397560426,15.
 5470084829\O,0,14.461477953,17.7760196548,16.5854261639\C,0,11.5715900
 942,18.6032568061,16.4927336364\C,0,10.8709760317,17.2368435399,16.582
 2125966\C,0,11.7559170272,16.0331368385,16.9267653154\N,0,12.466790239
 1,15.5929300576,15.7317365079\C,0,13.4608782747,14.6255180722,15.83336
 93456\N,0,13.9227901947,13.9971953205,16.8355522137\N,0,14.0579821486,
 14.3812764984,14.5359284201\O,0,14.3463058618,17.4183703609,14.3728319
 022\H,0,13.6344648691,17.5036343517,13.7134346162\H,0,12.9640408221,19
 .553586792,13.4875671703\H,0,13.0855174573,19.8605724802,15.7343629647
 \H,0,10.8093702871,19.3797843305,16.380741859\H,0,12.0743822909,18.788
 5134297,17.4484943475\H,0,10.1133834072,17.3375449669,17.3684824819\H,
 0,10.3195065921,17.0343492467,15.6578815991\H,0,11.1373727053,15.22588
 02241,17.3492844978\H,0,12.4989135395,16.3117131561,17.6817914977\H,0,
 11.8428698952,15.3930574942,14.9508650787\H,0,13.4027864029,14.1883085
 395,17.6923853831\H,0,14.7372870591,13.6285478798,14.6581709837\H,0,14
 .5723036239,15.2261748247,14.2691338436\\Version=ES64L-G16RevC.01\HF=-
 1447.4707505\RMSD=7.489e-09\Dipole=-1.7779047,0.7830692,-1.9117664\Qua
 drupole=-304.0499197,459.8092056,-155.7592859,692.9816685,459.3611811,
 791.4839191\PG=C01 [X(C17H33N6O6)]\\@
 The archive entry for this job was punched.


 THERE'S A SUCKER BORN EVERY MINUTE

              -- PHINEAS TAYLOR (P.T.) BARNUM
 Job cpu time:       0 days  0 hours  1 minutes 25.0 seconds.
 Elapsed time:       0 days  0 hours  0 minutes 21.8 seconds.
 File lengths (MBytes):  RWF=    248 Int=      0 D2E=      0 Chk=     32 Scr=     16
 Normal termination of Gaussian 16 at Tue May 24 03:34:15 2022.
