 Entering Gaussian System, Link 0=/opt/software/Gaussian/g16-AVX2-C.01/g16/g16
 Input=charge-conf-879.com
 Output=charge-conf-879.log
 Initial command:
 /opt/software/Gaussian/g16-AVX2-C.01/g16/l1.exe "/mnt/gs18/scratch/users/kengmith/Gau-60338.inp" -scrdir="/mnt/gs18/scratch/users/kengmith/"
 Entering Link 1 = /opt/software/Gaussian/g16-AVX2-C.01/g16/l1.exe PID=     60354.
  
 Copyright (c) 1988-2019, Gaussian, Inc.  All Rights Reserved.
  
 This is part of the Gaussian(R) 16 program.  It is based on
 the Gaussian(R) 09 system (copyright 2009, Gaussian, Inc.),
 the Gaussian(R) 03 system (copyright 2003, Gaussian, Inc.),
 the Gaussian(R) 98 system (copyright 1998, Gaussian, Inc.),
 the Gaussian(R) 94 system (copyright 1995, Gaussian, Inc.),
 the Gaussian 92(TM) system (copyright 1992, Gaussian, Inc.),
 the Gaussian 90(TM) system (copyright 1990, Gaussian, Inc.),
 the Gaussian 88(TM) system (copyright 1988, Gaussian, Inc.),
 the Gaussian 86(TM) system (copyright 1986, Carnegie Mellon
 University), and the Gaussian 82(TM) system (copyright 1983,
 Carnegie Mellon University). Gaussian is a federally registered
 trademark of Gaussian, Inc.
  
 This software contains proprietary and confidential information,
 including trade secrets, belonging to Gaussian, Inc.
  
 This software is provided under written license and may be
 used, copied, transmitted, or stored only in accord with that
 written license.
  
 The following legend is applicable only to US Government
 contracts under FAR:
  
                    RESTRICTED RIGHTS LEGEND
  
 Use, reproduction and disclosure by the US Government is
 subject to restrictions as set forth in subparagraphs (a)
 and (c) of the Commercial Computer Software - Restricted
 Rights clause in FAR 52.227-19.
  
 Gaussian, Inc.
 340 Quinnipiac St., Bldg. 40, Wallingford CT 06492
  
  
 ---------------------------------------------------------------
 Warning -- This program may not be used in any manner that
 competes with the business of Gaussian, Inc. or will provide
 assistance to any competitor of Gaussian, Inc.  The licensee
 of this program is prohibited from giving any competitor of
 Gaussian, Inc. access to this program.  By using this program,
 the user acknowledges that Gaussian, Inc. is engaged in the
 business of creating and licensing software in the field of
 computational chemistry and represents and warrants to the
 licensee that it is not a competitor of Gaussian, Inc. and that
 it will not use this program in any manner prohibited above.
 ---------------------------------------------------------------
  

 Cite this work as:
 Gaussian 16, Revision C.01,
 M. J. Frisch, G. W. Trucks, H. B. Schlegel, G. E. Scuseria, 
 M. A. Robb, J. R. Cheeseman, G. Scalmani, V. Barone, 
 G. A. Petersson, H. Nakatsuji, X. Li, M. Caricato, A. V. Marenich, 
 J. Bloino, B. G. Janesko, R. Gomperts, B. Mennucci, H. P. Hratchian, 
 J. V. Ortiz, A. F. Izmaylov, J. L. Sonnenberg, D. Williams-Young, 
 F. Ding, F. Lipparini, F. Egidi, J. Goings, B. Peng, A. Petrone, 
 T. Henderson, D. Ranasinghe, V. G. Zakrzewski, J. Gao, N. Rega, 
 G. Zheng, W. Liang, M. Hada, M. Ehara, K. Toyota, R. Fukuda, 
 J. Hasegawa, M. Ishida, T. Nakajima, Y. Honda, O. Kitao, H. Nakai, 
 T. Vreven, K. Throssell, J. A. Montgomery, Jr., J. E. Peralta, 
 F. Ogliaro, M. J. Bearpark, J. J. Heyd, E. N. Brothers, K. N. Kudin, 
 V. N. Staroverov, T. A. Keith, R. Kobayashi, J. Normand, 
 K. Raghavachari, A. P. Rendell, J. C. Burant, S. S. Iyengar, 
 J. Tomasi, M. Cossi, J. M. Millam, M. Klene, C. Adamo, R. Cammi, 
 J. W. Ochterski, R. L. Martin, K. Morokuma, O. Farkas, 
 J. B. Foresman, and D. J. Fox, Gaussian, Inc., Wallingford CT, 2019.
 
 ******************************************
 Gaussian 16:  ES64L-G16RevC.01  3-Jul-2019
                24-May-2022 
 ******************************************
 %mem=8gb
 %nproc=4
 Will use up to    4 processors via shared memory.
 %chk=conf-879.chk
 ----------------------------------------------------------------------
 # B3LYP/6-31G* empiricaldispersion=gd3 guess=read geom=check nosymm in
 tegral(ultrafinegrid)
 ----------------------------------------------------------------------
 1/29=2,38=1,172=1/1;
 2/12=2,15=1,40=1/2;
 3/5=1,6=6,7=1,11=2,14=-4,25=1,30=1,74=-5,75=-5,116=-2,124=31/1,2,3;
 4/5=1/1;
 5/5=2,38=6/2;
 6/7=2,8=2,9=2,10=2,28=1/1;
 99/5=1,9=1/99;
 ------------------------------------------------------
 Candidate Structure: Conf:879 Charge calc in gas phase
 ------------------------------------------------------
 Structure from the checkpoint file:  "conf-879.chk"
 Charge =  1 Multiplicity = 1
 Redundant internal coordinates found in file.  (old form).
 N,0,8.6381590782,17.3277858477,12.1114266056
 C,0,9.8474045256,16.958008443,11.2858804457
 C,0,10.0839180273,18.1886199532,10.3879902369
 O,0,9.1984628789,18.479922431,9.5941040717
 C,0,9.6261743222,15.7165255659,10.4129238902
 C,0,9.155842763,14.4347878444,11.1535533242
 C,0,9.8910575079,14.2942667351,12.4706335867
 O,0,9.5831062483,14.9724620705,13.4372802456
 O,0,10.9765720396,13.5110745429,12.5461579219
 H,0,11.0973255713,12.9725799584,11.7446601051
 H,0,7.8473554159,17.5483031309,11.4940277803
 H,0,10.641270789,16.7888620957,12.0117672402
 H,0,10.5831834775,15.5237329267,9.9146990961
 H,0,8.9080542254,15.9614140038,9.6247942972
 H,0,8.0894072998,14.4959079279,11.3904692035
 H,0,9.2886642095,13.5701381298,10.4957310689
 H,0,8.4196004179,16.5713056287,12.7760100311
 H,0,8.9109060445,18.1968197982,12.6366199831
 N,0,11.261509993,18.8416637025,10.5200273662
 C,0,12.1350094557,18.8210372845,11.6958501844
 C,0,11.3142930366,19.0635221062,12.9951332744
 O,0,10.1262365162,19.4358494287,12.9549979221
 C,0,13.2280212335,19.8987129456,11.4752416348
 C,0,14.4398471884,19.9122766937,12.4293699553
 C,0,15.1758256228,18.5635644442,12.4749667173
 C,0,15.397542917,21.0316770806,11.9900134911
 H,0,11.3046597012,19.6792933624,9.9466791845
 H,0,12.623047796,17.8419044877,11.7694958929
 H,0,12.7403974548,20.8830361565,11.4900236358
 H,0,13.605472833,19.7444701365,10.454998113
 H,0,14.0993619627,20.1577485175,13.4423512818
 H,0,15.5028075089,18.2673421628,11.4697854539
 H,0,16.0666863319,18.6426551579,13.1058105536
 H,0,14.5716114717,17.7445014779,12.8857782084
 H,0,15.8009671112,20.8340816976,10.9890435038
 H,0,14.8947861988,22.0052268013,11.9657034151
 H,0,16.2424090177,21.1075926221,12.6818068963
 N,0,11.9850651537,18.8232081426,14.122954013
 C,0,11.6349987549,19.2945761564,15.472311387
 C,0,12.7619911762,18.8479911228,16.4216240265
 O,0,12.5900217558,18.7035081723,17.6093199218
 C,0,10.2530193247,18.8728767174,16.0089460007
 C,0,9.8231179549,17.4003639197,15.8931282056
 C,0,10.7041808335,16.302012552,16.54465374
 N,0,11.6245524922,15.7096754341,15.5810426123
 C,0,12.990517019,15.7328008006,15.5870530734
 N,0,13.7968338601,16.0547372962,16.550300192
 N,0,13.5495781864,15.4602700878,14.3235971884
 O,0,13.9166890352,18.5937429782,15.7784133953
 H,0,14.3134473491,17.7702934338,16.2069843033
 H,0,12.9368102211,18.475302263,14.0616762428
 H,0,11.6496270753,20.3939621813,15.4562627205
 H,0,9.5049471162,19.4775114219,15.4891465011
 H,0,10.2426815419,19.1738738084,17.0608287074
 H,0,8.8233876653,17.3415348567,16.3409386072
 H,0,9.6944532069,17.1408586838,14.8347863584
 H,0,10.0557915489,15.5115285549,16.9397473434
 H,0,11.2634574058,16.7060291988,17.3891220233
 H,0,11.1630844304,15.3264886514,14.7654824924
 H,0,13.3001267236,16.2274218449,17.4226339143
 H,0,14.5267964498,15.2041535364,14.4253463192
 H,0,13.0502134161,14.7497648544,13.7954402624
 Recover connectivity data from disk.
                           ----------------------------
                           !    Current Parameters    !
                           ! (Angstroms and Degrees)  !
 --------------------------                            --------------------------
 ! Name  Definition              Value                                          !
 --------------------------------------------------------------------------------
 ! R1    R(1,2)                  1.5101                                         !
 ! R2    R(1,11)                 1.0272                                         !
 ! R3    R(1,17)                 1.0304                                         !
 ! R4    R(1,18)                 1.0514                                         !
 ! R5    R(2,3)                  1.5416                                         !
 ! R6    R(2,5)                  1.5337                                         !
 ! R7    R(2,12)                 1.0889                                         !
 ! R8    R(3,4)                  1.2244                                         !
 ! R9    R(3,19)                 1.353                                          !
 ! R10   R(5,6)                  1.5533                                         !
 ! R11   R(5,13)                 1.096                                          !
 ! R12   R(5,14)                 1.094                                          !
 ! R13   R(6,7)                  1.5149                                         !
 ! R14   R(6,15)                 1.0941                                         !
 ! R15   R(6,16)                 1.0945                                         !
 ! R16   R(7,8)                  1.2203                                         !
 ! R17   R(7,9)                  1.3407                                         !
 ! R18   R(9,10)                 0.9731                                         !
 ! R19   R(19,20)                1.4649                                         !
 ! R20   R(19,27)                1.016                                          !
 ! R21   R(20,21)                1.5558                                         !
 ! R22   R(20,23)                1.5507                                         !
 ! R23   R(20,28)                1.0965                                         !
 ! R24   R(21,22)                1.2457                                         !
 ! R25   R(21,38)                1.334                                          !
 ! R26   R(23,24)                1.5424                                         !
 ! R27   R(23,29)                1.0986                                         !
 ! R28   R(23,30)                1.0987                                         !
 ! R29   R(24,25)                1.5371                                         !
 ! R30   R(24,26)                1.5373                                         !
 ! R31   R(24,31)                1.0965                                         !
 ! R32   R(25,32)                1.0977                                         !
 ! R33   R(25,33)                1.0945                                         !
 ! R34   R(25,34)                1.0976                                         !
 ! R35   R(26,35)                1.0971                                         !
 ! R36   R(26,36)                1.096                                          !
 ! R37   R(26,37)                1.0946                                         !
 ! R38   R(38,39)                1.4716                                         !
 ! R39   R(38,51)                1.0152                                         !
 ! R40   R(39,40)                1.5397                                         !
 ! R41   R(39,42)                1.5413                                         !
 ! R42   R(39,52)                1.0996                                         !
 ! R43   R(40,41)                1.2087                                         !
 ! R44   R(40,49)                1.346                                          !
 ! R45   R(42,43)                1.5384                                         !
 ! R46   R(42,53)                1.0933                                         !
 ! R47   R(42,54)                1.0941                                         !
 ! R48   R(43,44)                1.5515                                         !
 ! R49   R(43,55)                1.097                                          !
 ! R50   R(43,56)                1.0973                                         !
 ! R51   R(44,45)                1.4583                                         !
 ! R52   R(44,57)                1.0961                                         !
 ! R53   R(44,58)                1.0905                                         !
 ! R54   R(45,46)                1.3662                                         !
 ! R55   R(45,59)                1.0124                                         !
 ! R56   R(46,47)                1.2968                                         !
 ! R57   R(46,48)                1.4082                                         !
 ! R58   R(47,60)                1.0186                                         !
 ! R59   R(48,61)                1.0153                                         !
 ! R60   R(48,62)                1.0164                                         !
 ! R61   R(49,50)                1.0095                                         !
 ! A1    A(2,1,11)             109.9044                                         !
 ! A2    A(2,1,17)             110.0396                                         !
 ! A3    A(2,1,18)             105.5296                                         !
 ! A4    A(11,1,17)            112.4559                                         !
 ! A5    A(11,1,18)            108.8142                                         !
 ! A6    A(17,1,18)            109.8569                                         !
 ! A7    A(1,2,3)              104.2283                                         !
 ! A8    A(1,2,5)              113.1945                                         !
 ! A9    A(1,2,12)             104.9157                                         !
 ! A10   A(3,2,5)              109.6811                                         !
 ! A11   A(3,2,12)             113.6037                                         !
 ! A12   A(5,2,12)             111.0292                                         !
 ! A13   A(2,3,4)              117.169                                          !
 ! A14   A(2,3,19)             117.5151                                         !
 ! A15   A(4,3,19)             125.3003                                         !
 ! A16   A(2,5,6)              116.1195                                         !
 ! A17   A(2,5,13)             105.9722                                         !
 ! A18   A(2,5,14)             108.8768                                         !
 ! A19   A(6,5,13)             109.6332                                         !
 ! A20   A(6,5,14)             109.2363                                         !
 ! A21   A(13,5,14)            106.5623                                         !
 ! A22   A(5,6,7)              110.1294                                         !
 ! A23   A(5,6,15)             110.6273                                         !
 ! A24   A(5,6,16)             109.1815                                         !
 ! A25   A(7,6,15)             106.8552                                         !
 ! A26   A(7,6,16)             112.9764                                         !
 ! A27   A(15,6,16)            107.0103                                         !
 ! A28   A(6,7,8)              120.9744                                         !
 ! A29   A(6,7,9)              119.7429                                         !
 ! A30   A(8,7,9)              118.9702                                         !
 ! A31   A(7,9,10)             112.1689                                         !
 ! A32   A(3,19,20)            126.1929                                         !
 ! A33   A(3,19,27)            112.3229                                         !
 ! A34   A(20,19,27)           116.0558                                         !
 ! A35   A(19,20,21)           110.7059                                         !
 ! A36   A(19,20,23)           107.2361                                         !
 ! A37   A(19,20,28)           109.3829                                         !
 ! A38   A(21,20,23)           112.4769                                         !
 ! A39   A(21,20,28)           108.5347                                         !
 ! A40   A(23,20,28)           108.4457                                         !
 ! A41   A(20,21,22)           121.52                                           !
 ! A42   A(20,21,38)           114.375                                          !
 ! A43   A(22,21,38)           124.0997                                         !
 ! A44   A(20,23,24)           118.1563                                         !
 ! A45   A(20,23,29)           107.9329                                         !
 ! A46   A(20,23,30)           106.0624                                         !
 ! A47   A(24,23,29)           109.4222                                         !
 ! A48   A(24,23,30)           107.8027                                         !
 ! A49   A(29,23,30)           106.9038                                         !
 ! A50   A(23,24,25)           112.7562                                         !
 ! A51   A(23,24,26)           108.6061                                         !
 ! A52   A(23,24,31)           109.237                                          !
 ! A53   A(25,24,26)           110.4325                                         !
 ! A54   A(25,24,31)           108.5239                                         !
 ! A55   A(26,24,31)           107.1253                                         !
 ! A56   A(24,25,32)           110.6234                                         !
 ! A57   A(24,25,33)           110.0854                                         !
 ! A58   A(24,25,34)           113.7216                                         !
 ! A59   A(32,25,33)           107.7483                                         !
 ! A60   A(32,25,34)           107.7778                                         !
 ! A61   A(33,25,34)           106.635                                          !
 ! A62   A(24,26,35)           111.0187                                         !
 ! A63   A(24,26,36)           111.5545                                         !
 ! A64   A(24,26,37)           110.5313                                         !
 ! A65   A(35,26,36)           107.9641                                         !
 ! A66   A(35,26,37)           107.7752                                         !
 ! A67   A(36,26,37)           107.8475                                         !
 ! A68   A(21,38,39)           126.7192                                         !
 ! A69   A(21,38,51)           118.8221                                         !
 ! A70   A(39,38,51)           112.8389                                         !
 ! A71   A(38,39,40)           107.3567                                         !
 ! A72   A(38,39,42)           116.4175                                         !
 ! A73   A(38,39,52)           107.6804                                         !
 ! A74   A(40,39,42)           111.2391                                         !
 ! A75   A(40,39,52)           106.8129                                         !
 ! A76   A(42,39,52)           106.891                                          !
 ! A77   A(39,40,41)           122.4352                                         !
 ! A78   A(39,40,49)           112.8349                                         !
 ! A79   A(41,40,49)           124.682                                          !
 ! A80   A(39,42,43)           119.0937                                         !
 ! A81   A(39,42,53)           107.2563                                         !
 ! A82   A(39,42,54)           105.5406                                         !
 ! A83   A(43,42,53)           107.5988                                         !
 ! A84   A(43,42,54)           109.4547                                         !
 ! A85   A(53,42,54)           107.3652                                         !
 ! A86   A(42,43,44)           119.1646                                         !
 ! A87   A(42,43,55)           105.9781                                         !
 ! A88   A(42,43,56)           109.376                                          !
 ! A89   A(44,43,55)           107.9468                                         !
 ! A90   A(44,43,56)           107.7101                                         !
 ! A91   A(55,43,56)           105.9133                                         !
 ! A92   A(43,44,45)           111.6221                                         !
 ! A93   A(43,44,57)           109.0259                                         !
 ! A94   A(43,44,58)           110.7421                                         !
 ! A95   A(45,44,57)           108.5786                                         !
 ! A96   A(45,44,58)           109.7867                                         !
 ! A97   A(57,44,58)           106.9448                                         !
 ! A98   A(44,45,46)           128.4088                                         !
 ! A99   A(44,45,59)           113.4771                                         !
 ! A100  A(46,45,59)           117.7558                                         !
 ! A101  A(45,46,47)           128.9881                                         !
 ! A102  A(45,46,48)           112.9364                                         !
 ! A103  A(47,46,48)           117.8806                                         !
 ! A104  A(46,47,60)           112.026                                          !
 ! A105  A(46,48,61)           109.9376                                         !
 ! A106  A(46,48,62)           113.981                                          !
 ! A107  A(61,48,62)           110.4014                                         !
 ! A108  A(40,49,50)           106.76                                           !
 ! D1    D(11,1,2,3)            57.7012                                         !
 ! D2    D(11,1,2,5)           -61.4191                                         !
 ! D3    D(11,1,2,12)          177.3727                                         !
 ! D4    D(17,1,2,3)          -177.9318                                         !
 ! D5    D(17,1,2,5)            62.9479                                         !
 ! D6    D(17,1,2,12)          -58.2603                                         !
 ! D7    D(18,1,2,3)           -59.4669                                         !
 ! D8    D(18,1,2,5)          -178.5872                                         !
 ! D9    D(18,1,2,12)           60.2046                                         !
 ! D10   D(1,2,3,4)            -62.7307                                         !
 ! D11   D(1,2,3,19)           118.6249                                         !
 ! D12   D(5,2,3,4)             58.7507                                         !
 ! D13   D(5,2,3,19)          -119.8937                                         !
 ! D14   D(12,2,3,4)          -176.3456                                         !
 ! D15   D(12,2,3,19)            5.01                                           !
 ! D16   D(1,2,5,6)            -54.9075                                         !
 ! D17   D(1,2,5,13)          -176.8844                                         !
 ! D18   D(1,2,5,14)            68.8339                                         !
 ! D19   D(3,2,5,6)           -170.836                                          !
 ! D20   D(3,2,5,13)            67.187                                          !
 ! D21   D(3,2,5,14)           -47.0947                                         !
 ! D22   D(12,2,5,6)            62.7864                                         !
 ! D23   D(12,2,5,13)          -59.1906                                         !
 ! D24   D(12,2,5,14)         -173.4723                                         !
 ! D25   D(2,3,19,20)          -22.7511                                         !
 ! D26   D(2,3,19,27)         -175.474                                          !
 ! D27   D(4,3,19,20)          158.7267                                         !
 ! D28   D(4,3,19,27)            6.0038                                         !
 ! D29   D(2,5,6,7)            -40.4764                                         !
 ! D30   D(2,5,6,15)            77.4242                                         !
 ! D31   D(2,5,6,16)          -165.0658                                         !
 ! D32   D(13,5,6,7)            79.5434                                         !
 ! D33   D(13,5,6,15)         -162.556                                          !
 ! D34   D(13,5,6,16)          -45.046                                          !
 ! D35   D(14,5,6,7)          -164.0312                                         !
 ! D36   D(14,5,6,15)          -46.1306                                         !
 ! D37   D(14,5,6,16)           71.3794                                         !
 ! D38   D(5,6,7,8)             76.9628                                         !
 ! D39   D(5,6,7,9)            -96.5515                                         !
 ! D40   D(15,6,7,8)           -43.2421                                         !
 ! D41   D(15,6,7,9)           143.2435                                         !
 ! D42   D(16,6,7,8)          -160.6596                                         !
 ! D43   D(16,6,7,9)            25.826                                          !
 ! D44   D(6,7,9,10)           -10.0547                                         !
 ! D45   D(8,7,9,10)           176.3009                                         !
 ! D46   D(3,19,20,21)         -47.378                                          !
 ! D47   D(3,19,20,23)        -170.416                                          !
 ! D48   D(3,19,20,28)          72.1751                                         !
 ! D49   D(27,19,20,21)        104.4635                                         !
 ! D50   D(27,19,20,23)        -18.5744                                         !
 ! D51   D(27,19,20,28)       -135.9833                                         !
 ! D52   D(19,20,21,22)        -10.6688                                         !
 ! D53   D(19,20,21,38)        168.5285                                         !
 ! D54   D(23,20,21,22)        109.2784                                         !
 ! D55   D(23,20,21,38)        -71.5244                                         !
 ! D56   D(28,20,21,22)       -130.7306                                         !
 ! D57   D(28,20,21,38)         48.4667                                         !
 ! D58   D(19,20,23,24)       -168.4585                                         !
 ! D59   D(19,20,23,29)         66.8174                                         !
 ! D60   D(19,20,23,30)        -47.4633                                         !
 ! D61   D(21,20,23,24)         69.6043                                         !
 ! D62   D(21,20,23,29)        -55.1198                                         !
 ! D63   D(21,20,23,30)       -169.4005                                         !
 ! D64   D(28,20,23,24)        -50.4383                                         !
 ! D65   D(28,20,23,29)       -175.1624                                         !
 ! D66   D(28,20,23,30)         70.5569                                         !
 ! D67   D(20,21,38,39)        162.0099                                         !
 ! D68   D(20,21,38,51)         -2.3827                                         !
 ! D69   D(22,21,38,39)        -18.8165                                         !
 ! D70   D(22,21,38,51)        176.791                                          !
 ! D71   D(20,23,24,25)         55.6258                                         !
 ! D72   D(20,23,24,26)        178.3546                                         !
 ! D73   D(20,23,24,31)        -65.1225                                         !
 ! D74   D(29,23,24,25)        179.6134                                         !
 ! D75   D(29,23,24,26)        -57.6578                                         !
 ! D76   D(29,23,24,31)         58.8651                                         !
 ! D77   D(30,23,24,25)        -64.4715                                         !
 ! D78   D(30,23,24,26)         58.2573                                         !
 ! D79   D(30,23,24,31)        174.7802                                         !
 ! D80   D(23,24,25,32)         56.9236                                         !
 ! D81   D(23,24,25,33)        175.8978                                         !
 ! D82   D(23,24,25,34)        -64.5235                                         !
 ! D83   D(26,24,25,32)        -64.7775                                         !
 ! D84   D(26,24,25,33)         54.1966                                         !
 ! D85   D(26,24,25,34)        173.7753                                         !
 ! D86   D(31,24,25,32)        178.0786                                         !
 ! D87   D(31,24,25,33)        -62.9473                                         !
 ! D88   D(31,24,25,34)         56.6315                                         !
 ! D89   D(23,24,26,35)        -63.7346                                         !
 ! D90   D(23,24,26,36)         56.7314                                         !
 ! D91   D(23,24,26,37)        176.7191                                         !
 ! D92   D(25,24,26,35)         60.3878                                         !
 ! D93   D(25,24,26,36)       -179.1462                                         !
 ! D94   D(25,24,26,37)        -59.1585                                         !
 ! D95   D(31,24,26,35)        178.3928                                         !
 ! D96   D(31,24,26,36)        -61.1412                                         !
 ! D97   D(31,24,26,37)         58.8464                                         !
 ! D98   D(21,38,39,40)       -175.9393                                         !
 ! D99   D(21,38,39,42)         58.6756                                         !
 ! D100  D(21,38,39,52)        -61.2498                                         !
 ! D101  D(51,38,39,40)        -10.7584                                         !
 ! D102  D(51,38,39,42)       -136.1435                                         !
 ! D103  D(51,38,39,52)        103.9311                                         !
 ! D104  D(38,39,40,41)       -156.1079                                         !
 ! D105  D(38,39,40,49)         21.4839                                         !
 ! D106  D(42,39,40,41)        -27.6764                                         !
 ! D107  D(42,39,40,49)        149.9154                                         !
 ! D108  D(52,39,40,41)         88.6244                                         !
 ! D109  D(52,39,40,49)        -93.7837                                         !
 ! D110  D(38,39,42,43)         47.8174                                         !
 ! D111  D(38,39,42,53)        -74.5377                                         !
 ! D112  D(38,39,42,54)        171.2091                                         !
 ! D113  D(40,39,42,43)        -75.5811                                         !
 ! D114  D(40,39,42,53)        162.0638                                         !
 ! D115  D(40,39,42,54)         47.8105                                         !
 ! D116  D(52,39,42,43)        168.166                                          !
 ! D117  D(52,39,42,53)         45.8109                                         !
 ! D118  D(52,39,42,54)        -68.4424                                         !
 ! D119  D(39,40,49,50)       -139.8042                                         !
 ! D120  D(41,40,49,50)         37.7241                                         !
 ! D121  D(39,42,43,44)         57.8332                                         !
 ! D122  D(39,42,43,55)        179.6257                                         !
 ! D123  D(39,42,43,56)        -66.607                                          !
 ! D124  D(53,42,43,44)       -179.9819                                         !
 ! D125  D(53,42,43,55)        -58.1895                                         !
 ! D126  D(53,42,43,56)         55.5778                                         !
 ! D127  D(54,42,43,44)        -63.615                                          !
 ! D128  D(54,42,43,55)         58.1775                                         !
 ! D129  D(54,42,43,56)        171.9448                                         !
 ! D130  D(42,43,44,45)        -95.8411                                         !
 ! D131  D(42,43,44,57)        144.2112                                         !
 ! D132  D(42,43,44,58)         26.8079                                         !
 ! D133  D(55,43,44,45)        143.3542                                         !
 ! D134  D(55,43,44,57)         23.4065                                         !
 ! D135  D(55,43,44,58)        -93.9968                                         !
 ! D136  D(56,43,44,45)         29.4019                                         !
 ! D137  D(56,43,44,57)        -90.5458                                         !
 ! D138  D(56,43,44,58)        152.051                                          !
 ! D139  D(43,44,45,46)        116.8251                                         !
 ! D140  D(43,44,45,59)        -56.0665                                         !
 ! D141  D(57,44,45,46)       -122.9643                                         !
 ! D142  D(57,44,45,59)         64.1441                                         !
 ! D143  D(58,44,45,46)         -6.3688                                         !
 ! D144  D(58,44,45,59)       -179.2604                                         !
 ! D145  D(44,45,46,47)         14.3294                                         !
 ! D146  D(44,45,46,48)       -160.4205                                         !
 ! D147  D(59,45,46,47)       -173.0397                                         !
 ! D148  D(59,45,46,48)         12.2104                                         !
 ! D149  D(45,46,47,60)          5.7765                                         !
 ! D150  D(48,46,47,60)       -179.6941                                         !
 ! D151  D(45,46,48,61)       -162.4828                                         !
 ! D152  D(45,46,48,62)        -37.9269                                         !
 ! D153  D(47,46,48,61)         22.1324                                         !
 ! D154  D(47,46,48,62)        146.6883                                         !
 --------------------------------------------------------------------------------
 Symmetry turned off by external request.
 Stoichiometry    C17H33N6O6(1+)
 Framework group  C1[X(C17H33N6O6)]
 Deg. of freedom   180
 Full point group                 C1      NOp   1
                          Input orientation:                          
 ---------------------------------------------------------------------
 Center     Atomic      Atomic             Coordinates (Angstroms)
 Number     Number       Type             X           Y           Z
 ---------------------------------------------------------------------
      1          7           0        8.638159   17.327786   12.111427
      2          6           0        9.847405   16.958008   11.285880
      3          6           0       10.083918   18.188620   10.387990
      4          8           0        9.198463   18.479922    9.594104
      5          6           0        9.626174   15.716526   10.412924
      6          6           0        9.155843   14.434788   11.153553
      7          6           0        9.891058   14.294267   12.470634
      8          8           0        9.583106   14.972462   13.437280
      9          8           0       10.976572   13.511075   12.546158
     10          1           0       11.097326   12.972580   11.744660
     11          1           0        7.847355   17.548303   11.494028
     12          1           0       10.641271   16.788862   12.011767
     13          1           0       10.583183   15.523733    9.914699
     14          1           0        8.908054   15.961414    9.624794
     15          1           0        8.089407   14.495908   11.390469
     16          1           0        9.288664   13.570138   10.495731
     17          1           0        8.419600   16.571306   12.776010
     18          1           0        8.910906   18.196820   12.636620
     19          7           0       11.261510   18.841664   10.520027
     20          6           0       12.135009   18.821037   11.695850
     21          6           0       11.314293   19.063522   12.995133
     22          8           0       10.126237   19.435849   12.954998
     23          6           0       13.228021   19.898713   11.475242
     24          6           0       14.439847   19.912277   12.429370
     25          6           0       15.175826   18.563564   12.474967
     26          6           0       15.397543   21.031677   11.990013
     27          1           0       11.304660   19.679293    9.946679
     28          1           0       12.623048   17.841904   11.769496
     29          1           0       12.740397   20.883036   11.490024
     30          1           0       13.605473   19.744470   10.454998
     31          1           0       14.099362   20.157749   13.442351
     32          1           0       15.502808   18.267342   11.469785
     33          1           0       16.066686   18.642655   13.105811
     34          1           0       14.571611   17.744501   12.885778
     35          1           0       15.800967   20.834082   10.989044
     36          1           0       14.894786   22.005227   11.965703
     37          1           0       16.242409   21.107593   12.681807
     38          7           0       11.985065   18.823208   14.122954
     39          6           0       11.634999   19.294576   15.472311
     40          6           0       12.761991   18.847991   16.421624
     41          8           0       12.590022   18.703508   17.609320
     42          6           0       10.253019   18.872877   16.008946
     43          6           0        9.823118   17.400364   15.893128
     44          6           0       10.704181   16.302013   16.544654
     45          7           0       11.624552   15.709675   15.581043
     46          6           0       12.990517   15.732801   15.587053
     47          7           0       13.796834   16.054737   16.550300
     48          7           0       13.549578   15.460270   14.323597
     49          8           0       13.916689   18.593743   15.778413
     50          1           0       14.313447   17.770293   16.206984
     51          1           0       12.936810   18.475302   14.061676
     52          1           0       11.649627   20.393962   15.456263
     53          1           0        9.504947   19.477511   15.489147
     54          1           0       10.242682   19.173874   17.060829
     55          1           0        8.823388   17.341535   16.340939
     56          1           0        9.694453   17.140859   14.834786
     57          1           0       10.055792   15.511529   16.939747
     58          1           0       11.263457   16.706029   17.389122
     59          1           0       11.163084   15.326489   14.765482
     60          1           0       13.300127   16.227422   17.422634
     61          1           0       14.526796   15.204154   14.425346
     62          1           0       13.050213   14.749765   13.795440
 ---------------------------------------------------------------------
 Rotational constants (GHZ):           0.1848932           0.1512041           0.1135052
 Standard basis: 6-31G(d) (6D, 7F)
   501 basis functions,   944 primitive gaussians,   501 cartesian basis functions
   112 alpha electrons      112 beta electrons
       nuclear repulsion energy      3325.9988178960 Hartrees.
 NAtoms=   62 NActive=   62 NUniq=   62 SFac= 1.00D+00 NAtFMM=   60 NAOKFM=T Big=T
 Integral buffers will be    131072 words long.
 Raffenetti 2 integral format.
 Two-electron integral symmetry is turned off.
 Nuclear repulsion after empirical dispersion term =     3325.9055053540 Hartrees.
 One-electron integrals computed using PRISM.
 NBasis=   501 RedAO= T EigKep=  1.60D-03  NBF=   501
 NBsUse=   501 1.00D-06 EigRej= -1.00D+00 NBFU=   501
 Initial guess from the checkpoint file:  "conf-879.chk"
 B after Tr=     0.000000    0.000000    0.000000
         Rot=    1.000000    0.000000    0.000000    0.000000 Ang=   0.00 deg.
 Requested convergence on RMS density matrix=1.00D-08 within 128 cycles.
 Requested convergence on MAX density matrix=1.00D-06.
 Requested convergence on             energy=1.00D-06.
 No special actions if energy rises.
 SCF Done:  E(RB3LYP) =  -1447.46759847     A.U. after    3 cycles
            NFock=  3  Conv=0.10D-08     -V/T= 2.0093

 **********************************************************************

            Population analysis using the SCF Density.

 **********************************************************************

 Alpha  occ. eigenvalues --  -19.36470 -19.30751 -19.27371 -19.25665 -19.25603
 Alpha  occ. eigenvalues --  -19.23435 -14.59299 -14.49659 -14.48646 -14.44969
 Alpha  occ. eigenvalues --  -14.44475 -14.38018 -10.49073 -10.43290 -10.42300
 Alpha  occ. eigenvalues --  -10.41663 -10.40980 -10.38506 -10.37022 -10.36913
 Alpha  occ. eigenvalues --  -10.36496 -10.34961 -10.31845 -10.30828 -10.29332
 Alpha  occ. eigenvalues --  -10.29312 -10.28932 -10.26943 -10.26183  -1.27110
 Alpha  occ. eigenvalues --   -1.19201  -1.18805  -1.18400  -1.16711  -1.13841
 Alpha  occ. eigenvalues --   -1.10780  -1.07581  -1.06377  -1.05355  -0.98639
 Alpha  occ. eigenvalues --   -0.96871  -0.93863  -0.92528  -0.90045  -0.89438
 Alpha  occ. eigenvalues --   -0.86589  -0.84332  -0.80794  -0.78780  -0.78251
 Alpha  occ. eigenvalues --   -0.77866  -0.76296  -0.75037  -0.73218  -0.72592
 Alpha  occ. eigenvalues --   -0.71992  -0.69884  -0.68865  -0.68243  -0.67859
 Alpha  occ. eigenvalues --   -0.66384  -0.65135  -0.64628  -0.64257  -0.63681
 Alpha  occ. eigenvalues --   -0.62482  -0.62291  -0.61312  -0.61005  -0.60399
 Alpha  occ. eigenvalues --   -0.59500  -0.59382  -0.57500  -0.56743  -0.56455
 Alpha  occ. eigenvalues --   -0.56340  -0.55453  -0.55143  -0.54624  -0.54508
 Alpha  occ. eigenvalues --   -0.54055  -0.53095  -0.52975  -0.52680  -0.52306
 Alpha  occ. eigenvalues --   -0.51785  -0.51375  -0.50913  -0.50053  -0.49547
 Alpha  occ. eigenvalues --   -0.48856  -0.48486  -0.48231  -0.47572  -0.46885
 Alpha  occ. eigenvalues --   -0.46350  -0.45546  -0.44849  -0.44305  -0.44096
 Alpha  occ. eigenvalues --   -0.43338  -0.42803  -0.42585  -0.40709  -0.40206
 Alpha  occ. eigenvalues --   -0.39623  -0.38717  -0.38180  -0.37182  -0.36598
 Alpha  occ. eigenvalues --   -0.35293  -0.32050
 Alpha virt. eigenvalues --   -0.16428  -0.13311  -0.12469  -0.10492  -0.09840
 Alpha virt. eigenvalues --   -0.07651  -0.05821  -0.05032  -0.03298  -0.02592
 Alpha virt. eigenvalues --   -0.02327  -0.01661  -0.01133  -0.00535  -0.00150
 Alpha virt. eigenvalues --   -0.00113   0.01032   0.01283   0.02142   0.02552
 Alpha virt. eigenvalues --    0.02824   0.03379   0.03965   0.04085   0.04460
 Alpha virt. eigenvalues --    0.04968   0.05471   0.05656   0.05683   0.06033
 Alpha virt. eigenvalues --    0.06548   0.07160   0.07190   0.07698   0.08142
 Alpha virt. eigenvalues --    0.08245   0.08637   0.09557   0.09990   0.10377
 Alpha virt. eigenvalues --    0.10504   0.11237   0.11409   0.12210   0.12759
 Alpha virt. eigenvalues --    0.13004   0.13692   0.13998   0.14654   0.15351
 Alpha virt. eigenvalues --    0.15773   0.16791   0.17647   0.18003   0.19121
 Alpha virt. eigenvalues --    0.20648   0.20949   0.21241   0.22016   0.23898
 Alpha virt. eigenvalues --    0.25986   0.26332   0.27394   0.30073   0.31052
 Alpha virt. eigenvalues --    0.34154   0.35597   0.36283   0.36399   0.36751
 Alpha virt. eigenvalues --    0.38312   0.39437   0.40963   0.41255   0.41616
 Alpha virt. eigenvalues --    0.42238   0.42779   0.42887   0.43581   0.43938
 Alpha virt. eigenvalues --    0.44655   0.45175   0.45760   0.47208   0.47755
 Alpha virt. eigenvalues --    0.48220   0.48605   0.49082   0.49823   0.50496
 Alpha virt. eigenvalues --    0.50867   0.51554   0.52342   0.52630   0.53586
 Alpha virt. eigenvalues --    0.53809   0.54665   0.54845   0.55126   0.56191
 Alpha virt. eigenvalues --    0.57255   0.57546   0.58093   0.58582   0.59772
 Alpha virt. eigenvalues --    0.60279   0.61018   0.61446   0.61764   0.62642
 Alpha virt. eigenvalues --    0.62874   0.62973   0.63723   0.64318   0.64605
 Alpha virt. eigenvalues --    0.65080   0.66261   0.66832   0.67552   0.67930
 Alpha virt. eigenvalues --    0.68538   0.69283   0.70492   0.70637   0.71316
 Alpha virt. eigenvalues --    0.71797   0.72517   0.72849   0.74316   0.74972
 Alpha virt. eigenvalues --    0.75607   0.75718   0.76067   0.76553   0.76969
 Alpha virt. eigenvalues --    0.77179   0.77754   0.78539   0.79045   0.79368
 Alpha virt. eigenvalues --    0.79604   0.80041   0.80531   0.80852   0.81189
 Alpha virt. eigenvalues --    0.81993   0.82244   0.82388   0.83161   0.83646
 Alpha virt. eigenvalues --    0.84090   0.84448   0.84911   0.86034   0.86180
 Alpha virt. eigenvalues --    0.87675   0.87916   0.88316   0.88976   0.89521
 Alpha virt. eigenvalues --    0.90012   0.90521   0.91889   0.92432   0.92540
 Alpha virt. eigenvalues --    0.93287   0.94480   0.95289   0.96394   0.97296
 Alpha virt. eigenvalues --    0.97476   0.98501   0.99181   0.99971   1.00161
 Alpha virt. eigenvalues --    1.00657   1.01318   1.02733   1.04337   1.06462
 Alpha virt. eigenvalues --    1.06684   1.08098   1.09818   1.10134   1.10692
 Alpha virt. eigenvalues --    1.11305   1.12014   1.14404   1.15654   1.17445
 Alpha virt. eigenvalues --    1.19024   1.19539   1.20743   1.21803   1.22342
 Alpha virt. eigenvalues --    1.23835   1.25164   1.25718   1.26493   1.27074
 Alpha virt. eigenvalues --    1.27314   1.28603   1.30314   1.31035   1.32751
 Alpha virt. eigenvalues --    1.33839   1.34288   1.36473   1.37253   1.38241
 Alpha virt. eigenvalues --    1.38966   1.39626   1.40975   1.42300   1.43783
 Alpha virt. eigenvalues --    1.45327   1.47000   1.48551   1.49512   1.49797
 Alpha virt. eigenvalues --    1.51625   1.52334   1.53131   1.53310   1.54871
 Alpha virt. eigenvalues --    1.56132   1.57139   1.58571   1.59332   1.60587
 Alpha virt. eigenvalues --    1.60839   1.61605   1.61981   1.62825   1.63855
 Alpha virt. eigenvalues --    1.64157   1.65501   1.66261   1.67010   1.67199
 Alpha virt. eigenvalues --    1.69020   1.69335   1.70038   1.70601   1.70795
 Alpha virt. eigenvalues --    1.71660   1.71690   1.73324   1.73622   1.74631
 Alpha virt. eigenvalues --    1.75131   1.75988   1.76065   1.77306   1.77563
 Alpha virt. eigenvalues --    1.78522   1.79264   1.80367   1.80879   1.82303
 Alpha virt. eigenvalues --    1.82637   1.83830   1.84228   1.84951   1.86509
 Alpha virt. eigenvalues --    1.87290   1.87654   1.88140   1.89322   1.90253
 Alpha virt. eigenvalues --    1.91471   1.91859   1.92109   1.92989   1.94409
 Alpha virt. eigenvalues --    1.94795   1.95796   1.96435   1.97837   1.98336
 Alpha virt. eigenvalues --    1.99477   2.00504   2.01425   2.01826   2.02958
 Alpha virt. eigenvalues --    2.03493   2.03930   2.05513   2.07336   2.09446
 Alpha virt. eigenvalues --    2.09862   2.11924   2.14248   2.14991   2.15448
 Alpha virt. eigenvalues --    2.16502   2.16936   2.17461   2.18417   2.19475
 Alpha virt. eigenvalues --    2.20444   2.20892   2.21659   2.22871   2.24800
 Alpha virt. eigenvalues --    2.25284   2.26373   2.26942   2.28219   2.28672
 Alpha virt. eigenvalues --    2.29890   2.31133   2.32067   2.32863   2.33435
 Alpha virt. eigenvalues --    2.34889   2.35886   2.37680   2.39481   2.40445
 Alpha virt. eigenvalues --    2.41251   2.42124   2.44151   2.45320   2.45910
 Alpha virt. eigenvalues --    2.47679   2.49855   2.50988   2.51655   2.52151
 Alpha virt. eigenvalues --    2.52459   2.53550   2.56014   2.57005   2.57458
 Alpha virt. eigenvalues --    2.58761   2.59664   2.60075   2.61976   2.63547
 Alpha virt. eigenvalues --    2.64350   2.65369   2.65966   2.67765   2.69079
 Alpha virt. eigenvalues --    2.70522   2.73663   2.75833   2.81018   2.83932
 Alpha virt. eigenvalues --    2.85830   2.87244   2.88477   2.90625   2.91056
 Alpha virt. eigenvalues --    2.94862   3.00916   3.02313   3.02844   3.09982
 Alpha virt. eigenvalues --    3.67640   3.70823   3.80282   3.82703   3.88709
 Alpha virt. eigenvalues --    3.92637   3.93165   3.96152   3.96903   4.01391
 Alpha virt. eigenvalues --    4.05226   4.07913   4.11674   4.15752   4.16920
 Alpha virt. eigenvalues --    4.17389   4.20183   4.22722   4.23716   4.27765
 Alpha virt. eigenvalues --    4.30148   4.37525   4.38638   4.41440   4.46842
 Alpha virt. eigenvalues --    4.49838   4.53704   4.56049   4.61478
          Condensed to atoms (all electrons):
 Mulliken charges:
               1
     1  N   -0.766609
     2  C   -0.121227
     3  C    0.625379
     4  O   -0.498382
     5  C   -0.300015
     6  C   -0.395117
     7  C    0.622645
     8  O   -0.472448
     9  O   -0.540071
    10  H    0.444253
    11  H    0.412121
    12  H    0.205116
    13  H    0.196586
    14  H    0.223925
    15  H    0.205538
    16  H    0.197044
    17  H    0.422160
    18  H    0.455858
    19  N   -0.589808
    20  C   -0.074043
    21  C    0.620714
    22  O   -0.583890
    23  C   -0.301525
    24  C   -0.101036
    25  C   -0.477148
    26  C   -0.450087
    27  H    0.364416
    28  H    0.182374
    29  H    0.166781
    30  H    0.167802
    31  H    0.148301
    32  H    0.148424
    33  H    0.175757
    34  H    0.152132
    35  H    0.152976
    36  H    0.155083
    37  H    0.168721
    38  N   -0.623394
    39  C   -0.038827
    40  C    0.604814
    41  O   -0.446987
    42  C   -0.282067
    43  C   -0.277934
    44  C   -0.156961
    45  N   -0.620464
    46  C    0.606898
    47  N   -0.717420
    48  N   -0.765033
    49  O   -0.619044
    50  H    0.450160
    51  H    0.412836
    52  H    0.206427
    53  H    0.164428
    54  H    0.192404
    55  H    0.160420
    56  H    0.102942
    57  H    0.169380
    58  H    0.198588
    59  H    0.350488
    60  H    0.315815
    61  H    0.349707
    62  H    0.320125
 Sum of Mulliken charges =   1.00000
 Mulliken charges with hydrogens summed into heavy atoms:
               1
     1  N    0.523531
     2  C    0.083889
     3  C    0.625379
     4  O   -0.498382
     5  C    0.120495
     6  C    0.007465
     7  C    0.622645
     8  O   -0.472448
     9  O   -0.095818
    19  N   -0.225392
    20  C    0.108331
    21  C    0.620714
    22  O   -0.583890
    23  C    0.033057
    24  C    0.047264
    25  C   -0.000835
    26  C    0.026693
    38  N   -0.210558
    39  C    0.167601
    40  C    0.604814
    41  O   -0.446987
    42  C    0.074765
    43  C   -0.014572
    44  C    0.211006
    45  N   -0.269976
    46  C    0.606898
    47  N   -0.401605
    48  N   -0.095201
    49  O   -0.168885
 Electronic spatial extent (au):  <R**2>=         509275.7135
 Charge=              1.0000 electrons
 Dipole moment (field-independent basis, Debye):
    X=             49.8824    Y=             77.5934    Z=             56.1853  Tot=            108.0083
 Quadrupole moment (field-independent basis, Debye-Ang):
   XX=            369.8919   YY=           1114.1932   ZZ=            479.7519
   XY=            817.3964   XZ=            569.7722   YZ=            914.7467
 Traceless Quadrupole moment (field-independent basis, Debye-Ang):
   XX=           -284.7205   YY=            459.5809   ZZ=           -174.8604
   XY=            817.3964   XZ=            569.7722   YZ=            914.7467
 Octapole moment (field-independent basis, Debye-Ang**2):
  XXX=            144.1901  YYY=          12801.3683  ZZZ=            521.5356  XYY=          11805.5959
  XXY=           6012.6895  XXZ=           3721.3167  XZZ=           4381.8310  YZZ=           7654.3958
  YYZ=          12962.3093  XYZ=           9389.5831
 Hexadecapole moment (field-independent basis, Debye-Ang**3):
 XXXX=         -71127.6991 YYYY=          58279.5347 ZZZZ=        -108613.1701 XXXY=          -1845.9529
 XXXZ=         -14481.9253 YYYX=         133786.8133 YYYZ=         139661.6660 ZZZX=         -12178.6810
 ZZZY=            804.1422 XXYY=          78047.3431 XXZZ=           8897.4842 YYZZ=          93552.8325
 XXYZ=          60436.9377 YYXZ=         132414.8067 ZZXY=          70179.6014
 N-N= 3.325905505354D+03 E-N=-9.999190786640D+03  KE= 1.434079936126D+03
 Unable to Open any file for archive entry.
 1\1\GINC-SKL-140\SP\RB3LYP\6-31G(d)\C17H33N6O6(1+)\KENGMITH\24-May-202
 2\0\\# B3LYP/6-31G* empiricaldispersion=gd3 guess=read geom=check nosy
 mm integral(ultrafinegrid)\\Candidate Structure: Conf:879 Charge calc 
 in gas phase\\1,1\N,0,8.6381590782,17.3277858477,12.1114266056\C,0,9.8
 474045256,16.958008443,11.2858804457\C,0,10.0839180273,18.1886199532,1
 0.3879902369\O,0,9.1984628789,18.479922431,9.5941040717\C,0,9.62617432
 22,15.7165255659,10.4129238902\C,0,9.155842763,14.4347878444,11.153553
 3242\C,0,9.8910575079,14.2942667351,12.4706335867\O,0,9.5831062483,14.
 9724620705,13.4372802456\O,0,10.9765720396,13.5110745429,12.5461579219
 \H,0,11.0973255713,12.9725799584,11.7446601051\H,0,7.8473554159,17.548
 3031309,11.4940277803\H,0,10.641270789,16.7888620957,12.0117672402\H,0
 ,10.5831834775,15.5237329267,9.9146990961\H,0,8.9080542254,15.96141400
 38,9.6247942972\H,0,8.0894072998,14.4959079279,11.3904692035\H,0,9.288
 6642095,13.5701381298,10.4957310689\H,0,8.4196004179,16.5713056287,12.
 7760100311\H,0,8.9109060445,18.1968197982,12.6366199831\N,0,11.2615099
 93,18.8416637025,10.5200273662\C,0,12.1350094557,18.8210372845,11.6958
 501844\C,0,11.3142930366,19.0635221062,12.9951332744\O,0,10.1262365162
 ,19.4358494287,12.9549979221\C,0,13.2280212335,19.8987129456,11.475241
 6348\C,0,14.4398471884,19.9122766937,12.4293699553\C,0,15.1758256228,1
 8.5635644442,12.4749667173\C,0,15.397542917,21.0316770806,11.990013491
 1\H,0,11.3046597012,19.6792933624,9.9466791845\H,0,12.623047796,17.841
 9044877,11.7694958929\H,0,12.7403974548,20.8830361565,11.4900236358\H,
 0,13.605472833,19.7444701365,10.454998113\H,0,14.0993619627,20.1577485
 175,13.4423512818\H,0,15.5028075089,18.2673421628,11.4697854539\H,0,16
 .0666863319,18.6426551579,13.1058105536\H,0,14.5716114717,17.744501477
 9,12.8857782084\H,0,15.8009671112,20.8340816976,10.9890435038\H,0,14.8
 947861988,22.0052268013,11.9657034151\H,0,16.2424090177,21.1075926221,
 12.6818068963\N,0,11.9850651537,18.8232081426,14.122954013\C,0,11.6349
 987549,19.2945761564,15.472311387\C,0,12.7619911762,18.8479911228,16.4
 216240265\O,0,12.5900217558,18.7035081723,17.6093199218\C,0,10.2530193
 247,18.8728767174,16.0089460007\C,0,9.8231179549,17.4003639197,15.8931
 282056\C,0,10.7041808335,16.302012552,16.54465374\N,0,11.6245524922,15
 .7096754341,15.5810426123\C,0,12.990517019,15.7328008006,15.5870530734
 \N,0,13.7968338601,16.0547372962,16.550300192\N,0,13.5495781864,15.460
 2700878,14.3235971884\O,0,13.9166890352,18.5937429782,15.7784133953\H,
 0,14.3134473491,17.7702934338,16.2069843033\H,0,12.9368102211,18.47530
 2263,14.0616762428\H,0,11.6496270753,20.3939621813,15.4562627205\H,0,9
 .5049471162,19.4775114219,15.4891465011\H,0,10.2426815419,19.173873808
 4,17.0608287074\H,0,8.8233876653,17.3415348567,16.3409386072\H,0,9.694
 4532069,17.1408586838,14.8347863584\H,0,10.0557915489,15.5115285549,16
 .9397473434\H,0,11.2634574058,16.7060291988,17.3891220233\H,0,11.16308
 44304,15.3264886514,14.7654824924\H,0,13.3001267236,16.2274218449,17.4
 226339143\H,0,14.5267964498,15.2041535364,14.4253463192\H,0,13.0502134
 161,14.7497648544,13.7954402624\\Version=ES64L-G16RevC.01\HF=-1447.467
 5985\RMSD=1.049e-09\Dipole=-2.292688,-2.6235056,-3.2803297\Quadrupole=
 -211.6826868,341.6871261,-130.0044394,607.7142257,423.6116715,680.0917
 722\PG=C01 [X(C17H33N6O6)]\\@
 The archive entry for this job was punched.


 HE WHO LOVES TO READ, AND KNOWS HOW TO REFLECT,
 HAS LAID BY A PERPETUAL FEAST FOR HIS OLD AGE.
 -- UNCLE ESEK, "SCRIBNER'S MONTHLY", SEPT. 1880
 Job cpu time:       0 days  0 hours  3 minutes 21.1 seconds.
 Elapsed time:       0 days  0 hours  0 minutes 51.2 seconds.
 File lengths (MBytes):  RWF=    248 Int=      0 D2E=      0 Chk=     32 Scr=     16
 Normal termination of Gaussian 16 at Tue May 24 03:34:26 2022.
