 Entering Gaussian System, Link 0=/opt/software/Gaussian/g16-AVX2-C.01/g16/g16
 Input=charge-conf-34.com
 Output=charge-conf-34.log
 Initial command:
 /opt/software/Gaussian/g16-AVX2-C.01/g16/l1.exe "/mnt/gs18/scratch/users/kengmith/Gau-19152.inp" -scrdir="/mnt/gs18/scratch/users/kengmith/"
 Entering Link 1 = /opt/software/Gaussian/g16-AVX2-C.01/g16/l1.exe PID=     19163.
  
 Copyright (c) 1988-2019, Gaussian, Inc.  All Rights Reserved.
  
 This is part of the Gaussian(R) 16 program.  It is based on
 the Gaussian(R) 09 system (copyright 2009, Gaussian, Inc.),
 the Gaussian(R) 03 system (copyright 2003, Gaussian, Inc.),
 the Gaussian(R) 98 system (copyright 1998, Gaussian, Inc.),
 the Gaussian(R) 94 system (copyright 1995, Gaussian, Inc.),
 the Gaussian 92(TM) system (copyright 1992, Gaussian, Inc.),
 the Gaussian 90(TM) system (copyright 1990, Gaussian, Inc.),
 the Gaussian 88(TM) system (copyright 1988, Gaussian, Inc.),
 the Gaussian 86(TM) system (copyright 1986, Carnegie Mellon
 University), and the Gaussian 82(TM) system (copyright 1983,
 Carnegie Mellon University). Gaussian is a federally registered
 trademark of Gaussian, Inc.
  
 This software contains proprietary and confidential information,
 including trade secrets, belonging to Gaussian, Inc.
  
 This software is provided under written license and may be
 used, copied, transmitted, or stored only in accord with that
 written license.
  
 The following legend is applicable only to US Government
 contracts under FAR:
  
                    RESTRICTED RIGHTS LEGEND
  
 Use, reproduction and disclosure by the US Government is
 subject to restrictions as set forth in subparagraphs (a)
 and (c) of the Commercial Computer Software - Restricted
 Rights clause in FAR 52.227-19.
  
 Gaussian, Inc.
 340 Quinnipiac St., Bldg. 40, Wallingford CT 06492
  
  
 ---------------------------------------------------------------
 Warning -- This program may not be used in any manner that
 competes with the business of Gaussian, Inc. or will provide
 assistance to any competitor of Gaussian, Inc.  The licensee
 of this program is prohibited from giving any competitor of
 Gaussian, Inc. access to this program.  By using this program,
 the user acknowledges that Gaussian, Inc. is engaged in the
 business of creating and licensing software in the field of
 computational chemistry and represents and warrants to the
 licensee that it is not a competitor of Gaussian, Inc. and that
 it will not use this program in any manner prohibited above.
 ---------------------------------------------------------------
  

 Cite this work as:
 Gaussian 16, Revision C.01,
 M. J. Frisch, G. W. Trucks, H. B. Schlegel, G. E. Scuseria, 
 M. A. Robb, J. R. Cheeseman, G. Scalmani, V. Barone, 
 G. A. Petersson, H. Nakatsuji, X. Li, M. Caricato, A. V. Marenich, 
 J. Bloino, B. G. Janesko, R. Gomperts, B. Mennucci, H. P. Hratchian, 
 J. V. Ortiz, A. F. Izmaylov, J. L. Sonnenberg, D. Williams-Young, 
 F. Ding, F. Lipparini, F. Egidi, J. Goings, B. Peng, A. Petrone, 
 T. Henderson, D. Ranasinghe, V. G. Zakrzewski, J. Gao, N. Rega, 
 G. Zheng, W. Liang, M. Hada, M. Ehara, K. Toyota, R. Fukuda, 
 J. Hasegawa, M. Ishida, T. Nakajima, Y. Honda, O. Kitao, H. Nakai, 
 T. Vreven, K. Throssell, J. A. Montgomery, Jr., J. E. Peralta, 
 F. Ogliaro, M. J. Bearpark, J. J. Heyd, E. N. Brothers, K. N. Kudin, 
 V. N. Staroverov, T. A. Keith, R. Kobayashi, J. Normand, 
 K. Raghavachari, A. P. Rendell, J. C. Burant, S. S. Iyengar, 
 J. Tomasi, M. Cossi, J. M. Millam, M. Klene, C. Adamo, R. Cammi, 
 J. W. Ochterski, R. L. Martin, K. Morokuma, O. Farkas, 
 J. B. Foresman, and D. J. Fox, Gaussian, Inc., Wallingford CT, 2019.
 
 ******************************************
 Gaussian 16:  ES64L-G16RevC.01  3-Jul-2019
                24-May-2022 
 ******************************************
 %mem=8gb
 %nproc=4
 Will use up to    4 processors via shared memory.
 %chk=conf-34.chk
 ----------------------------------------------------------------------
 # B3LYP/6-31G* empiricaldispersion=gd3 guess=read geom=check nosymm in
 tegral(ultrafinegrid)
 ----------------------------------------------------------------------
 1/29=2,38=1,172=1/1;
 2/12=2,15=1,40=1/2;
 3/5=1,6=6,7=1,11=2,14=-4,25=1,30=1,74=-5,75=-5,116=-2,124=31/1,2,3;
 4/5=1/1;
 5/5=2,38=6/2;
 6/7=2,8=2,9=2,10=2,28=1/1;
 99/5=1,9=1/99;
 -----------------------------------------------------
 Candidate Structure: Conf:34 Charge calc in gas phase
 -----------------------------------------------------
 Structure from the checkpoint file:  "conf-34.chk"
 Charge =  1 Multiplicity = 1
 Redundant internal coordinates found in file.  (old form).
 N,0,14.9305936821,17.8021366831,13.2552747549
 C,0,13.9772141865,18.780612644,13.8910985491
 C,0,13.7819517359,19.8529050711,12.8140508562
 O,0,14.7703228265,20.4727633163,12.4358132511
 C,0,14.56913193,19.3506677481,15.1950435986
 C,0,14.0961754399,18.5806661376,16.4319693222
 C,0,14.4746265641,17.1177684284,16.4546649451
 O,0,15.1953735395,16.5445592168,15.6485010544
 O,0,13.9595458946,16.4936961012,17.5173325718
 H,0,14.2388351858,15.5587441803,17.4769352249
 H,0,15.249695273,17.138668259,13.9940677689
 H,0,13.0884165381,18.1916137118,14.1162739029
 H,0,14.244548756,20.3908095914,15.2961152852
 H,0,15.6623059768,19.3857046892,15.1406835936
 H,0,14.5029645719,19.0349313527,17.3439786093
 H,0,13.0058047692,18.6355795475,16.5172786558
 H,0,14.406069934,17.3282506776,12.5032333021
 H,0,15.7207490777,18.3197602893,12.8514478147
 N,0,12.5387217628,20.0428978897,12.2969683337
 C,0,11.3642212199,19.1859823464,12.4459394783
 C,0,11.575911099,17.8509957183,11.6851448428
 O,0,12.6794988113,17.286480811,11.7079435956
 C,0,10.083532553,19.9695354428,12.1259281193
 C,0,9.9193527541,21.2818603257,12.9216590579
 C,0,8.5779615043,21.9343910269,12.5592532011
 C,0,10.0320045151,21.055889052,14.4359650167
 H,0,12.5236757549,20.72022256,11.5406922519
 H,0,11.3000194194,18.8625781406,13.4905666131
 H,0,9.2262836114,19.3253657787,12.3644047712
 H,0,10.0358082454,20.1845797324,11.0487581297
 H,0,10.7222860439,21.9684941067,12.6218370975
 H,0,8.4704730929,22.9034146469,13.0572210423
 H,0,8.48996456,22.1008553869,11.4794304539
 H,0,7.7371487963,21.3030790687,12.8732450529
 H,0,9.8137393122,21.9810834022,14.978883662
 H,0,9.3183050397,20.2943129326,14.7765139319
 H,0,11.0393700603,20.737634623,14.7295184063
 N,0,10.4938321642,17.3132193913,11.0983500655
 C,0,10.4832014155,15.9985181537,10.4522409934
 C,0,9.1411465225,15.7444095498,9.7619934822
 O,0,8.7993636467,14.6594442983,9.3644115948
 C,0,10.8135937408,14.8452801811,11.4179515488
 C,0,9.8867654648,14.7679044353,12.6427407153
 C,0,10.4962076128,13.978608065,13.8313267124
 N,0,10.3289070995,14.6073721034,15.1388485379
 C,0,10.9285687893,15.8053799608,15.4703178015
 N,0,11.824337826,16.450877669,14.787892936
 N,0,10.4817820963,16.3189118614,16.6804045847
 O,0,8.3913770881,16.865478676,9.6267315106
 H,0,7.5709012434,16.6118666514,9.1621833434
 H,0,9.6402793173,17.8500520755,11.0459742575
 H,0,11.2365736627,15.9970820527,9.6526647011
 H,0,11.8511958189,14.9834882036,11.7340141897
 H,0,10.7757861048,13.9200214412,10.8358850844
 H,0,9.6734077934,15.785371185,12.9941508736
 H,0,8.9249354751,14.3333014465,12.3498581845
 H,0,11.567789831,13.8141416718,13.6711347165
 H,0,10.0460553824,12.9875254287,13.907205389
 H,0,9.4346661049,14.4483537864,15.5859869601
 H,0,11.982431458,16.0278446821,13.8761040352
 H,0,11.0214837794,17.1143840405,16.9937358236
 H,0,10.3473517146,15.6416472924,17.4217237691
 Recover connectivity data from disk.
                           ----------------------------
                           !    Current Parameters    !
                           ! (Angstroms and Degrees)  !
 --------------------------                            --------------------------
 ! Name  Definition              Value                                          !
 --------------------------------------------------------------------------------
 ! R1    R(1,2)                  1.5069                                         !
 ! R2    R(1,11)                 1.043                                          !
 ! R3    R(1,17)                 1.0321                                         !
 ! R4    R(1,18)                 1.0273                                         !
 ! R5    R(2,3)                  1.5323                                         !
 ! R6    R(2,5)                  1.5413                                         !
 ! R7    R(2,12)                 1.0898                                         !
 ! R8    R(3,4)                  1.2264                                         !
 ! R9    R(3,19)                 1.3598                                         !
 ! R10   R(5,6)                  1.5319                                         !
 ! R11   R(5,13)                 1.0943                                         !
 ! R12   R(5,14)                 1.0951                                         !
 ! R13   R(6,7)                  1.5112                                         !
 ! R14   R(6,15)                 1.0971                                         !
 ! R15   R(6,16)                 1.0951                                         !
 ! R16   R(7,8)                  1.2239                                         !
 ! R17   R(7,9)                  1.3357                                         !
 ! R18   R(9,10)                 0.9766                                         !
 ! R19   R(19,20)                1.4615                                         !
 ! R20   R(19,27)                1.0154                                         !
 ! R21   R(20,21)                1.5511                                         !
 ! R22   R(20,23)                1.5351                                         !
 ! R23   R(20,28)                1.0954                                         !
 ! R24   R(21,22)                1.2398                                         !
 ! R25   R(21,38)                1.3433                                         !
 ! R26   R(23,24)                1.5435                                         !
 ! R27   R(23,29)                1.0985                                         !
 ! R28   R(23,30)                1.0995                                         !
 ! R29   R(24,25)                1.5351                                         !
 ! R30   R(24,26)                1.5352                                         !
 ! R31   R(24,31)                1.0982                                         !
 ! R32   R(25,32)                1.0948                                         !
 ! R33   R(25,33)                1.0961                                         !
 ! R34   R(25,34)                1.0973                                         !
 ! R35   R(26,35)                1.0947                                         !
 ! R36   R(26,36)                1.0979                                         !
 ! R37   R(26,37)                1.0965                                         !
 ! R38   R(38,39)                1.4649                                         !
 ! R39   R(38,51)                1.0097                                         !
 ! R40   R(39,40)                1.5304                                         !
 ! R41   R(39,42)                1.54                                           !
 ! R42   R(39,52)                1.0986                                         !
 ! R43   R(40,41)                1.205                                          !
 ! R44   R(40,49)                1.3555                                         !
 ! R45   R(42,43)                1.5379                                         !
 ! R46   R(42,53)                1.0934                                         !
 ! R47   R(42,54)                1.0938                                         !
 ! R48   R(43,44)                1.5515                                         !
 ! R49   R(43,55)                1.0974                                         !
 ! R50   R(43,56)                1.0953                                         !
 ! R51   R(44,45)                1.4605                                         !
 ! R52   R(44,57)                1.0959                                         !
 ! R53   R(44,58)                1.0912                                         !
 ! R54   R(45,46)                1.3801                                         !
 ! R55   R(45,59)                1.0124                                         !
 ! R56   R(46,47)                1.298                                          !
 ! R57   R(46,48)                1.3884                                         !
 ! R58   R(47,60)                1.0175                                         !
 ! R59   R(48,61)                1.0111                                         !
 ! R60   R(48,62)                1.0131                                         !
 ! R61   R(49,50)                0.9764                                         !
 ! A1    A(2,1,11)             107.9236                                         !
 ! A2    A(2,1,17)             106.5026                                         !
 ! A3    A(2,1,18)             108.9851                                         !
 ! A4    A(11,1,17)            112.3053                                         !
 ! A5    A(11,1,18)            111.324                                          !
 ! A6    A(17,1,18)            109.6216                                         !
 ! A7    A(1,2,3)              103.7947                                         !
 ! A8    A(1,2,5)              110.742                                          !
 ! A9    A(1,2,12)             104.6102                                         !
 ! A10   A(3,2,5)              112.6293                                         !
 ! A11   A(3,2,12)             114.8049                                         !
 ! A12   A(5,2,12)             109.7739                                         !
 ! A13   A(2,3,4)              117.889                                          !
 ! A14   A(2,3,19)             118.7874                                         !
 ! A15   A(4,3,19)             123.2917                                         !
 ! A16   A(2,5,6)              112.2495                                         !
 ! A17   A(2,5,13)             108.408                                          !
 ! A18   A(2,5,14)             110.6835                                         !
 ! A19   A(6,5,13)             108.1574                                         !
 ! A20   A(6,5,14)             111.3691                                         !
 ! A21   A(13,5,14)            105.6804                                         !
 ! A22   A(5,6,7)              114.9225                                         !
 ! A23   A(5,6,15)             110.4039                                         !
 ! A24   A(5,6,16)             110.189                                          !
 ! A25   A(7,6,15)             107.1865                                         !
 ! A26   A(7,6,16)             107.2608                                         !
 ! A27   A(15,6,16)            106.4795                                         !
 ! A28   A(6,7,8)              126.2243                                         !
 ! A29   A(6,7,9)              111.5717                                         !
 ! A30   A(8,7,9)              122.1622                                         !
 ! A31   A(7,9,10)             107.7046                                         !
 ! A32   A(3,19,20)            127.883                                          !
 ! A33   A(3,19,27)            112.9535                                         !
 ! A34   A(20,19,27)           117.0742                                         !
 ! A35   A(19,20,21)           110.1801                                         !
 ! A36   A(19,20,23)           110.4825                                         !
 ! A37   A(19,20,28)           108.5062                                         !
 ! A38   A(21,20,23)           116.8033                                         !
 ! A39   A(21,20,28)           102.8058                                         !
 ! A40   A(23,20,28)           107.4933                                         !
 ! A41   A(20,21,22)           120.289                                          !
 ! A42   A(20,21,38)           116.6729                                         !
 ! A43   A(22,21,38)           122.8736                                         !
 ! A44   A(20,23,24)           114.5352                                         !
 ! A45   A(20,23,29)           107.847                                          !
 ! A46   A(20,23,30)           109.8942                                         !
 ! A47   A(24,23,29)           107.6773                                         !
 ! A48   A(24,23,30)           109.5223                                         !
 ! A49   A(29,23,30)           107.0684                                         !
 ! A50   A(23,24,25)           109.4301                                         !
 ! A51   A(23,24,26)           112.0595                                         !
 ! A52   A(23,24,31)           108.2447                                         !
 ! A53   A(25,24,26)           111.073                                          !
 ! A54   A(25,24,31)           107.9782                                         !
 ! A55   A(26,24,31)           107.919                                          !
 ! A56   A(24,25,32)           110.7728                                         !
 ! A57   A(24,25,33)           111.548                                          !
 ! A58   A(24,25,34)           110.9437                                         !
 ! A59   A(32,25,33)           107.8058                                         !
 ! A60   A(32,25,34)           107.689                                          !
 ! A61   A(33,25,34)           107.9236                                         !
 ! A62   A(24,26,35)           110.4974                                         !
 ! A63   A(24,26,36)           111.1227                                         !
 ! A64   A(24,26,37)           111.976                                          !
 ! A65   A(35,26,36)           107.6267                                         !
 ! A66   A(35,26,37)           107.2001                                         !
 ! A67   A(36,26,37)           108.2314                                         !
 ! A68   A(21,38,39)           123.9039                                         !
 ! A69   A(21,38,51)           119.3918                                         !
 ! A70   A(39,38,51)           116.6245                                         !
 ! A71   A(38,39,40)           110.7507                                         !
 ! A72   A(38,39,42)           113.1986                                         !
 ! A73   A(38,39,52)           108.4939                                         !
 ! A74   A(40,39,42)           110.2806                                         !
 ! A75   A(40,39,52)           105.836                                          !
 ! A76   A(42,39,52)           107.9566                                         !
 ! A77   A(39,40,41)           123.1643                                         !
 ! A78   A(39,40,49)           113.126                                          !
 ! A79   A(41,40,49)           123.7019                                         !
 ! A80   A(39,42,43)           114.0659                                         !
 ! A81   A(39,42,53)           106.869                                          !
 ! A82   A(39,42,54)           106.9986                                         !
 ! A83   A(43,42,53)           110.3675                                         !
 ! A84   A(43,42,54)           111.1265                                         !
 ! A85   A(53,42,54)           107.0705                                         !
 ! A86   A(42,43,44)           113.5147                                         !
 ! A87   A(42,43,55)           108.9991                                         !
 ! A88   A(42,43,56)           109.6464                                         !
 ! A89   A(44,43,55)           107.6219                                         !
 ! A90   A(44,43,56)           110.3602                                         !
 ! A91   A(55,43,56)           106.4261                                         !
 ! A92   A(43,44,45)           114.9512                                         !
 ! A93   A(43,44,57)           110.393                                          !
 ! A94   A(43,44,58)           110.6889                                         !
 ! A95   A(45,44,57)           107.9079                                         !
 ! A96   A(45,44,58)           106.351                                          !
 ! A97   A(57,44,58)           106.0958                                         !
 ! A98   A(44,45,46)           122.6136                                         !
 ! A99   A(44,45,59)           115.4032                                         !
 ! A100  A(46,45,59)           114.4611                                         !
 ! A101  A(45,46,47)           127.2487                                         !
 ! A102  A(45,46,48)           112.9905                                         !
 ! A103  A(47,46,48)           119.7604                                         !
 ! A104  A(46,47,60)           111.8144                                         !
 ! A105  A(46,48,61)           112.9131                                         !
 ! A106  A(46,48,62)           115.6713                                         !
 ! A107  A(61,48,62)           111.718                                          !
 ! A108  A(40,49,50)           107.306                                          !
 ! D1    D(11,1,2,3)           169.5315                                         !
 ! D2    D(11,1,2,5)            48.4245                                         !
 ! D3    D(11,1,2,12)          -69.7762                                         !
 ! D4    D(17,1,2,3)           -69.6805                                         !
 ! D5    D(17,1,2,5)           169.2126                                         !
 ! D6    D(17,1,2,12)           51.0118                                         !
 ! D7    D(18,1,2,3)            48.5037                                         !
 ! D8    D(18,1,2,5)           -72.6033                                         !
 ! D9    D(18,1,2,12)          169.196                                          !
 ! D10   D(1,2,3,4)            -60.448                                          !
 ! D11   D(1,2,3,19)           117.5676                                         !
 ! D12   D(5,2,3,4)             59.3831                                         !
 ! D13   D(5,2,3,19)          -122.6013                                         !
 ! D14   D(12,2,3,4)          -174.0016                                         !
 ! D15   D(12,2,3,19)            4.014                                          !
 ! D16   D(1,2,5,6)            -95.0079                                         !
 ! D17   D(1,2,5,13)           145.5853                                         !
 ! D18   D(1,2,5,14)            30.1101                                         !
 ! D19   D(3,2,5,6)            149.2639                                         !
 ! D20   D(3,2,5,13)            29.857                                          !
 ! D21   D(3,2,5,14)           -85.6182                                         !
 ! D22   D(12,2,5,6)            20.0019                                         !
 ! D23   D(12,2,5,13)          -99.405                                          !
 ! D24   D(12,2,5,14)          145.1199                                         !
 ! D25   D(2,3,19,20)          -12.5289                                         !
 ! D26   D(2,3,19,27)         -175.4207                                         !
 ! D27   D(4,3,19,20)          165.3727                                         !
 ! D28   D(4,3,19,27)            2.4809                                         !
 ! D29   D(2,5,6,7)             60.8613                                         !
 ! D30   D(2,5,6,15)          -177.7743                                         !
 ! D31   D(2,5,6,16)           -60.4354                                         !
 ! D32   D(13,5,6,7)          -179.5854                                         !
 ! D33   D(13,5,6,15)          -58.221                                          !
 ! D34   D(13,5,6,16)           59.1179                                         !
 ! D35   D(14,5,6,7)           -63.8793                                         !
 ! D36   D(14,5,6,15)           57.4851                                         !
 ! D37   D(14,5,6,16)          174.824                                          !
 ! D38   D(5,6,7,8)              6.2153                                         !
 ! D39   D(5,6,7,9)           -176.109                                          !
 ! D40   D(15,6,7,8)          -116.886                                          !
 ! D41   D(15,6,7,9)            60.7897                                         !
 ! D42   D(16,6,7,8)           129.0952                                         !
 ! D43   D(16,6,7,9)           -53.2291                                         !
 ! D44   D(6,7,9,10)          -179.8917                                         !
 ! D45   D(8,7,9,10)            -2.1066                                         !
 ! D46   D(3,19,20,21)         -68.5965                                         !
 ! D47   D(3,19,20,23)         160.8521                                         !
 ! D48   D(3,19,20,28)          43.245                                          !
 ! D49   D(27,19,20,21)         93.6921                                         !
 ! D50   D(27,19,20,23)        -36.8592                                         !
 ! D51   D(27,19,20,28)       -154.4664                                         !
 ! D52   D(19,20,21,22)         40.0422                                         !
 ! D53   D(19,20,21,38)       -144.487                                          !
 ! D54   D(23,20,21,22)        167.1533                                         !
 ! D55   D(23,20,21,38)        -17.3758                                         !
 ! D56   D(28,20,21,22)        -75.4466                                         !
 ! D57   D(28,20,21,38)        100.0243                                         !
 ! D58   D(19,20,23,24)        -53.5929                                         !
 ! D59   D(19,20,23,29)       -173.4369                                         !
 ! D60   D(19,20,23,30)         70.1759                                         !
 ! D61   D(21,20,23,24)        179.4445                                         !
 ! D62   D(21,20,23,29)         59.6005                                         !
 ! D63   D(21,20,23,30)        -56.7867                                         !
 ! D64   D(28,20,23,24)         64.6354                                         !
 ! D65   D(28,20,23,29)        -55.2086                                         !
 ! D66   D(28,20,23,30)       -171.5958                                         !
 ! D67   D(20,21,38,39)       -173.8451                                         !
 ! D68   D(20,21,38,51)          9.5176                                         !
 ! D69   D(22,21,38,39)          1.4981                                         !
 ! D70   D(22,21,38,51)       -175.1392                                         !
 ! D71   D(20,23,24,25)       -177.4662                                         !
 ! D72   D(20,23,24,26)        -53.8015                                         !
 ! D73   D(20,23,24,31)         65.0886                                         !
 ! D74   D(29,23,24,25)        -57.5276                                         !
 ! D75   D(29,23,24,26)         66.137                                          !
 ! D76   D(29,23,24,31)       -174.9729                                         !
 ! D77   D(30,23,24,25)         58.5666                                         !
 ! D78   D(30,23,24,26)       -177.7688                                         !
 ! D79   D(30,23,24,31)        -58.8787                                         !
 ! D80   D(23,24,25,32)       -175.9433                                         !
 ! D81   D(23,24,25,33)        -55.8498                                         !
 ! D82   D(23,24,25,34)         64.5091                                         !
 ! D83   D(26,24,25,32)         59.813                                          !
 ! D84   D(26,24,25,33)        179.9065                                         !
 ! D85   D(26,24,25,34)        -59.7346                                         !
 ! D86   D(31,24,25,32)        -58.3308                                         !
 ! D87   D(31,24,25,33)         61.7627                                         !
 ! D88   D(31,24,25,34)       -177.8784                                         !
 ! D89   D(23,24,26,35)       -174.3894                                         !
 ! D90   D(23,24,26,36)        -54.9838                                         !
 ! D91   D(23,24,26,37)         66.1853                                         !
 ! D92   D(25,24,26,35)        -51.651                                          !
 ! D93   D(25,24,26,36)         67.7545                                         !
 ! D94   D(25,24,26,37)       -171.0764                                         !
 ! D95   D(31,24,26,35)         66.5286                                         !
 ! D96   D(31,24,26,36)       -174.0658                                         !
 ! D97   D(31,24,26,37)        -52.8968                                         !
 ! D98   D(21,38,39,40)       -174.2813                                         !
 ! D99   D(21,38,39,42)         61.2715                                         !
 ! D100  D(21,38,39,52)        -58.5321                                         !
 ! D101  D(51,38,39,40)          2.4414                                         !
 ! D102  D(51,38,39,42)       -122.0058                                         !
 ! D103  D(51,38,39,52)        118.1906                                         !
 ! D104  D(38,39,40,41)       -166.7014                                         !
 ! D105  D(38,39,40,49)         14.2858                                         !
 ! D106  D(42,39,40,41)        -40.6089                                         !
 ! D107  D(42,39,40,49)        140.3784                                         !
 ! D108  D(52,39,40,41)         75.9076                                         !
 ! D109  D(52,39,40,49)       -103.1052                                         !
 ! D110  D(38,39,42,43)         56.5693                                         !
 ! D111  D(38,39,42,53)        -65.6891                                         !
 ! D112  D(38,39,42,54)        179.8885                                         !
 ! D113  D(40,39,42,43)        -68.1331                                         !
 ! D114  D(40,39,42,53)        169.6085                                         !
 ! D115  D(40,39,42,54)         55.1861                                         !
 ! D116  D(52,39,42,43)        176.6799                                         !
 ! D117  D(52,39,42,53)         54.4215                                         !
 ! D118  D(52,39,42,54)        -60.0009                                         !
 ! D119  D(39,40,49,50)        178.7393                                         !
 ! D120  D(41,40,49,50)         -0.2674                                         !
 ! D121  D(39,42,43,44)       -159.2452                                         !
 ! D122  D(39,42,43,55)        -39.3121                                         !
 ! D123  D(39,42,43,56)         76.822                                          !
 ! D124  D(53,42,43,44)        -38.9265                                         !
 ! D125  D(53,42,43,55)         81.0065                                         !
 ! D126  D(53,42,43,56)       -162.8593                                         !
 ! D127  D(54,42,43,44)         79.7027                                         !
 ! D128  D(54,42,43,55)       -160.3643                                         !
 ! D129  D(54,42,43,56)        -44.2301                                         !
 ! D130  D(42,43,44,45)        135.4112                                         !
 ! D131  D(42,43,44,57)         13.0818                                         !
 ! D132  D(42,43,44,58)       -104.0839                                         !
 ! D133  D(55,43,44,45)         14.6988                                         !
 ! D134  D(55,43,44,57)       -107.6306                                         !
 ! D135  D(55,43,44,58)        135.2038                                         !
 ! D136  D(56,43,44,45)       -101.0451                                         !
 ! D137  D(56,43,44,57)        136.6255                                         !
 ! D138  D(56,43,44,58)         19.4598                                         !
 ! D139  D(43,44,45,46)        -65.6984                                         !
 ! D140  D(43,44,45,59)         82.3048                                         !
 ! D141  D(57,44,45,46)         57.9603                                         !
 ! D142  D(57,44,45,59)       -154.0365                                         !
 ! D143  D(58,44,45,46)        171.4414                                         !
 ! D144  D(58,44,45,59)        -40.5554                                         !
 ! D145  D(44,45,46,47)         -9.2002                                         !
 ! D146  D(44,45,46,48)        171.0103                                         !
 ! D147  D(59,45,46,47)       -157.4756                                         !
 ! D148  D(59,45,46,48)         22.7349                                         !
 ! D149  D(45,46,47,60)          6.9821                                         !
 ! D150  D(48,46,47,60)       -173.2411                                         !
 ! D151  D(45,46,48,61)        170.9038                                         !
 ! D152  D(45,46,48,62)         40.4453                                         !
 ! D153  D(47,46,48,61)         -8.9031                                         !
 ! D154  D(47,46,48,62)       -139.3617                                         !
 --------------------------------------------------------------------------------
 Symmetry turned off by external request.
 Stoichiometry    C17H33N6O6(1+)
 Framework group  C1[X(C17H33N6O6)]
 Deg. of freedom   180
 Full point group                 C1      NOp   1
                          Input orientation:                          
 ---------------------------------------------------------------------
 Center     Atomic      Atomic             Coordinates (Angstroms)
 Number     Number       Type             X           Y           Z
 ---------------------------------------------------------------------
      1          7           0       14.930594   17.802137   13.255275
      2          6           0       13.977214   18.780613   13.891099
      3          6           0       13.781952   19.852905   12.814051
      4          8           0       14.770323   20.472763   12.435813
      5          6           0       14.569132   19.350668   15.195044
      6          6           0       14.096175   18.580666   16.431969
      7          6           0       14.474627   17.117768   16.454665
      8          8           0       15.195374   16.544559   15.648501
      9          8           0       13.959546   16.493696   17.517333
     10          1           0       14.238835   15.558744   17.476935
     11          1           0       15.249695   17.138668   13.994068
     12          1           0       13.088417   18.191614   14.116274
     13          1           0       14.244549   20.390810   15.296115
     14          1           0       15.662306   19.385705   15.140684
     15          1           0       14.502965   19.034931   17.343979
     16          1           0       13.005805   18.635580   16.517279
     17          1           0       14.406070   17.328251   12.503233
     18          1           0       15.720749   18.319760   12.851448
     19          7           0       12.538722   20.042898   12.296968
     20          6           0       11.364221   19.185982   12.445939
     21          6           0       11.575911   17.850996   11.685145
     22          8           0       12.679499   17.286481   11.707944
     23          6           0       10.083533   19.969535   12.125928
     24          6           0        9.919353   21.281860   12.921659
     25          6           0        8.577962   21.934391   12.559253
     26          6           0       10.032005   21.055889   14.435965
     27          1           0       12.523676   20.720223   11.540692
     28          1           0       11.300019   18.862578   13.490567
     29          1           0        9.226284   19.325366   12.364405
     30          1           0       10.035808   20.184580   11.048758
     31          1           0       10.722286   21.968494   12.621837
     32          1           0        8.470473   22.903415   13.057221
     33          1           0        8.489965   22.100855   11.479430
     34          1           0        7.737149   21.303079   12.873245
     35          1           0        9.813739   21.981083   14.978884
     36          1           0        9.318305   20.294313   14.776514
     37          1           0       11.039370   20.737635   14.729518
     38          7           0       10.493832   17.313219   11.098350
     39          6           0       10.483201   15.998518   10.452241
     40          6           0        9.141147   15.744410    9.761993
     41          8           0        8.799364   14.659444    9.364412
     42          6           0       10.813594   14.845280   11.417952
     43          6           0        9.886765   14.767904   12.642741
     44          6           0       10.496208   13.978608   13.831327
     45          7           0       10.328907   14.607372   15.138849
     46          6           0       10.928569   15.805380   15.470318
     47          7           0       11.824338   16.450878   14.787893
     48          7           0       10.481782   16.318912   16.680405
     49          8           0        8.391377   16.865479    9.626732
     50          1           0        7.570901   16.611867    9.162183
     51          1           0        9.640279   17.850052   11.045974
     52          1           0       11.236574   15.997082    9.652665
     53          1           0       11.851196   14.983488   11.734014
     54          1           0       10.775786   13.920021   10.835885
     55          1           0        9.673408   15.785371   12.994151
     56          1           0        8.924935   14.333301   12.349858
     57          1           0       11.567790   13.814142   13.671135
     58          1           0       10.046055   12.987525   13.907205
     59          1           0        9.434666   14.448354   15.585987
     60          1           0       11.982431   16.027845   13.876104
     61          1           0       11.021484   17.114384   16.993736
     62          1           0       10.347352   15.641647   17.421724
 ---------------------------------------------------------------------
 Rotational constants (GHZ):           0.1730294           0.1255546           0.0983517
 Standard basis: 6-31G(d) (6D, 7F)
   501 basis functions,   944 primitive gaussians,   501 cartesian basis functions
   112 alpha electrons      112 beta electrons
       nuclear repulsion energy      3202.0703799965 Hartrees.
 NAtoms=   62 NActive=   62 NUniq=   62 SFac= 1.00D+00 NAtFMM=   60 NAOKFM=T Big=T
 Integral buffers will be    131072 words long.
 Raffenetti 2 integral format.
 Two-electron integral symmetry is turned off.
 Nuclear repulsion after empirical dispersion term =     3201.9853865277 Hartrees.
 One-electron integrals computed using PRISM.
 NBasis=   501 RedAO= T EigKep=  1.49D-03  NBF=   501
 NBsUse=   501 1.00D-06 EigRej= -1.00D+00 NBFU=   501
 Initial guess from the checkpoint file:  "conf-34.chk"
 B after Tr=     0.000000    0.000000    0.000000
         Rot=    1.000000    0.000000    0.000000    0.000000 Ang=   0.00 deg.
 Requested convergence on RMS density matrix=1.00D-08 within 128 cycles.
 Requested convergence on MAX density matrix=1.00D-06.
 Requested convergence on             energy=1.00D-06.
 No special actions if energy rises.
 SCF Done:  E(RB3LYP) =  -1447.49381759     A.U. after    1 cycles
            NFock=  1  Conv=0.26D-08     -V/T= 2.0094

 **********************************************************************

            Population analysis using the SCF Density.

 **********************************************************************

 Alpha  occ. eigenvalues --  -19.31741 -19.31220 -19.27025 -19.25062 -19.24832
 Alpha  occ. eigenvalues --  -19.23590 -14.55416 -14.48978 -14.48466 -14.45650
 Alpha  occ. eigenvalues --  -14.44517 -14.39655 -10.45025 -10.43342 -10.41891
 Alpha  occ. eigenvalues --  -10.41224 -10.39182 -10.36753 -10.35956 -10.35703
 Alpha  occ. eigenvalues --  -10.32549 -10.32365 -10.32304 -10.30711 -10.29439
 Alpha  occ. eigenvalues --  -10.29341 -10.28871 -10.27225 -10.26428  -1.23134
 Alpha  occ. eigenvalues --   -1.21836  -1.16864  -1.15810  -1.14143  -1.12864
 Alpha  occ. eigenvalues --   -1.10464  -1.08276  -1.05478  -1.04831  -0.99121
 Alpha  occ. eigenvalues --   -0.94693  -0.93134  -0.92401  -0.90621  -0.86687
 Alpha  occ. eigenvalues --   -0.85774  -0.84278  -0.79016  -0.78814  -0.78149
 Alpha  occ. eigenvalues --   -0.76609  -0.74111  -0.72222  -0.71896  -0.71422
 Alpha  occ. eigenvalues --   -0.69576  -0.69369  -0.68473  -0.68230  -0.66898
 Alpha  occ. eigenvalues --   -0.65660  -0.65235  -0.63211  -0.62353  -0.62098
 Alpha  occ. eigenvalues --   -0.61373  -0.60647  -0.59863  -0.59779  -0.58944
 Alpha  occ. eigenvalues --   -0.58730  -0.57923  -0.57045  -0.56935  -0.56220
 Alpha  occ. eigenvalues --   -0.55389  -0.54378  -0.54017  -0.53520  -0.53117
 Alpha  occ. eigenvalues --   -0.52903  -0.52637  -0.52372  -0.51664  -0.51271
 Alpha  occ. eigenvalues --   -0.51080  -0.50667  -0.49519  -0.49011  -0.48821
 Alpha  occ. eigenvalues --   -0.48663  -0.48004  -0.47597  -0.47282  -0.46547
 Alpha  occ. eigenvalues --   -0.46022  -0.45184  -0.44305  -0.44245  -0.43599
 Alpha  occ. eigenvalues --   -0.42997  -0.42827  -0.42655  -0.40774  -0.39591
 Alpha  occ. eigenvalues --   -0.38702  -0.38511  -0.38260  -0.37351  -0.36653
 Alpha  occ. eigenvalues --   -0.35839  -0.33523
 Alpha virt. eigenvalues --   -0.12098  -0.11539  -0.10448  -0.09406  -0.05873
 Alpha virt. eigenvalues --   -0.05081  -0.04579  -0.03708  -0.03059  -0.02668
 Alpha virt. eigenvalues --   -0.01799  -0.01355  -0.00438  -0.00331   0.00645
 Alpha virt. eigenvalues --    0.00865   0.01741   0.02236   0.02459   0.02996
 Alpha virt. eigenvalues --    0.03186   0.03682   0.03962   0.04689   0.05193
 Alpha virt. eigenvalues --    0.05321   0.05972   0.06063   0.06384   0.07152
 Alpha virt. eigenvalues --    0.07691   0.07839   0.07984   0.08267   0.08493
 Alpha virt. eigenvalues --    0.09058   0.09832   0.10180   0.10737   0.11262
 Alpha virt. eigenvalues --    0.11589   0.12074   0.12716   0.13353   0.13545
 Alpha virt. eigenvalues --    0.13977   0.14432   0.14620   0.15573   0.15915
 Alpha virt. eigenvalues --    0.16058   0.16734   0.17741   0.18444   0.19500
 Alpha virt. eigenvalues --    0.19857   0.20429   0.21238   0.21920   0.24745
 Alpha virt. eigenvalues --    0.25324   0.27129   0.28603   0.30515   0.31923
 Alpha virt. eigenvalues --    0.33473   0.37594   0.38564   0.39040   0.39927
 Alpha virt. eigenvalues --    0.40790   0.41300   0.41475   0.41905   0.42324
 Alpha virt. eigenvalues --    0.43145   0.43790   0.44306   0.44972   0.45764
 Alpha virt. eigenvalues --    0.46213   0.46580   0.47324   0.48130   0.48659
 Alpha virt. eigenvalues --    0.48893   0.49709   0.50418   0.50820   0.51144
 Alpha virt. eigenvalues --    0.51415   0.52306   0.52747   0.53291   0.53377
 Alpha virt. eigenvalues --    0.54973   0.55525   0.55773   0.56013   0.57036
 Alpha virt. eigenvalues --    0.57567   0.58069   0.58896   0.59188   0.59656
 Alpha virt. eigenvalues --    0.60825   0.61161   0.61811   0.61991   0.63025
 Alpha virt. eigenvalues --    0.63094   0.63735   0.64257   0.65551   0.66202
 Alpha virt. eigenvalues --    0.67589   0.67850   0.68673   0.69007   0.69407
 Alpha virt. eigenvalues --    0.70139   0.70818   0.71238   0.71547   0.72444
 Alpha virt. eigenvalues --    0.72558   0.73245   0.74155   0.74498   0.74729
 Alpha virt. eigenvalues --    0.75303   0.75631   0.75948   0.76796   0.77265
 Alpha virt. eigenvalues --    0.77720   0.78120   0.78853   0.78972   0.79526
 Alpha virt. eigenvalues --    0.80118   0.80501   0.80962   0.81202   0.81490
 Alpha virt. eigenvalues --    0.81923   0.82119   0.82622   0.83055   0.83654
 Alpha virt. eigenvalues --    0.83934   0.84570   0.84908   0.85103   0.85572
 Alpha virt. eigenvalues --    0.85824   0.86169   0.86678   0.87228   0.88075
 Alpha virt. eigenvalues --    0.89035   0.89554   0.90318   0.90655   0.92087
 Alpha virt. eigenvalues --    0.93087   0.93624   0.94023   0.95223   0.96085
 Alpha virt. eigenvalues --    0.96724   0.97271   0.98151   0.99422   1.00136
 Alpha virt. eigenvalues --    1.00976   1.01520   1.02712   1.03903   1.03931
 Alpha virt. eigenvalues --    1.05137   1.07089   1.08450   1.08910   1.10198
 Alpha virt. eigenvalues --    1.11180   1.11760   1.12989   1.15025   1.15946
 Alpha virt. eigenvalues --    1.18597   1.19541   1.20225   1.20782   1.22339
 Alpha virt. eigenvalues --    1.22808   1.25112   1.25277   1.26640   1.28184
 Alpha virt. eigenvalues --    1.28623   1.29657   1.30576   1.31837   1.32391
 Alpha virt. eigenvalues --    1.32966   1.34666   1.35715   1.36709   1.37965
 Alpha virt. eigenvalues --    1.38794   1.40608   1.42222   1.43821   1.45067
 Alpha virt. eigenvalues --    1.45453   1.47610   1.48620   1.50672   1.51232
 Alpha virt. eigenvalues --    1.52965   1.53390   1.54842   1.55141   1.56481
 Alpha virt. eigenvalues --    1.57747   1.57920   1.59079   1.60183   1.60775
 Alpha virt. eigenvalues --    1.61436   1.62355   1.63332   1.64081   1.64314
 Alpha virt. eigenvalues --    1.65111   1.65948   1.66304   1.67260   1.68327
 Alpha virt. eigenvalues --    1.68893   1.69435   1.69601   1.70844   1.71804
 Alpha virt. eigenvalues --    1.72103   1.72844   1.74002   1.74340   1.74855
 Alpha virt. eigenvalues --    1.75479   1.76422   1.77282   1.77711   1.78427
 Alpha virt. eigenvalues --    1.79354   1.80239   1.80569   1.81112   1.81842
 Alpha virt. eigenvalues --    1.83011   1.84439   1.84557   1.84791   1.85487
 Alpha virt. eigenvalues --    1.86409   1.87286   1.88000   1.88258   1.89460
 Alpha virt. eigenvalues --    1.91222   1.91584   1.92147   1.93499   1.93765
 Alpha virt. eigenvalues --    1.95217   1.95589   1.96424   1.96660   1.98032
 Alpha virt. eigenvalues --    1.98477   2.00205   2.00893   2.01539   2.03270
 Alpha virt. eigenvalues --    2.04856   2.05158   2.06293   2.08996   2.09277
 Alpha virt. eigenvalues --    2.09980   2.11525   2.13849   2.14234   2.15413
 Alpha virt. eigenvalues --    2.16696   2.17604   2.18740   2.19299   2.19942
 Alpha virt. eigenvalues --    2.20663   2.21870   2.23047   2.24097   2.25473
 Alpha virt. eigenvalues --    2.25934   2.27542   2.27703   2.29795   2.30269
 Alpha virt. eigenvalues --    2.31056   2.31596   2.32709   2.33772   2.34343
 Alpha virt. eigenvalues --    2.35405   2.37806   2.38989   2.39832   2.40910
 Alpha virt. eigenvalues --    2.41372   2.41842   2.42893   2.44084   2.46163
 Alpha virt. eigenvalues --    2.47468   2.48951   2.49447   2.51164   2.52639
 Alpha virt. eigenvalues --    2.53569   2.54049   2.54469   2.56598   2.57604
 Alpha virt. eigenvalues --    2.58563   2.60476   2.60799   2.62252   2.63764
 Alpha virt. eigenvalues --    2.64593   2.65035   2.66027   2.68450   2.70433
 Alpha virt. eigenvalues --    2.72934   2.76885   2.77615   2.81990   2.85360
 Alpha virt. eigenvalues --    2.88515   2.88769   2.89886   2.90140   2.94447
 Alpha virt. eigenvalues --    2.97540   2.98630   3.01379   3.04273   3.08654
 Alpha virt. eigenvalues --    3.70937   3.73328   3.74538   3.77695   3.84371
 Alpha virt. eigenvalues --    3.86699   3.92362   3.95881   4.03435   4.04398
 Alpha virt. eigenvalues --    4.06511   4.07909   4.09142   4.13231   4.14513
 Alpha virt. eigenvalues --    4.19475   4.20045   4.21314   4.23540   4.24994
 Alpha virt. eigenvalues --    4.29517   4.32719   4.37785   4.43300   4.46262
 Alpha virt. eigenvalues --    4.48719   4.52714   4.61816   4.67226
          Condensed to atoms (all electrons):
 Mulliken charges:
               1
     1  N   -0.768867
     2  C   -0.127892
     3  C    0.606654
     4  O   -0.504238
     5  C   -0.292958
     6  C   -0.377439
     7  C    0.650290
     8  O   -0.511946
     9  O   -0.549065
    10  H    0.432064
    11  H    0.439517
    12  H    0.252946
    13  H    0.198237
    14  H    0.185939
    15  H    0.213803
    16  H    0.198808
    17  H    0.432317
    18  H    0.401299
    19  N   -0.585937
    20  C   -0.090876
    21  C    0.676735
    22  O   -0.585319
    23  C   -0.329772
    24  C   -0.070992
    25  C   -0.448696
    26  C   -0.455356
    27  H    0.353783
    28  H    0.213116
    29  H    0.154408
    30  H    0.159163
    31  H    0.141270
    32  H    0.167046
    33  H    0.153002
    34  H    0.149524
    35  H    0.170396
    36  H    0.150604
    37  H    0.130874
    38  N   -0.633786
    39  C   -0.038474
    40  C    0.594152
    41  O   -0.433724
    42  C   -0.292060
    43  C   -0.293943
    44  C   -0.168659
    45  N   -0.588029
    46  C    0.619955
    47  N   -0.736697
    48  N   -0.750335
    49  O   -0.585993
    50  H    0.436300
    51  H    0.380958
    52  H    0.214678
    53  H    0.165293
    54  H    0.192602
    55  H    0.148605
    56  H    0.171969
    57  H    0.167524
    58  H    0.180332
    59  H    0.337459
    60  H    0.299470
    61  H    0.342104
    62  H    0.337857
 Sum of Mulliken charges =   1.00000
 Mulliken charges with hydrogens summed into heavy atoms:
               1
     1  N    0.504265
     2  C    0.125054
     3  C    0.606654
     4  O   -0.504238
     5  C    0.091218
     6  C    0.035172
     7  C    0.650290
     8  O   -0.511946
     9  O   -0.117001
    19  N   -0.232153
    20  C    0.122241
    21  C    0.676735
    22  O   -0.585319
    23  C   -0.016201
    24  C    0.070279
    25  C    0.020876
    26  C   -0.003482
    38  N   -0.252828
    39  C    0.176204
    40  C    0.594152
    41  O   -0.433724
    42  C    0.065835
    43  C    0.026630
    44  C    0.179197
    45  N   -0.250570
    46  C    0.619955
    47  N   -0.437228
    48  N   -0.070375
    49  O   -0.149693
 Electronic spatial extent (au):  <R**2>=         510466.0394
 Charge=              1.0000 electrons
 Dipole moment (field-independent basis, Debye):
    X=             55.8827    Y=             83.8355    Z=             66.8855  Tot=            120.9336
 Quadrupole moment (field-independent basis, Debye-Ang):
   XX=            515.7062   YY=           1314.3798   ZZ=            797.2619
   XY=            971.8672   XZ=            795.4812   YZ=           1156.5053
 Traceless Quadrupole moment (field-independent basis, Debye-Ang):
   XX=           -360.0765   YY=            438.5972   ZZ=            -78.5207
   XY=            971.8672   XZ=            795.4812   YZ=           1156.5053
 Octapole moment (field-independent basis, Debye-Ang**2):
  XXX=           2880.6787  YYY=          17631.1084  ZZZ=           7698.2280  XYY=          15129.3768
  XXY=           8865.7637  XXZ=           7665.6035  XZZ=           9730.0129  YZZ=          13579.9891
  YYZ=          18080.6265  XYZ=          13753.7063
 Hexadecapole moment (field-independent basis, Debye-Ang**3):
 XXXX=         -24929.1277 YYYY=         160549.1048 ZZZZ=          38130.9366 XXXY=          46631.1815
 XXXZ=          49087.1227 YYYX=         199290.0918 YYYZ=         243688.8217 ZZZX=          97575.6705
 ZZZY=         126449.6073 XXYY=         129547.6313 XXZZ=          93341.6340 YYZZ=         204918.8012
 XXYZ=         131490.1867 YYXZ=         214532.4756 ZZXY=         166292.7226
 N-N= 3.201985386528D+03 E-N=-9.753160888744D+03  KE= 1.434081803956D+03
 Unable to Open any file for archive entry.
 1\1\GINC-SKL-149\SP\RB3LYP\6-31G(d)\C17H33N6O6(1+)\KENGMITH\24-May-202
 2\0\\# B3LYP/6-31G* empiricaldispersion=gd3 guess=read geom=check nosy
 mm integral(ultrafinegrid)\\Candidate Structure: Conf:34 Charge calc i
 n gas phase\\1,1\N,0,14.9305936821,17.8021366831,13.2552747549\C,0,13.
 9772141865,18.780612644,13.8910985491\C,0,13.7819517359,19.8529050711,
 12.8140508562\O,0,14.7703228265,20.4727633163,12.4358132511\C,0,14.569
 13193,19.3506677481,15.1950435986\C,0,14.0961754399,18.5806661376,16.4
 319693222\C,0,14.4746265641,17.1177684284,16.4546649451\O,0,15.1953735
 395,16.5445592168,15.6485010544\O,0,13.9595458946,16.4936961012,17.517
 3325718\H,0,14.2388351858,15.5587441803,17.4769352249\H,0,15.249695273
 ,17.138668259,13.9940677689\H,0,13.0884165381,18.1916137118,14.1162739
 029\H,0,14.244548756,20.3908095914,15.2961152852\H,0,15.6623059768,19.
 3857046892,15.1406835936\H,0,14.5029645719,19.0349313527,17.3439786093
 \H,0,13.0058047692,18.6355795475,16.5172786558\H,0,14.406069934,17.328
 2506776,12.5032333021\H,0,15.7207490777,18.3197602893,12.8514478147\N,
 0,12.5387217628,20.0428978897,12.2969683337\C,0,11.3642212199,19.18598
 23464,12.4459394783\C,0,11.575911099,17.8509957183,11.6851448428\O,0,1
 2.6794988113,17.286480811,11.7079435956\C,0,10.083532553,19.9695354428
 ,12.1259281193\C,0,9.9193527541,21.2818603257,12.9216590579\C,0,8.5779
 615043,21.9343910269,12.5592532011\C,0,10.0320045151,21.055889052,14.4
 359650167\H,0,12.5236757549,20.72022256,11.5406922519\H,0,11.300019419
 4,18.8625781406,13.4905666131\H,0,9.2262836114,19.3253657787,12.364404
 7712\H,0,10.0358082454,20.1845797324,11.0487581297\H,0,10.7222860439,2
 1.9684941067,12.6218370975\H,0,8.4704730929,22.9034146469,13.057221042
 3\H,0,8.48996456,22.1008553869,11.4794304539\H,0,7.7371487963,21.30307
 90687,12.8732450529\H,0,9.8137393122,21.9810834022,14.978883662\H,0,9.
 3183050397,20.2943129326,14.7765139319\H,0,11.0393700603,20.737634623,
 14.7295184063\N,0,10.4938321642,17.3132193913,11.0983500655\C,0,10.483
 2014155,15.9985181537,10.4522409934\C,0,9.1411465225,15.7444095498,9.7
 619934822\O,0,8.7993636467,14.6594442983,9.3644115948\C,0,10.813593740
 8,14.8452801811,11.4179515488\C,0,9.8867654648,14.7679044353,12.642740
 7153\C,0,10.4962076128,13.978608065,13.8313267124\N,0,10.3289070995,14
 .6073721034,15.1388485379\C,0,10.9285687893,15.8053799608,15.470317801
 5\N,0,11.824337826,16.450877669,14.787892936\N,0,10.4817820963,16.3189
 118614,16.6804045847\O,0,8.3913770881,16.865478676,9.6267315106\H,0,7.
 5709012434,16.6118666514,9.1621833434\H,0,9.6402793173,17.8500520755,1
 1.0459742575\H,0,11.2365736627,15.9970820527,9.6526647011\H,0,11.85119
 58189,14.9834882036,11.7340141897\H,0,10.7757861048,13.9200214412,10.8
 358850844\H,0,9.6734077934,15.785371185,12.9941508736\H,0,8.9249354751
 ,14.3333014465,12.3498581845\H,0,11.567789831,13.8141416718,13.6711347
 165\H,0,10.0460553824,12.9875254287,13.907205389\H,0,9.4346661049,14.4
 483537864,15.5859869601\H,0,11.982431458,16.0278446821,13.8761040352\H
 ,0,11.0214837794,17.1143840405,16.9937358236\H,0,10.3473517146,15.6416
 472924,17.4217237691\\Version=ES64L-G16RevC.01\HF=-1447.4938176\RMSD=2
 .642e-09\Dipole=-0.0409605,-0.3330132,1.220345\Quadrupole=-267.708031,
 326.0862554,-58.3782244,722.559414,591.4207584,859.8333695\PG=C01 [X(C
 17H33N6O6)]\\@
 The archive entry for this job was punched.


 If your ship doesn't come in, swim out to it!
                          -- Jonathan Winters
 Job cpu time:       0 days  0 hours  1 minutes  6.5 seconds.
 Elapsed time:       0 days  0 hours  0 minutes 17.0 seconds.
 File lengths (MBytes):  RWF=    248 Int=      0 D2E=      0 Chk=     32 Scr=     16
 Normal termination of Gaussian 16 at Tue May 24 03:34:02 2022.
