 Entering Gaussian System, Link 0=/opt/software/Gaussian/g16-AVX2-C.01/g16/g16
 Input=charge-conf-564.com
 Output=charge-conf-564.log
 Initial command:
 /opt/software/Gaussian/g16-AVX2-C.01/g16/l1.exe "/mnt/gs18/scratch/users/kengmith/Gau-14947.inp" -scrdir="/mnt/gs18/scratch/users/kengmith/"
 Entering Link 1 = /opt/software/Gaussian/g16-AVX2-C.01/g16/l1.exe PID=     14957.
  
 Copyright (c) 1988-2019, Gaussian, Inc.  All Rights Reserved.
  
 This is part of the Gaussian(R) 16 program.  It is based on
 the Gaussian(R) 09 system (copyright 2009, Gaussian, Inc.),
 the Gaussian(R) 03 system (copyright 2003, Gaussian, Inc.),
 the Gaussian(R) 98 system (copyright 1998, Gaussian, Inc.),
 the Gaussian(R) 94 system (copyright 1995, Gaussian, Inc.),
 the Gaussian 92(TM) system (copyright 1992, Gaussian, Inc.),
 the Gaussian 90(TM) system (copyright 1990, Gaussian, Inc.),
 the Gaussian 88(TM) system (copyright 1988, Gaussian, Inc.),
 the Gaussian 86(TM) system (copyright 1986, Carnegie Mellon
 University), and the Gaussian 82(TM) system (copyright 1983,
 Carnegie Mellon University). Gaussian is a federally registered
 trademark of Gaussian, Inc.
  
 This software contains proprietary and confidential information,
 including trade secrets, belonging to Gaussian, Inc.
  
 This software is provided under written license and may be
 used, copied, transmitted, or stored only in accord with that
 written license.
  
 The following legend is applicable only to US Government
 contracts under FAR:
  
                    RESTRICTED RIGHTS LEGEND
  
 Use, reproduction and disclosure by the US Government is
 subject to restrictions as set forth in subparagraphs (a)
 and (c) of the Commercial Computer Software - Restricted
 Rights clause in FAR 52.227-19.
  
 Gaussian, Inc.
 340 Quinnipiac St., Bldg. 40, Wallingford CT 06492
  
  
 ---------------------------------------------------------------
 Warning -- This program may not be used in any manner that
 competes with the business of Gaussian, Inc. or will provide
 assistance to any competitor of Gaussian, Inc.  The licensee
 of this program is prohibited from giving any competitor of
 Gaussian, Inc. access to this program.  By using this program,
 the user acknowledges that Gaussian, Inc. is engaged in the
 business of creating and licensing software in the field of
 computational chemistry and represents and warrants to the
 licensee that it is not a competitor of Gaussian, Inc. and that
 it will not use this program in any manner prohibited above.
 ---------------------------------------------------------------
  

 Cite this work as:
 Gaussian 16, Revision C.01,
 M. J. Frisch, G. W. Trucks, H. B. Schlegel, G. E. Scuseria, 
 M. A. Robb, J. R. Cheeseman, G. Scalmani, V. Barone, 
 G. A. Petersson, H. Nakatsuji, X. Li, M. Caricato, A. V. Marenich, 
 J. Bloino, B. G. Janesko, R. Gomperts, B. Mennucci, H. P. Hratchian, 
 J. V. Ortiz, A. F. Izmaylov, J. L. Sonnenberg, D. Williams-Young, 
 F. Ding, F. Lipparini, F. Egidi, J. Goings, B. Peng, A. Petrone, 
 T. Henderson, D. Ranasinghe, V. G. Zakrzewski, J. Gao, N. Rega, 
 G. Zheng, W. Liang, M. Hada, M. Ehara, K. Toyota, R. Fukuda, 
 J. Hasegawa, M. Ishida, T. Nakajima, Y. Honda, O. Kitao, H. Nakai, 
 T. Vreven, K. Throssell, J. A. Montgomery, Jr., J. E. Peralta, 
 F. Ogliaro, M. J. Bearpark, J. J. Heyd, E. N. Brothers, K. N. Kudin, 
 V. N. Staroverov, T. A. Keith, R. Kobayashi, J. Normand, 
 K. Raghavachari, A. P. Rendell, J. C. Burant, S. S. Iyengar, 
 J. Tomasi, M. Cossi, J. M. Millam, M. Klene, C. Adamo, R. Cammi, 
 J. W. Ochterski, R. L. Martin, K. Morokuma, O. Farkas, 
 J. B. Foresman, and D. J. Fox, Gaussian, Inc., Wallingford CT, 2019.
 
 ******************************************
 Gaussian 16:  ES64L-G16RevC.01  3-Jul-2019
                24-May-2022 
 ******************************************
 %mem=8gb
 %nproc=4
 Will use up to    4 processors via shared memory.
 %chk=conf-564.chk
 ----------------------------------------------------------------------
 # B3LYP/6-31G* empiricaldispersion=gd3 guess=read geom=check nosymm in
 tegral(ultrafinegrid)
 ----------------------------------------------------------------------
 1/29=2,38=1,172=1/1;
 2/12=2,15=1,40=1/2;
 3/5=1,6=6,7=1,11=2,14=-4,25=1,30=1,74=-5,75=-5,116=-2,124=31/1,2,3;
 4/5=1/1;
 5/5=2,38=6/2;
 6/7=2,8=2,9=2,10=2,28=1/1;
 99/5=1,9=1/99;
 ------------------------------------------------------
 Candidate Structure: Conf:564 Charge calc in gas phase
 ------------------------------------------------------
 Structure from the checkpoint file:  "conf-564.chk"
 Charge =  1 Multiplicity = 1
 Redundant internal coordinates found in file.  (old form).
 N,0,9.1329903331,16.9574065826,15.0451099707
 C,0,9.8656176614,15.8070806695,14.3975711616
 C,0,8.9859204319,15.43994303,13.1845524701
 O,0,7.8522957997,15.0394827765,13.4188469419
 C,0,10.0121613485,14.5978546256,15.3297606299
 C,0,10.6072115749,14.8757587845,16.7359045152
 C,0,11.7973638144,15.8198849595,16.6737122066
 O,0,11.6497940614,16.9932273001,16.369567915
 O,0,13.0291263761,15.3503140413,16.8891716679
 H,0,13.0219021936,14.4179583236,17.1659001782
 H,0,9.0803241372,17.7092238472,14.3161589272
 H,0,10.8402202616,16.2116402988,14.1312754019
 H,0,10.6443662697,13.8772570814,14.7984107163
 H,0,9.0317818951,14.1266067887,15.4476958401
 H,0,9.8600450292,15.3586636543,17.3753550628
 H,0,10.8498709171,13.9193227924,17.2096463592
 H,0,8.1816928005,16.6691853447,15.3028304852
 H,0,9.6790531444,17.2997990279,15.8499860727
 N,0,9.5159574971,15.5731981516,11.9465354859
 C,0,10.675983348,16.3751863439,11.5669449367
 C,0,10.5856134555,17.8046922723,12.1857422225
 O,0,9.5225897426,18.225021802,12.6717704353
 C,0,10.7812947641,16.4644108965,10.0255455672
 C,0,11.3467849934,15.2208348352,9.3070679345
 C,0,10.4872779055,13.9585849042,9.4724529139
 C,0,11.5380211642,15.5486338262,7.8180480968
 H,0,8.8467570574,15.368108637,11.2119707453
 H,0,11.591118048,15.8945149362,11.9416376329
 H,0,11.4286366988,17.3155623208,9.7880640871
 H,0,9.7908984986,16.7231387581,9.6237791609
 H,0,12.3381942424,15.0178951986,9.7411952597
 H,0,9.4660542484,14.1280214495,9.1044717468
 H,0,10.9079441733,13.1341952015,8.8875573807
 H,0,10.4259099251,13.6257978048,10.5134026836
 H,0,11.9917731002,14.7033643597,7.2906396928
 H,0,10.574430531,15.7611780974,7.3384245268
 H,0,12.1855333545,16.4212027286,7.6746690941
 N,0,11.7412048126,18.4802814479,12.1562154512
 C,0,11.9814518052,19.9165098812,12.3945892764
 C,0,13.4877336158,20.1528453996,12.5990288094
 O,0,13.9165430037,21.2313907119,12.9283043103
 C,0,11.161784232,20.5584788419,13.5327955564
 C,0,11.240662897,19.9142046547,14.9267867338
 C,0,12.5279318126,20.1427619521,15.7352835259
 N,0,13.6100548298,19.3091406524,15.2364749591
 C,0,14.9481083694,19.6872241631,15.3483139429
 N,0,15.4688841081,20.7205186606,15.8789530313
 N,0,15.8056215362,18.8340545866,14.5830768807
 O,0,14.2311715334,19.0584224814,12.3440267465
 H,0,15.0716259831,19.1096222933,12.8898796677
 H,0,12.5620203987,18.0035642299,11.7975932644
 H,0,11.7140047107,20.4532474001,11.4735184214
 H,0,10.1172438088,20.5678850067,13.2156980543
 H,0,11.4992719049,21.5983707061,13.5849920935
 H,0,10.4054263582,20.3147071746,15.5163859602
 H,0,11.0759214993,18.8355835315,14.8409394053
 H,0,12.3319299942,19.9611178293,16.8023929214
 H,0,12.8340853443,21.1873147952,15.6267943219
 H,0,13.4183507438,18.3151345226,15.2973903949
 H,0,14.7848535671,21.3193371532,16.338300929
 H,0,16.7698656346,19.0947359215,14.7787382181
 H,0,15.6762775286,17.8433071697,14.783437258
 Recover connectivity data from disk.
                           ----------------------------
                           !    Current Parameters    !
                           ! (Angstroms and Degrees)  !
 --------------------------                            --------------------------
 ! Name  Definition              Value                                          !
 --------------------------------------------------------------------------------
 ! R1    R(1,2)                  1.5097                                         !
 ! R2    R(1,11)                 1.0485                                         !
 ! R3    R(1,17)                 1.0269                                         !
 ! R4    R(1,18)                 1.0311                                         !
 ! R5    R(2,3)                  1.5427                                         !
 ! R6    R(2,5)                  1.5338                                         !
 ! R7    R(2,12)                 1.0883                                         !
 ! R8    R(3,4)                  1.2249                                         !
 ! R9    R(3,19)                 1.3533                                         !
 ! R10   R(5,6)                  1.552                                          !
 ! R11   R(5,13)                 1.096                                          !
 ! R12   R(5,14)                 1.0941                                         !
 ! R13   R(6,7)                  1.5204                                         !
 ! R14   R(6,15)                 1.0956                                         !
 ! R15   R(6,16)                 1.0946                                         !
 ! R16   R(7,8)                  1.2211                                         !
 ! R17   R(7,9)                  1.3357                                         !
 ! R18   R(9,10)                 0.9726                                         !
 ! R19   R(19,20)                1.4605                                         !
 ! R20   R(19,27)                1.0146                                         !
 ! R21   R(20,21)                1.5603                                         !
 ! R22   R(20,23)                1.5476                                         !
 ! R23   R(20,28)                1.0995                                         !
 ! R24   R(21,22)                1.2421                                         !
 ! R25   R(21,38)                1.3389                                         !
 ! R26   R(23,24)                1.5435                                         !
 ! R27   R(23,29)                1.0954                                         !
 ! R28   R(23,30)                1.0997                                         !
 ! R29   R(24,25)                1.536                                          !
 ! R30   R(24,26)                1.5366                                         !
 ! R31   R(24,31)                1.1012                                         !
 ! R32   R(25,32)                1.0986                                         !
 ! R33   R(25,33)                1.0948                                         !
 ! R34   R(25,34)                1.0946                                         !
 ! R35   R(26,35)                1.0948                                         !
 ! R36   R(26,36)                1.0971                                         !
 ! R37   R(26,37)                1.096                                          !
 ! R38   R(38,39)                1.4756                                         !
 ! R39   R(38,51)                1.0147                                         !
 ! R40   R(39,40)                1.5384                                         !
 ! R41   R(39,42)                1.5426                                         !
 ! R42   R(39,52)                1.0991                                         !
 ! R43   R(40,41)                1.2065                                         !
 ! R44   R(40,49)                1.3474                                         !
 ! R45   R(42,43)                1.5377                                         !
 ! R46   R(42,53)                1.0917                                         !
 ! R47   R(42,54)                1.0945                                         !
 ! R48   R(43,44)                1.5372                                         !
 ! R49   R(43,55)                1.098                                          !
 ! R50   R(43,56)                1.0945                                         !
 ! R51   R(44,45)                1.4542                                         !
 ! R52   R(44,57)                1.1001                                         !
 ! R53   R(44,58)                1.0939                                         !
 ! R54   R(45,46)                1.3949                                         !
 ! R55   R(45,59)                1.0142                                         !
 ! R56   R(46,47)                1.273                                          !
 ! R57   R(46,48)                1.4314                                         !
 ! R58   R(47,60)                1.0186                                         !
 ! R59   R(48,61)                1.0178                                         !
 ! R60   R(48,62)                1.019                                          !
 ! R61   R(49,50)                1.0035                                         !
 ! A1    A(2,1,11)             105.8144                                         !
 ! A2    A(2,1,17)             110.0806                                         !
 ! A3    A(2,1,18)             109.3181                                         !
 ! A4    A(11,1,17)            109.2208                                         !
 ! A5    A(11,1,18)            109.3404                                         !
 ! A6    A(17,1,18)            112.8236                                         !
 ! A7    A(1,2,3)              103.9961                                         !
 ! A8    A(1,2,5)              112.7294                                         !
 ! A9    A(1,2,12)             104.8493                                         !
 ! A10   A(3,2,5)              110.1647                                         !
 ! A11   A(3,2,12)             113.9982                                         !
 ! A12   A(5,2,12)             110.8675                                         !
 ! A13   A(2,3,4)              117.0735                                         !
 ! A14   A(2,3,19)             118.1988                                         !
 ! A15   A(4,3,19)             124.7265                                         !
 ! A16   A(2,5,6)              116.4944                                         !
 ! A17   A(2,5,13)             106.1883                                         !
 ! A18   A(2,5,14)             108.6298                                         !
 ! A19   A(6,5,13)             109.6222                                         !
 ! A20   A(6,5,14)             108.8457                                         !
 ! A21   A(13,5,14)            106.6144                                         !
 ! A22   A(5,6,7)              111.9788                                         !
 ! A23   A(5,6,15)             110.2589                                         !
 ! A24   A(5,6,16)             108.7041                                         !
 ! A25   A(7,6,15)             106.4992                                         !
 ! A26   A(7,6,16)             112.7532                                         !
 ! A27   A(15,6,16)            106.4823                                         !
 ! A28   A(6,7,8)              120.8156                                         !
 ! A29   A(6,7,9)              119.7987                                         !
 ! A30   A(8,7,9)              119.3032                                         !
 ! A31   A(7,9,10)             112.0895                                         !
 ! A32   A(3,19,20)            127.0809                                         !
 ! A33   A(3,19,27)            112.5866                                         !
 ! A34   A(20,19,27)           116.5323                                         !
 ! A35   A(19,20,21)           110.7333                                         !
 ! A36   A(19,20,23)           110.1566                                         !
 ! A37   A(19,20,28)           109.4182                                         !
 ! A38   A(21,20,23)           110.2505                                         !
 ! A39   A(21,20,28)           108.275                                          !
 ! A40   A(23,20,28)           107.9382                                         !
 ! A41   A(20,21,22)           120.9818                                         !
 ! A42   A(20,21,38)           113.8001                                         !
 ! A43   A(22,21,38)           125.2053                                         !
 ! A44   A(20,23,24)           116.2382                                         !
 ! A45   A(20,23,29)           107.5146                                         !
 ! A46   A(20,23,30)           108.4319                                         !
 ! A47   A(24,23,29)           107.9751                                         !
 ! A48   A(24,23,30)           110.454                                          !
 ! A49   A(29,23,30)           105.6773                                         !
 ! A50   A(23,24,25)           114.0134                                         !
 ! A51   A(23,24,26)           108.9525                                         !
 ! A52   A(23,24,31)           107.1467                                         !
 ! A53   A(25,24,26)           110.4431                                         !
 ! A54   A(25,24,31)           108.0531                                         !
 ! A55   A(26,24,31)           108.0171                                         !
 ! A56   A(24,25,32)           110.9366                                         !
 ! A57   A(24,25,33)           110.258                                          !
 ! A58   A(24,25,34)           112.5576                                         !
 ! A59   A(32,25,33)           107.118                                          !
 ! A60   A(32,25,34)           108.2586                                         !
 ! A61   A(33,25,34)           107.4977                                         !
 ! A62   A(24,26,35)           110.7139                                         !
 ! A63   A(24,26,36)           110.8326                                         !
 ! A64   A(24,26,37)           111.7237                                         !
 ! A65   A(35,26,36)           107.6374                                         !
 ! A66   A(35,26,37)           107.8669                                         !
 ! A67   A(36,26,37)           107.9062                                         !
 ! A68   A(21,38,39)           128.9094                                         !
 ! A69   A(21,38,51)           117.9634                                         !
 ! A70   A(39,38,51)           112.4996                                         !
 ! A71   A(38,39,40)           109.2945                                         !
 ! A72   A(38,39,42)           115.9611                                         !
 ! A73   A(38,39,52)           107.4774                                         !
 ! A74   A(40,39,42)           110.9955                                         !
 ! A75   A(40,39,52)           105.9387                                         !
 ! A76   A(42,39,52)           106.6079                                         !
 ! A77   A(39,40,41)           121.4414                                         !
 ! A78   A(39,40,49)           112.9743                                         !
 ! A79   A(41,40,49)           125.5681                                         !
 ! A80   A(39,42,43)           117.858                                          !
 ! A81   A(39,42,53)           107.3189                                         !
 ! A82   A(39,42,54)           105.4705                                         !
 ! A83   A(43,42,53)           108.4225                                         !
 ! A84   A(43,42,54)           109.8173                                         !
 ! A85   A(53,42,54)           107.4996                                         !
 ! A86   A(42,43,44)           117.2234                                         !
 ! A87   A(42,43,55)           107.1538                                         !
 ! A88   A(42,43,56)           109.5166                                         !
 ! A89   A(44,43,55)           107.4784                                         !
 ! A90   A(44,43,56)           108.29                                           !
 ! A91   A(55,43,56)           106.6832                                         !
 ! A92   A(43,44,45)           110.9471                                         !
 ! A93   A(43,44,57)           109.6604                                         !
 ! A94   A(43,44,58)           108.9164                                         !
 ! A95   A(45,44,57)           111.7566                                         !
 ! A96   A(45,44,58)           107.7647                                         !
 ! A97   A(57,44,58)           107.6829                                         !
 ! A98   A(44,45,46)           122.0672                                         !
 ! A99   A(44,45,59)           113.6153                                         !
 ! A100  A(46,45,59)           116.2418                                         !
 ! A101  A(45,46,47)           130.229                                          !
 ! A102  A(45,46,48)           111.7304                                         !
 ! A103  A(47,46,48)           117.4898                                         !
 ! A104  A(46,47,60)           112.9831                                         !
 ! A105  A(46,48,61)           108.1866                                         !
 ! A106  A(46,48,62)           113.4748                                         !
 ! A107  A(61,48,62)           109.3566                                         !
 ! A108  A(40,49,50)           108.5259                                         !
 ! D1    D(11,1,2,3)           -59.7333                                         !
 ! D2    D(11,1,2,5)          -179.0473                                         !
 ! D3    D(11,1,2,12)           60.2482                                         !
 ! D4    D(17,1,2,3)            58.1616                                         !
 ! D5    D(17,1,2,5)           -61.1525                                         !
 ! D6    D(17,1,2,12)          178.143                                          !
 ! D7    D(18,1,2,3)          -177.3811                                         !
 ! D8    D(18,1,2,5)            63.3048                                         !
 ! D9    D(18,1,2,12)          -57.3997                                         !
 ! D10   D(1,2,3,4)            -63.0089                                         !
 ! D11   D(1,2,3,19)           117.369                                          !
 ! D12   D(5,2,3,4)             58.0377                                         !
 ! D13   D(5,2,3,19)          -121.5844                                         !
 ! D14   D(12,2,3,4)          -176.5919                                         !
 ! D15   D(12,2,3,19)            3.7861                                         !
 ! D16   D(1,2,5,6)            -51.7226                                         !
 ! D17   D(1,2,5,13)          -174.095                                          !
 ! D18   D(1,2,5,14)            71.5705                                         !
 ! D19   D(3,2,5,6)           -167.392                                          !
 ! D20   D(3,2,5,13)            70.2356                                         !
 ! D21   D(3,2,5,14)           -44.0989                                         !
 ! D22   D(12,2,5,6)            65.4747                                         !
 ! D23   D(12,2,5,13)          -56.8977                                         !
 ! D24   D(12,2,5,14)         -171.2322                                         !
 ! D25   D(2,3,19,20)          -19.1614                                         !
 ! D26   D(2,3,19,27)         -176.2095                                         !
 ! D27   D(4,3,19,20)          161.2481                                         !
 ! D28   D(4,3,19,27)            4.1999                                         !
 ! D29   D(2,5,6,7)            -43.0401                                         !
 ! D30   D(2,5,6,15)            75.3466                                         !
 ! D31   D(2,5,6,16)          -168.278                                          !
 ! D32   D(13,5,6,7)            77.519                                          !
 ! D33   D(13,5,6,15)         -164.0943                                         !
 ! D34   D(13,5,6,16)          -47.7189                                         !
 ! D35   D(14,5,6,7)          -166.2215                                         !
 ! D36   D(14,5,6,15)          -47.8347                                         !
 ! D37   D(14,5,6,16)           68.5407                                         !
 ! D38   D(5,6,7,8)             68.5161                                         !
 ! D39   D(5,6,7,9)           -108.1586                                         !
 ! D40   D(15,6,7,8)           -52.0798                                         !
 ! D41   D(15,6,7,9)           131.2455                                         !
 ! D42   D(16,6,7,8)          -168.5095                                         !
 ! D43   D(16,6,7,9)            14.8158                                         !
 ! D44   D(6,7,9,10)            -6.0438                                         !
 ! D45   D(8,7,9,10)           177.231                                          !
 ! D46   D(3,19,20,21)         -47.0127                                         !
 ! D47   D(3,19,20,23)        -169.2337                                         !
 ! D48   D(3,19,20,28)          72.2591                                         !
 ! D49   D(27,19,20,21)        109.2571                                         !
 ! D50   D(27,19,20,23)        -12.964                                          !
 ! D51   D(27,19,20,28)       -131.4712                                         !
 ! D52   D(19,20,21,22)        -14.0372                                         !
 ! D53   D(19,20,21,38)        164.7288                                         !
 ! D54   D(23,20,21,22)        108.129                                          !
 ! D55   D(23,20,21,38)        -73.1051                                         !
 ! D56   D(28,20,21,22)       -133.9954                                         !
 ! D57   D(28,20,21,38)         44.7705                                         !
 ! D58   D(19,20,23,24)        -77.4626                                         !
 ! D59   D(19,20,23,29)        161.4514                                         !
 ! D60   D(19,20,23,30)         47.6323                                         !
 ! D61   D(21,20,23,24)        160.0316                                         !
 ! D62   D(21,20,23,29)         38.9457                                         !
 ! D63   D(21,20,23,30)        -74.8735                                         !
 ! D64   D(28,20,23,24)         41.9487                                         !
 ! D65   D(28,20,23,29)        -79.1372                                         !
 ! D66   D(28,20,23,30)        167.0436                                         !
 ! D67   D(20,21,38,39)        166.7166                                         !
 ! D68   D(20,21,38,51)         -3.4502                                         !
 ! D69   D(22,21,38,39)        -14.5782                                         !
 ! D70   D(22,21,38,51)        175.2549                                         !
 ! D71   D(20,23,24,25)         62.9495                                         !
 ! D72   D(20,23,24,26)       -173.1829                                         !
 ! D73   D(20,23,24,31)        -56.5552                                         !
 ! D74   D(29,23,24,25)       -176.2101                                         !
 ! D75   D(29,23,24,26)        -52.3426                                         !
 ! D76   D(29,23,24,31)         64.2851                                         !
 ! D77   D(30,23,24,25)        -61.1097                                         !
 ! D78   D(30,23,24,26)         62.7579                                         !
 ! D79   D(30,23,24,31)        179.3856                                         !
 ! D80   D(23,24,25,32)         57.8246                                         !
 ! D81   D(23,24,25,33)        176.323                                          !
 ! D82   D(23,24,25,34)        -63.6535                                         !
 ! D83   D(26,24,25,32)        -65.2356                                         !
 ! D84   D(26,24,25,33)         53.2629                                         !
 ! D85   D(26,24,25,34)        173.2863                                         !
 ! D86   D(31,24,25,32)        176.8159                                         !
 ! D87   D(31,24,25,33)        -64.6857                                         !
 ! D88   D(31,24,25,34)         55.3378                                         !
 ! D89   D(23,24,26,35)        176.7984                                         !
 ! D90   D(23,24,26,36)        -63.8294                                         !
 ! D91   D(23,24,26,37)         56.55                                           !
 ! D92   D(25,24,26,35)        -57.2431                                         !
 ! D93   D(25,24,26,36)         62.1291                                         !
 ! D94   D(25,24,26,37)       -177.4915                                         !
 ! D95   D(31,24,26,35)         60.7275                                         !
 ! D96   D(31,24,26,36)       -179.9003                                         !
 ! D97   D(31,24,26,37)        -59.5208                                         !
 ! D98   D(21,38,39,40)        165.8465                                         !
 ! D99   D(21,38,39,42)         39.4992                                         !
 ! D100  D(21,38,39,52)        -79.6176                                         !
 ! D101  D(51,38,39,40)        -23.5501                                         !
 ! D102  D(51,38,39,42)       -149.8975                                         !
 ! D103  D(51,38,39,52)         90.9857                                         !
 ! D104  D(38,39,40,41)       -173.2917                                         !
 ! D105  D(38,39,40,49)          8.0979                                         !
 ! D106  D(42,39,40,41)        -44.1566                                         !
 ! D107  D(42,39,40,49)        137.2329                                         !
 ! D108  D(52,39,40,41)         71.1834                                         !
 ! D109  D(52,39,40,49)       -107.4271                                         !
 ! D110  D(38,39,42,43)         54.8556                                         !
 ! D111  D(38,39,42,53)        -67.7759                                         !
 ! D112  D(38,39,42,54)        177.8228                                         !
 ! D113  D(40,39,42,43)        -70.6302                                         !
 ! D114  D(40,39,42,53)        166.7383                                         !
 ! D115  D(40,39,42,54)         52.337                                          !
 ! D116  D(52,39,42,43)        174.4463                                         !
 ! D117  D(52,39,42,53)         51.8148                                         !
 ! D118  D(52,39,42,54)        -62.5865                                         !
 ! D119  D(39,40,49,50)       -152.7668                                         !
 ! D120  D(41,40,49,50)         28.6906                                         !
 ! D121  D(39,42,43,44)         74.5999                                         !
 ! D122  D(39,42,43,55)       -164.5843                                         !
 ! D123  D(39,42,43,56)        -49.2332                                         !
 ! D124  D(53,42,43,44)       -163.3304                                         !
 ! D125  D(53,42,43,55)        -42.5146                                         !
 ! D126  D(53,42,43,56)         72.8365                                         !
 ! D127  D(54,42,43,44)        -46.1414                                         !
 ! D128  D(54,42,43,55)         74.6743                                         !
 ! D129  D(54,42,43,56)       -169.9745                                         !
 ! D130  D(42,43,44,45)        -76.3384                                         !
 ! D131  D(42,43,44,57)        159.7281                                         !
 ! D132  D(42,43,44,58)         42.1212                                         !
 ! D133  D(55,43,44,45)        163.0162                                         !
 ! D134  D(55,43,44,57)         39.0827                                         !
 ! D135  D(55,43,44,58)        -78.5243                                         !
 ! D136  D(56,43,44,45)         48.1142                                         !
 ! D137  D(56,43,44,57)        -75.8193                                         !
 ! D138  D(56,43,44,58)        166.5738                                         !
 ! D139  D(43,44,45,46)        151.5634                                         !
 ! D140  D(43,44,45,59)        -60.939                                          !
 ! D141  D(57,44,45,46)        -85.7081                                         !
 ! D142  D(57,44,45,59)         61.7895                                         !
 ! D143  D(58,44,45,46)         32.4096                                         !
 ! D144  D(58,44,45,59)        179.9071                                         !
 ! D145  D(44,45,46,47)          1.5073                                         !
 ! D146  D(44,45,46,48)       -169.6107                                         !
 ! D147  D(59,45,46,47)       -145.2005                                         !
 ! D148  D(59,45,46,48)         43.6815                                         !
 ! D149  D(45,46,47,60)          4.3384                                         !
 ! D150  D(48,46,47,60)        175.0338                                         !
 ! D151  D(45,46,48,61)       -174.1806                                         !
 ! D152  D(45,46,48,62)        -52.645                                          !
 ! D153  D(47,46,48,61)         13.4556                                         !
 ! D154  D(47,46,48,62)        134.9912                                         !
 --------------------------------------------------------------------------------
 Symmetry turned off by external request.
 Stoichiometry    C17H33N6O6(1+)
 Framework group  C1[X(C17H33N6O6)]
 Deg. of freedom   180
 Full point group                 C1      NOp   1
                          Input orientation:                          
 ---------------------------------------------------------------------
 Center     Atomic      Atomic             Coordinates (Angstroms)
 Number     Number       Type             X           Y           Z
 ---------------------------------------------------------------------
      1          7           0        9.132990   16.957407   15.045110
      2          6           0        9.865618   15.807081   14.397571
      3          6           0        8.985920   15.439943   13.184552
      4          8           0        7.852296   15.039483   13.418847
      5          6           0       10.012161   14.597855   15.329761
      6          6           0       10.607212   14.875759   16.735905
      7          6           0       11.797364   15.819885   16.673712
      8          8           0       11.649794   16.993227   16.369568
      9          8           0       13.029126   15.350314   16.889172
     10          1           0       13.021902   14.417958   17.165900
     11          1           0        9.080324   17.709224   14.316159
     12          1           0       10.840220   16.211640   14.131275
     13          1           0       10.644366   13.877257   14.798411
     14          1           0        9.031782   14.126607   15.447696
     15          1           0        9.860045   15.358664   17.375355
     16          1           0       10.849871   13.919323   17.209646
     17          1           0        8.181693   16.669185   15.302830
     18          1           0        9.679053   17.299799   15.849986
     19          7           0        9.515957   15.573198   11.946535
     20          6           0       10.675983   16.375186   11.566945
     21          6           0       10.585613   17.804692   12.185742
     22          8           0        9.522590   18.225022   12.671770
     23          6           0       10.781295   16.464411   10.025546
     24          6           0       11.346785   15.220835    9.307068
     25          6           0       10.487278   13.958585    9.472453
     26          6           0       11.538021   15.548634    7.818048
     27          1           0        8.846757   15.368109   11.211971
     28          1           0       11.591118   15.894515   11.941638
     29          1           0       11.428637   17.315562    9.788064
     30          1           0        9.790898   16.723139    9.623779
     31          1           0       12.338194   15.017895    9.741195
     32          1           0        9.466054   14.128021    9.104472
     33          1           0       10.907944   13.134195    8.887557
     34          1           0       10.425910   13.625798   10.513403
     35          1           0       11.991773   14.703364    7.290640
     36          1           0       10.574431   15.761178    7.338425
     37          1           0       12.185533   16.421203    7.674669
     38          7           0       11.741205   18.480281   12.156215
     39          6           0       11.981452   19.916510   12.394589
     40          6           0       13.487734   20.152845   12.599029
     41          8           0       13.916543   21.231391   12.928304
     42          6           0       11.161784   20.558479   13.532796
     43          6           0       11.240663   19.914205   14.926787
     44          6           0       12.527932   20.142762   15.735284
     45          7           0       13.610055   19.309141   15.236475
     46          6           0       14.948108   19.687224   15.348314
     47          7           0       15.468884   20.720519   15.878953
     48          7           0       15.805622   18.834055   14.583077
     49          8           0       14.231172   19.058422   12.344027
     50          1           0       15.071626   19.109622   12.889880
     51          1           0       12.562020   18.003564   11.797593
     52          1           0       11.714005   20.453247   11.473518
     53          1           0       10.117244   20.567885   13.215698
     54          1           0       11.499272   21.598371   13.584992
     55          1           0       10.405426   20.314707   15.516386
     56          1           0       11.075921   18.835584   14.840939
     57          1           0       12.331930   19.961118   16.802393
     58          1           0       12.834085   21.187315   15.626794
     59          1           0       13.418351   18.315135   15.297390
     60          1           0       14.784854   21.319337   16.338301
     61          1           0       16.769866   19.094736   14.778738
     62          1           0       15.676278   17.843307   14.783437
 ---------------------------------------------------------------------
 Rotational constants (GHZ):           0.1862903           0.1242681           0.0941940
 Standard basis: 6-31G(d) (6D, 7F)
   501 basis functions,   944 primitive gaussians,   501 cartesian basis functions
   112 alpha electrons      112 beta electrons
       nuclear repulsion energy      3224.9515656772 Hartrees.
 NAtoms=   62 NActive=   62 NUniq=   62 SFac= 1.00D+00 NAtFMM=   60 NAOKFM=T Big=T
 Integral buffers will be    131072 words long.
 Raffenetti 2 integral format.
 Two-electron integral symmetry is turned off.
 Nuclear repulsion after empirical dispersion term =     3224.8635407670 Hartrees.
 One-electron integrals computed using PRISM.
 NBasis=   501 RedAO= T EigKep=  1.69D-03  NBF=   501
 NBsUse=   501 1.00D-06 EigRej= -1.00D+00 NBFU=   501
 Initial guess from the checkpoint file:  "conf-564.chk"
 B after Tr=     0.000000    0.000000    0.000000
         Rot=    1.000000    0.000000    0.000000    0.000000 Ang=   0.00 deg.
 Requested convergence on RMS density matrix=1.00D-08 within 128 cycles.
 Requested convergence on MAX density matrix=1.00D-06.
 Requested convergence on             energy=1.00D-06.
 No special actions if energy rises.
 SCF Done:  E(RB3LYP) =  -1447.45707644     A.U. after    2 cycles
            NFock=  2  Conv=0.70D-08     -V/T= 2.0093

 **********************************************************************

            Population analysis using the SCF Density.

 **********************************************************************

 Alpha  occ. eigenvalues --  -19.35358 -19.29788 -19.26979 -19.25745 -19.25639
 Alpha  occ. eigenvalues --  -19.21974 -14.59073 -14.49812 -14.49280 -14.44132
 Alpha  occ. eigenvalues --  -14.43826 -14.37115 -10.48239 -10.43338 -10.42683
 Alpha  occ. eigenvalues --  -10.40813 -10.40807 -10.37470 -10.36597 -10.36562
 Alpha  occ. eigenvalues --  -10.36129 -10.34747 -10.31241 -10.31183 -10.29820
 Alpha  occ. eigenvalues --  -10.29241 -10.28814 -10.27268 -10.26531  -1.26160
 Alpha  occ. eigenvalues --   -1.18611  -1.18259  -1.17715  -1.16903  -1.13702
 Alpha  occ. eigenvalues --   -1.09868  -1.06513  -1.06126  -1.05588  -0.97998
 Alpha  occ. eigenvalues --   -0.96385  -0.92905  -0.92733  -0.90166  -0.89140
 Alpha  occ. eigenvalues --   -0.86880  -0.84104  -0.80412  -0.78371  -0.77996
 Alpha  occ. eigenvalues --   -0.77505  -0.76558  -0.74874  -0.73085  -0.72465
 Alpha  occ. eigenvalues --   -0.71600  -0.69928  -0.68108  -0.67828  -0.67472
 Alpha  occ. eigenvalues --   -0.67249  -0.65246  -0.63753  -0.63272  -0.63122
 Alpha  occ. eigenvalues --   -0.62557  -0.62164  -0.60738  -0.60239  -0.59806
 Alpha  occ. eigenvalues --   -0.58998  -0.58659  -0.57146  -0.56710  -0.56144
 Alpha  occ. eigenvalues --   -0.55880  -0.55268  -0.55017  -0.54508  -0.54054
 Alpha  occ. eigenvalues --   -0.53740  -0.53385  -0.52544  -0.52255  -0.51859
 Alpha  occ. eigenvalues --   -0.51674  -0.51143  -0.50977  -0.50319  -0.48803
 Alpha  occ. eigenvalues --   -0.48669  -0.48021  -0.47469  -0.47201  -0.46890
 Alpha  occ. eigenvalues --   -0.45996  -0.45339  -0.44012  -0.43921  -0.43717
 Alpha  occ. eigenvalues --   -0.43603  -0.43147  -0.42882  -0.40343  -0.40187
 Alpha  occ. eigenvalues --   -0.39709  -0.38566  -0.38268  -0.36739  -0.35475
 Alpha  occ. eigenvalues --   -0.33866  -0.31397
 Alpha virt. eigenvalues --   -0.15594  -0.13340  -0.12456  -0.09630  -0.07863
 Alpha virt. eigenvalues --   -0.07061  -0.05759  -0.04158  -0.03595  -0.02738
 Alpha virt. eigenvalues --   -0.02279  -0.01936  -0.01398  -0.01090  -0.00271
 Alpha virt. eigenvalues --    0.00470   0.00615   0.00973   0.01864   0.02595
 Alpha virt. eigenvalues --    0.02955   0.03399   0.03635   0.04556   0.04691
 Alpha virt. eigenvalues --    0.04819   0.05254   0.05374   0.05847   0.06231
 Alpha virt. eigenvalues --    0.06323   0.06587   0.06804   0.07049   0.07871
 Alpha virt. eigenvalues --    0.08061   0.08629   0.08828   0.09626   0.09804
 Alpha virt. eigenvalues --    0.10131   0.10600   0.10624   0.11958   0.12836
 Alpha virt. eigenvalues --    0.12952   0.13214   0.14286   0.14397   0.15090
 Alpha virt. eigenvalues --    0.15890   0.16078   0.17176   0.17646   0.18925
 Alpha virt. eigenvalues --    0.20492   0.20827   0.21175   0.22018   0.23437
 Alpha virt. eigenvalues --    0.24097   0.26087   0.26396   0.30603   0.31479
 Alpha virt. eigenvalues --    0.33920   0.35294   0.35904   0.37202   0.38006
 Alpha virt. eigenvalues --    0.39447   0.39886   0.40741   0.41088   0.41574
 Alpha virt. eigenvalues --    0.42465   0.42809   0.43039   0.44035   0.44412
 Alpha virt. eigenvalues --    0.44561   0.45502   0.45570   0.46752   0.47116
 Alpha virt. eigenvalues --    0.47771   0.48065   0.49431   0.49528   0.49990
 Alpha virt. eigenvalues --    0.51187   0.51765   0.52962   0.53710   0.54204
 Alpha virt. eigenvalues --    0.54315   0.55081   0.55229   0.55589   0.56635
 Alpha virt. eigenvalues --    0.57420   0.57672   0.58370   0.60135   0.60358
 Alpha virt. eigenvalues --    0.60485   0.61219   0.61672   0.62554   0.62682
 Alpha virt. eigenvalues --    0.63486   0.64070   0.64634   0.65220   0.65293
 Alpha virt. eigenvalues --    0.65983   0.66816   0.67738   0.68238   0.68565
 Alpha virt. eigenvalues --    0.69207   0.70173   0.70634   0.71124   0.71626
 Alpha virt. eigenvalues --    0.72406   0.73085   0.73587   0.74439   0.74807
 Alpha virt. eigenvalues --    0.75642   0.75848   0.76217   0.76611   0.77166
 Alpha virt. eigenvalues --    0.77565   0.77662   0.78419   0.78623   0.79292
 Alpha virt. eigenvalues --    0.79581   0.79736   0.80192   0.80467   0.80752
 Alpha virt. eigenvalues --    0.81124   0.81806   0.82846   0.83155   0.83371
 Alpha virt. eigenvalues --    0.83866   0.84239   0.84647   0.85141   0.85496
 Alpha virt. eigenvalues --    0.85978   0.86568   0.87361   0.87858   0.88158
 Alpha virt. eigenvalues --    0.89473   0.89878   0.90709   0.91230   0.91873
 Alpha virt. eigenvalues --    0.92128   0.92762   0.93072   0.94942   0.96166
 Alpha virt. eigenvalues --    0.96587   0.96988   0.97409   0.98399   1.00165
 Alpha virt. eigenvalues --    1.00796   1.01628   1.03960   1.04247   1.04892
 Alpha virt. eigenvalues --    1.05962   1.06640   1.07825   1.08694   1.10295
 Alpha virt. eigenvalues --    1.10808   1.11467   1.11977   1.14851   1.16089
 Alpha virt. eigenvalues --    1.17680   1.18617   1.19301   1.20534   1.21568
 Alpha virt. eigenvalues --    1.23083   1.24347   1.24744   1.25914   1.27326
 Alpha virt. eigenvalues --    1.28038   1.28928   1.30607   1.31779   1.32783
 Alpha virt. eigenvalues --    1.33335   1.34539   1.36153   1.36689   1.38290
 Alpha virt. eigenvalues --    1.39532   1.40314   1.41331   1.41746   1.42946
 Alpha virt. eigenvalues --    1.43536   1.47218   1.47576   1.48362   1.51128
 Alpha virt. eigenvalues --    1.51937   1.52537   1.54404   1.55346   1.55814
 Alpha virt. eigenvalues --    1.56403   1.58040   1.58490   1.58904   1.60258
 Alpha virt. eigenvalues --    1.61187   1.62584   1.63254   1.63532   1.63823
 Alpha virt. eigenvalues --    1.64459   1.65139   1.66585   1.67166   1.68247
 Alpha virt. eigenvalues --    1.69222   1.69677   1.70214   1.70528   1.70814
 Alpha virt. eigenvalues --    1.71497   1.72154   1.73337   1.73615   1.74102
 Alpha virt. eigenvalues --    1.74949   1.75655   1.76275   1.77212   1.77903
 Alpha virt. eigenvalues --    1.78373   1.79561   1.80495   1.81255   1.81563
 Alpha virt. eigenvalues --    1.83066   1.83323   1.84930   1.85666   1.86335
 Alpha virt. eigenvalues --    1.87036   1.87510   1.87947   1.88933   1.89428
 Alpha virt. eigenvalues --    1.91515   1.91769   1.92123   1.93199   1.93877
 Alpha virt. eigenvalues --    1.95380   1.96038   1.97362   1.97651   1.98797
 Alpha virt. eigenvalues --    1.99061   1.99612   2.00010   2.02148   2.04025
 Alpha virt. eigenvalues --    2.04263   2.05704   2.06728   2.07501   2.09022
 Alpha virt. eigenvalues --    2.11686   2.12430   2.13367   2.15194   2.15715
 Alpha virt. eigenvalues --    2.17665   2.18254   2.18526   2.20152   2.20619
 Alpha virt. eigenvalues --    2.21100   2.22334   2.22910   2.23197   2.23974
 Alpha virt. eigenvalues --    2.25917   2.26439   2.27524   2.27747   2.28780
 Alpha virt. eigenvalues --    2.29280   2.29428   2.31982   2.33054   2.33415
 Alpha virt. eigenvalues --    2.34849   2.37020   2.38628   2.39263   2.39438
 Alpha virt. eigenvalues --    2.42467   2.43414   2.44170   2.45581   2.46591
 Alpha virt. eigenvalues --    2.49953   2.50856   2.51162   2.52470   2.52928
 Alpha virt. eigenvalues --    2.54119   2.55735   2.56082   2.56733   2.58438
 Alpha virt. eigenvalues --    2.59101   2.59300   2.60427   2.61284   2.62115
 Alpha virt. eigenvalues --    2.63081   2.63521   2.67142   2.68658   2.69829
 Alpha virt. eigenvalues --    2.70129   2.73729   2.77239   2.82109   2.84585
 Alpha virt. eigenvalues --    2.87290   2.88313   2.90822   2.91609   2.91830
 Alpha virt. eigenvalues --    2.95009   2.99519   3.01014   3.02279   3.11177
 Alpha virt. eigenvalues --    3.69967   3.75333   3.77812   3.80582   3.83258
 Alpha virt. eigenvalues --    3.91512   3.92364   3.96851   3.99988   4.03114
 Alpha virt. eigenvalues --    4.04868   4.07967   4.13236   4.15578   4.16282
 Alpha virt. eigenvalues --    4.17320   4.20006   4.24022   4.24919   4.28576
 Alpha virt. eigenvalues --    4.29557   4.33580   4.39057   4.40898   4.47000
 Alpha virt. eigenvalues --    4.49524   4.53483   4.59618   4.61824
          Condensed to atoms (all electrons):
 Mulliken charges:
               1
     1  N   -0.767911
     2  C   -0.110032
     3  C    0.621750
     4  O   -0.498785
     5  C   -0.298438
     6  C   -0.402623
     7  C    0.617341
     8  O   -0.472100
     9  O   -0.529318
    10  H    0.440453
    11  H    0.456916
    12  H    0.201907
    13  H    0.194867
    14  H    0.221105
    15  H    0.202452
    16  H    0.191946
    17  H    0.411118
    18  H    0.421346
    19  N   -0.584456
    20  C   -0.061164
    21  C    0.622689
    22  O   -0.578561
    23  C   -0.304070
    24  C   -0.075747
    25  C   -0.462468
    26  C   -0.449320
    27  H    0.365399
    28  H    0.165599
    29  H    0.166778
    30  H    0.166093
    31  H    0.131636
    32  H    0.148123
    33  H    0.172981
    34  H    0.145296
    35  H    0.167430
    36  H    0.157012
    37  H    0.154116
    38  N   -0.611378
    39  C   -0.044409
    40  C    0.650615
    41  O   -0.454539
    42  C   -0.275988
    43  C   -0.292729
    44  C   -0.119600
    45  N   -0.615701
    46  C    0.561584
    47  N   -0.600120
    48  N   -0.781804
    49  O   -0.645392
    50  H    0.459703
    51  H    0.369315
    52  H    0.204460
    53  H    0.173218
    54  H    0.190303
    55  H    0.147357
    56  H    0.108573
    57  H    0.150712
    58  H    0.180975
    59  H    0.318893
    60  H    0.295404
    61  H    0.360309
    62  H    0.320879
 Sum of Mulliken charges =   1.00000
 Mulliken charges with hydrogens summed into heavy atoms:
               1
     1  N    0.521468
     2  C    0.091876
     3  C    0.621750
     4  O   -0.498785
     5  C    0.117534
     6  C   -0.008225
     7  C    0.617341
     8  O   -0.472100
     9  O   -0.088865
    19  N   -0.219057
    20  C    0.104435
    21  C    0.622689
    22  O   -0.578561
    23  C    0.028801
    24  C    0.055890
    25  C    0.003932
    26  C    0.029239
    38  N   -0.242063
    39  C    0.160050
    40  C    0.650615
    41  O   -0.454539
    42  C    0.087533
    43  C   -0.036799
    44  C    0.212087
    45  N   -0.296809
    46  C    0.561584
    47  N   -0.304716
    48  N   -0.100616
    49  O   -0.185689
 Electronic spatial extent (au):  <R**2>=         510632.6917
 Charge=              1.0000 electrons
 Dipole moment (field-independent basis, Debye):
    X=             51.8458    Y=             74.1888    Z=             69.5539  Tot=            114.1477
 Quadrupole moment (field-independent basis, Debye-Ang):
   XX=            390.5870   YY=            972.1199   ZZ=            882.0844
   XY=            775.8160   XZ=            745.8384   YZ=           1069.9762
 Traceless Quadrupole moment (field-independent basis, Debye-Ang):
   XX=           -357.6768   YY=            223.8561   ZZ=            133.8206
   XY=            775.8160   XZ=            745.8384   YZ=           1069.9762
 Octapole moment (field-independent basis, Debye-Ang**2):
  XXX=            175.2248  YYY=           8519.6781  ZZZ=           9561.6987  XYY=           9445.8975
  XXY=           5066.2070  XXZ=           5745.6459  XZZ=           9231.7952  YZZ=          13150.7960
  YYZ=          14152.8932  XYZ=          11092.1709
 Hexadecapole moment (field-independent basis, Debye-Ang**3):
 XXXX=         -74572.9735 YYYY=         -55074.2525 ZZZZ=          71127.3652 XXXY=         -22539.6319
 XXXZ=           6962.1549 YYYX=          58146.7775 YYYZ=         130646.7658 ZZZX=          93664.5987
 ZZZY=         130228.7172 XXYY=          34003.3448 XXZZ=          64684.2950 YYZZ=         162742.2595
 XXYZ=          73931.1561 YYXZ=         135822.3322 ZZXY=         130863.6358
 N-N= 3.224863540767D+03 E-N=-9.797775527393D+03  KE= 1.434071156563D+03
 Unable to Open any file for archive entry.
 1\1\GINC-SKL-158\SP\RB3LYP\6-31G(d)\C17H33N6O6(1+)\KENGMITH\24-May-202
 2\0\\# B3LYP/6-31G* empiricaldispersion=gd3 guess=read geom=check nosy
 mm integral(ultrafinegrid)\\Candidate Structure: Conf:564 Charge calc 
 in gas phase\\1,1\N,0,9.1329903331,16.9574065826,15.0451099707\C,0,9.8
 656176614,15.8070806695,14.3975711616\C,0,8.9859204319,15.43994303,13.
 1845524701\O,0,7.8522957997,15.0394827765,13.4188469419\C,0,10.0121613
 485,14.5978546256,15.3297606299\C,0,10.6072115749,14.8757587845,16.735
 9045152\C,0,11.7973638144,15.8198849595,16.6737122066\O,0,11.649794061
 4,16.9932273001,16.369567915\O,0,13.0291263761,15.3503140413,16.889171
 6679\H,0,13.0219021936,14.4179583236,17.1659001782\H,0,9.0803241372,17
 .7092238472,14.3161589272\H,0,10.8402202616,16.2116402988,14.131275401
 9\H,0,10.6443662697,13.8772570814,14.7984107163\H,0,9.0317818951,14.12
 66067887,15.4476958401\H,0,9.8600450292,15.3586636543,17.3753550628\H,
 0,10.8498709171,13.9193227924,17.2096463592\H,0,8.1816928005,16.669185
 3447,15.3028304852\H,0,9.6790531444,17.2997990279,15.8499860727\N,0,9.
 5159574971,15.5731981516,11.9465354859\C,0,10.675983348,16.3751863439,
 11.5669449367\C,0,10.5856134555,17.8046922723,12.1857422225\O,0,9.5225
 897426,18.225021802,12.6717704353\C,0,10.7812947641,16.4644108965,10.0
 255455672\C,0,11.3467849934,15.2208348352,9.3070679345\C,0,10.48727790
 55,13.9585849042,9.4724529139\C,0,11.5380211642,15.5486338262,7.818048
 0968\H,0,8.8467570574,15.368108637,11.2119707453\H,0,11.591118048,15.8
 945149362,11.9416376329\H,0,11.4286366988,17.3155623208,9.7880640871\H
 ,0,9.7908984986,16.7231387581,9.6237791609\H,0,12.3381942424,15.017895
 1986,9.7411952597\H,0,9.4660542484,14.1280214495,9.1044717468\H,0,10.9
 079441733,13.1341952015,8.8875573807\H,0,10.4259099251,13.6257978048,1
 0.5134026836\H,0,11.9917731002,14.7033643597,7.2906396928\H,0,10.57443
 0531,15.7611780974,7.3384245268\H,0,12.1855333545,16.4212027286,7.6746
 690941\N,0,11.7412048126,18.4802814479,12.1562154512\C,0,11.9814518052
 ,19.9165098812,12.3945892764\C,0,13.4877336158,20.1528453996,12.599028
 8094\O,0,13.9165430037,21.2313907119,12.9283043103\C,0,11.161784232,20
 .5584788419,13.5327955564\C,0,11.240662897,19.9142046547,14.9267867338
 \C,0,12.5279318126,20.1427619521,15.7352835259\N,0,13.6100548298,19.30
 91406524,15.2364749591\C,0,14.9481083694,19.6872241631,15.3483139429\N
 ,0,15.4688841081,20.7205186606,15.8789530313\N,0,15.8056215362,18.8340
 545866,14.5830768807\O,0,14.2311715334,19.0584224814,12.3440267465\H,0
 ,15.0716259831,19.1096222933,12.8898796677\H,0,12.5620203987,18.003564
 2299,11.7975932644\H,0,11.7140047107,20.4532474001,11.4735184214\H,0,1
 0.1172438088,20.5678850067,13.2156980543\H,0,11.4992719049,21.59837070
 61,13.5849920935\H,0,10.4054263582,20.3147071746,15.5163859602\H,0,11.
 0759214993,18.8355835315,14.8409394053\H,0,12.3319299942,19.9611178293
 ,16.8023929214\H,0,12.8340853443,21.1873147952,15.6267943219\H,0,13.41
 83507438,18.3151345226,15.2973903949\H,0,14.7848535671,21.3193371532,1
 6.338300929\H,0,16.7698656346,19.0947359215,14.7787382181\H,0,15.67627
 75286,17.8433071697,14.783437258\\Version=ES64L-G16RevC.01\HF=-1447.45
 70764\RMSD=6.952e-09\Dipole=-1.6047483,-3.8552031,1.9166096\Quadrupole
 =-265.9239127,166.4315567,99.492356,576.8001959,554.5125818,795.501095
 7\PG=C01 [X(C17H33N6O6)]\\@
 The archive entry for this job was punched.


 CHRISTMAS IS ON TOP OF A STEEP HILL.
 THE CLOSER YOU GET, THE STEEPER THE HILL IS.
          -- LINUS, OF PEANUTS
 Job cpu time:       0 days  0 hours  1 minutes 50.0 seconds.
 Elapsed time:       0 days  0 hours  0 minutes 28.0 seconds.
 File lengths (MBytes):  RWF=    248 Int=      0 D2E=      0 Chk=     32 Scr=     16
 Normal termination of Gaussian 16 at Tue May 24 03:34:21 2022.
