 Entering Gaussian System, Link 0=/opt/software/Gaussian/g16-AVX2-C.01/g16/g16
 Input=charge-conf-474.com
 Output=charge-conf-474.log
 Initial command:
 /opt/software/Gaussian/g16-AVX2-C.01/g16/l1.exe "/mnt/gs18/scratch/users/kengmith/Gau-6508.inp" -scrdir="/mnt/gs18/scratch/users/kengmith/"
 Entering Link 1 = /opt/software/Gaussian/g16-AVX2-C.01/g16/l1.exe PID=      6518.
  
 Copyright (c) 1988-2019, Gaussian, Inc.  All Rights Reserved.
  
 This is part of the Gaussian(R) 16 program.  It is based on
 the Gaussian(R) 09 system (copyright 2009, Gaussian, Inc.),
 the Gaussian(R) 03 system (copyright 2003, Gaussian, Inc.),
 the Gaussian(R) 98 system (copyright 1998, Gaussian, Inc.),
 the Gaussian(R) 94 system (copyright 1995, Gaussian, Inc.),
 the Gaussian 92(TM) system (copyright 1992, Gaussian, Inc.),
 the Gaussian 90(TM) system (copyright 1990, Gaussian, Inc.),
 the Gaussian 88(TM) system (copyright 1988, Gaussian, Inc.),
 the Gaussian 86(TM) system (copyright 1986, Carnegie Mellon
 University), and the Gaussian 82(TM) system (copyright 1983,
 Carnegie Mellon University). Gaussian is a federally registered
 trademark of Gaussian, Inc.
  
 This software contains proprietary and confidential information,
 including trade secrets, belonging to Gaussian, Inc.
  
 This software is provided under written license and may be
 used, copied, transmitted, or stored only in accord with that
 written license.
  
 The following legend is applicable only to US Government
 contracts under FAR:
  
                    RESTRICTED RIGHTS LEGEND
  
 Use, reproduction and disclosure by the US Government is
 subject to restrictions as set forth in subparagraphs (a)
 and (c) of the Commercial Computer Software - Restricted
 Rights clause in FAR 52.227-19.
  
 Gaussian, Inc.
 340 Quinnipiac St., Bldg. 40, Wallingford CT 06492
  
  
 ---------------------------------------------------------------
 Warning -- This program may not be used in any manner that
 competes with the business of Gaussian, Inc. or will provide
 assistance to any competitor of Gaussian, Inc.  The licensee
 of this program is prohibited from giving any competitor of
 Gaussian, Inc. access to this program.  By using this program,
 the user acknowledges that Gaussian, Inc. is engaged in the
 business of creating and licensing software in the field of
 computational chemistry and represents and warrants to the
 licensee that it is not a competitor of Gaussian, Inc. and that
 it will not use this program in any manner prohibited above.
 ---------------------------------------------------------------
  

 Cite this work as:
 Gaussian 16, Revision C.01,
 M. J. Frisch, G. W. Trucks, H. B. Schlegel, G. E. Scuseria, 
 M. A. Robb, J. R. Cheeseman, G. Scalmani, V. Barone, 
 G. A. Petersson, H. Nakatsuji, X. Li, M. Caricato, A. V. Marenich, 
 J. Bloino, B. G. Janesko, R. Gomperts, B. Mennucci, H. P. Hratchian, 
 J. V. Ortiz, A. F. Izmaylov, J. L. Sonnenberg, D. Williams-Young, 
 F. Ding, F. Lipparini, F. Egidi, J. Goings, B. Peng, A. Petrone, 
 T. Henderson, D. Ranasinghe, V. G. Zakrzewski, J. Gao, N. Rega, 
 G. Zheng, W. Liang, M. Hada, M. Ehara, K. Toyota, R. Fukuda, 
 J. Hasegawa, M. Ishida, T. Nakajima, Y. Honda, O. Kitao, H. Nakai, 
 T. Vreven, K. Throssell, J. A. Montgomery, Jr., J. E. Peralta, 
 F. Ogliaro, M. J. Bearpark, J. J. Heyd, E. N. Brothers, K. N. Kudin, 
 V. N. Staroverov, T. A. Keith, R. Kobayashi, J. Normand, 
 K. Raghavachari, A. P. Rendell, J. C. Burant, S. S. Iyengar, 
 J. Tomasi, M. Cossi, J. M. Millam, M. Klene, C. Adamo, R. Cammi, 
 J. W. Ochterski, R. L. Martin, K. Morokuma, O. Farkas, 
 J. B. Foresman, and D. J. Fox, Gaussian, Inc., Wallingford CT, 2019.
 
 ******************************************
 Gaussian 16:  ES64L-G16RevC.01  3-Jul-2019
                24-May-2022 
 ******************************************
 %mem=8gb
 %nproc=4
 Will use up to    4 processors via shared memory.
 %chk=conf-474.chk
 ----------------------------------------------------------------------
 # B3LYP/6-31G* empiricaldispersion=gd3 guess=read geom=check nosymm in
 tegral(ultrafinegrid)
 ----------------------------------------------------------------------
 1/29=2,38=1,172=1/1;
 2/12=2,15=1,40=1/2;
 3/5=1,6=6,7=1,11=2,14=-4,25=1,30=1,74=-5,75=-5,116=-2,124=31/1,2,3;
 4/5=1/1;
 5/5=2,38=6/2;
 6/7=2,8=2,9=2,10=2,28=1/1;
 99/5=1,9=1/99;
 ------------------------------------------------------
 Candidate Structure: Conf:474 Charge calc in gas phase
 ------------------------------------------------------
 Structure from the checkpoint file:  "conf-474.chk"
 Charge =  1 Multiplicity = 1
 Redundant internal coordinates found in file.  (old form).
 N,0,13.1286312289,15.0070131956,11.3434484003
 C,0,12.2890717964,14.9438049157,12.5949900104
 C,0,13.297581504,14.5995445834,13.7088401824
 O,0,13.9642835923,13.5842122175,13.5582482123
 C,0,11.200724927,13.8660897408,12.5211847455
 C,0,10.2091420699,13.9729234847,11.3275343729
 C,0,10.0488019959,15.3932033591,10.799478552
 O,0,10.9047228821,15.8928992018,10.0775084731
 O,0,8.9846331843,16.1029394125,11.1530280712
 H,0,8.6078672112,15.833350156,12.0478177788
 H,0,13.7909454735,15.7939828344,11.4738043027
 H,0,11.8367820769,15.9312091375,12.6918604284
 H,0,10.6516594862,13.9280408848,13.4672119784
 H,0,11.6774833855,12.881460425,12.5172036573
 H,0,10.5830728193,13.3859917451,10.4833715247
 H,0,9.2458989827,13.5441858757,11.615741192
 H,0,13.6636626607,14.1346179304,11.2500119825
 H,0,12.5110531317,15.1977702614,10.5236446772
 N,0,13.3649215201,15.4043200014,14.7991694825
 C,0,12.9328809747,16.7975010212,14.884100303
 C,0,13.4062472072,17.5930701086,13.6400435336
 O,0,14.1864630694,17.1189652613,12.808308058
 C,0,13.4594042228,17.3728400887,16.2239298862
 C,0,12.907332056,18.7318269598,16.7016478441
 C,0,11.3756685739,18.7369808577,16.824741086
 C,0,13.5548244135,19.0840715086,18.0506392214
 H,0,14.0988795982,15.1192696078,15.4410095007
 H,0,11.8361742865,16.836934133,14.8904110787
 H,0,14.5549113761,17.4217085477,16.1640386364
 H,0,13.2154025125,16.627597414,16.9928921839
 H,0,13.2065201575,19.5129345447,15.9898525756
 H,0,11.0388720818,17.9613804297,17.5232662547
 H,0,11.0248584126,19.7003679852,17.2081900014
 H,0,10.8530564129,18.557316402,15.8765933346
 H,0,13.2226145382,20.0695004075,18.3918511091
 H,0,13.2784039887,18.3525379906,18.8195504008
 H,0,14.6480247924,19.1036341322,17.97931659
 N,0,12.8698571227,18.8294153602,13.5230196385
 C,0,12.9921630043,19.6388525322,12.3031155731
 C,0,13.2246729429,21.1176900703,12.6683971057
 O,0,12.824262613,22.0255269044,11.9884664029
 C,0,11.8284498509,19.4388053272,11.3154827087
 C,0,10.4631657311,20.0471727986,11.6857458545
 C,0,9.8174024196,19.6194159987,13.0090088126
 N,0,9.7286242423,18.1567564939,13.1218987549
 C,0,8.831585966,17.603879962,14.0346358002
 N,0,8.1828492273,18.1491629249,14.9833871451
 N,0,8.6810031995,16.1762956049,13.8399634702
 O,0,13.9376605016,21.3365971545,13.7961006007
 H,0,14.2135839486,20.4862252327,14.1811920574
 H,0,12.103781447,19.0538088072,14.1435808238
 H,0,13.9126849131,19.2913681847,11.820286906
 H,0,11.7375747158,18.3624841273,11.1226532454
 H,0,12.1360846323,19.8951882093,10.3694223301
 H,0,10.5532372981,21.1364420666,11.6972714041
 H,0,9.7683305007,19.8008387514,10.872705583
 H,0,8.8171218314,20.0728702629,13.0618639424
 H,0,10.3711865584,20.0176409117,13.8711279483
 H,0,9.6625244686,17.711771297,12.2097311045
 H,0,8.2741338676,19.1653122569,14.9981544818
 H,0,7.9180985673,15.8792773279,14.4491799555
 H,0,9.5227464867,15.6987064299,14.1646849275
 Recover connectivity data from disk.
                           ----------------------------
                           !    Current Parameters    !
                           ! (Angstroms and Degrees)  !
 --------------------------                            --------------------------
 ! Name  Definition              Value                                          !
 --------------------------------------------------------------------------------
 ! R1    R(1,2)                  1.5084                                         !
 ! R2    R(1,11)                 1.0368                                         !
 ! R3    R(1,17)                 1.0276                                         !
 ! R4    R(1,18)                 1.044                                          !
 ! R5    R(2,3)                  1.5415                                         !
 ! R6    R(2,5)                  1.5334                                         !
 ! R7    R(2,12)                 1.0904                                         !
 ! R8    R(3,4)                  1.224                                          !
 ! R9    R(3,19)                 1.3568                                         !
 ! R10   R(5,6)                  1.5555                                         !
 ! R11   R(5,13)                 1.0956                                         !
 ! R12   R(5,14)                 1.094                                          !
 ! R13   R(6,7)                  1.5237                                         !
 ! R14   R(6,15)                 1.094                                          !
 ! R15   R(6,16)                 1.093                                          !
 ! R16   R(7,8)                  1.2262                                         !
 ! R17   R(7,9)                  1.3271                                         !
 ! R18   R(9,10)                 1.0076                                         !
 ! R19   R(19,20)                1.4611                                         !
 ! R20   R(19,27)                1.0158                                         !
 ! R21   R(20,21)                1.5507                                         !
 ! R22   R(20,23)                1.5503                                         !
 ! R23   R(20,28)                1.0974                                         !
 ! R24   R(21,22)                1.235                                          !
 ! R25   R(21,38)                1.3528                                         !
 ! R26   R(23,24)                1.5427                                         !
 ! R27   R(23,29)                1.0982                                         !
 ! R28   R(23,30)                1.0983                                         !
 ! R29   R(24,25)                1.5366                                         !
 ! R30   R(24,26)                1.5372                                         !
 ! R31   R(24,31)                1.0983                                         !
 ! R32   R(25,32)                1.0968                                         !
 ! R33   R(25,33)                1.0946                                         !
 ! R34   R(25,34)                1.0974                                         !
 ! R35   R(26,35)                1.0945                                         !
 ! R36   R(26,36)                1.0967                                         !
 ! R37   R(26,37)                1.0957                                         !
 ! R38   R(38,39)                1.4691                                         !
 ! R39   R(38,51)                1.0111                                         !
 ! R40   R(39,40)                1.5409                                         !
 ! R41   R(39,42)                1.5394                                         !
 ! R42   R(39,52)                1.096                                          !
 ! R43   R(40,41)                1.2028                                         !
 ! R44   R(40,49)                1.352                                          !
 ! R45   R(42,43)                1.5399                                         !
 ! R46   R(42,53)                1.0972                                         !
 ! R47   R(42,54)                1.0945                                         !
 ! R48   R(43,44)                1.5333                                         !
 ! R49   R(43,55)                1.093                                          !
 ! R50   R(43,56)                1.0975                                         !
 ! R51   R(44,45)                1.4697                                         !
 ! R52   R(44,57)                1.0995                                         !
 ! R53   R(44,58)                1.0993                                         !
 ! R54   R(45,46)                1.3941                                         !
 ! R55   R(45,59)                1.0171                                         !
 ! R56   R(46,47)                1.2721                                         !
 ! R57   R(46,48)                1.4486                                         !
 ! R58   R(47,60)                1.0203                                         !
 ! R59   R(48,61)                1.0205                                         !
 ! R60   R(48,62)                1.0208                                         !
 ! R61   R(49,50)                0.9734                                         !
 ! A1    A(2,1,11)             106.4418                                         !
 ! A2    A(2,1,17)             109.2476                                         !
 ! A3    A(2,1,18)             109.2661                                         !
 ! A4    A(11,1,17)            108.857                                          !
 ! A5    A(11,1,18)            109.751                                          !
 ! A6    A(17,1,18)            113.061                                          !
 ! A7    A(1,2,3)              104.1669                                         !
 ! A8    A(1,2,5)              112.6163                                         !
 ! A9    A(1,2,12)             105.4647                                         !
 ! A10   A(3,2,5)              110.0085                                         !
 ! A11   A(3,2,12)             114.1683                                         !
 ! A12   A(5,2,12)             110.262                                          !
 ! A13   A(2,3,4)              116.9186                                         !
 ! A14   A(2,3,19)             118.7279                                         !
 ! A15   A(4,3,19)             124.3233                                         !
 ! A16   A(2,5,6)              116.1751                                         !
 ! A17   A(2,5,13)             105.9262                                         !
 ! A18   A(2,5,14)             108.8702                                         !
 ! A19   A(6,5,13)             109.8327                                         !
 ! A20   A(6,5,14)             109.6845                                         !
 ! A21   A(13,5,14)            105.8098                                         !
 ! A22   A(5,6,7)              113.3937                                         !
 ! A23   A(5,6,15)             109.7179                                         !
 ! A24   A(5,6,16)             109.4209                                         !
 ! A25   A(7,6,15)             105.5823                                         !
 ! A26   A(7,6,16)             111.3621                                         !
 ! A27   A(15,6,16)            107.1111                                         !
 ! A28   A(6,7,8)              120.6937                                         !
 ! A29   A(6,7,9)              119.3768                                         !
 ! A30   A(8,7,9)              119.911                                          !
 ! A31   A(7,9,10)             113.1618                                         !
 ! A32   A(3,19,20)            126.6972                                         !
 ! A33   A(3,19,27)            112.1576                                         !
 ! A34   A(20,19,27)           116.3902                                         !
 ! A35   A(19,20,21)           110.6275                                         !
 ! A36   A(19,20,23)           107.6785                                         !
 ! A37   A(19,20,28)           109.2745                                         !
 ! A38   A(21,20,23)           113.5327                                         !
 ! A39   A(21,20,28)           106.9319                                         !
 ! A40   A(23,20,28)           108.7295                                         !
 ! A41   A(20,21,22)           122.4239                                         !
 ! A42   A(20,21,38)           114.661                                          !
 ! A43   A(22,21,38)           122.8936                                         !
 ! A44   A(20,23,24)           118.2303                                         !
 ! A45   A(20,23,29)           107.949                                          !
 ! A46   A(20,23,30)           106.1304                                         !
 ! A47   A(24,23,29)           109.5523                                         !
 ! A48   A(24,23,30)           107.5439                                         !
 ! A49   A(29,23,30)           106.8574                                         !
 ! A50   A(23,24,25)           112.6112                                         !
 ! A51   A(23,24,26)           108.8365                                         !
 ! A52   A(23,24,31)           109.1675                                         !
 ! A53   A(25,24,26)           110.4129                                         !
 ! A54   A(25,24,31)           108.727                                          !
 ! A55   A(26,24,31)           106.9188                                         !
 ! A56   A(24,25,32)           110.7773                                         !
 ! A57   A(24,25,33)           110.5157                                         !
 ! A58   A(24,25,34)           113.8859                                         !
 ! A59   A(32,25,33)           107.5093                                         !
 ! A60   A(32,25,34)           106.7527                                         !
 ! A61   A(33,25,34)           107.1042                                         !
 ! A62   A(24,26,35)           110.6124                                         !
 ! A63   A(24,26,36)           110.8698                                         !
 ! A64   A(24,26,37)           111.5439                                         !
 ! A65   A(35,26,36)           107.7876                                         !
 ! A66   A(35,26,37)           107.8822                                         !
 ! A67   A(36,26,37)           108.0                                            !
 ! A68   A(21,38,39)           122.8455                                         !
 ! A69   A(21,38,51)           116.7542                                         !
 ! A70   A(39,38,51)           116.7716                                         !
 ! A71   A(38,39,40)           110.1506                                         !
 ! A72   A(38,39,42)           113.4664                                         !
 ! A73   A(38,39,52)           105.132                                          !
 ! A74   A(40,39,42)           113.0089                                         !
 ! A75   A(40,39,52)           106.3779                                         !
 ! A76   A(42,39,52)           108.1247                                         !
 ! A77   A(39,40,41)           122.6911                                         !
 ! A78   A(39,40,49)           115.6377                                         !
 ! A79   A(41,40,49)           121.657                                          !
 ! A80   A(39,42,43)           117.6873                                         !
 ! A81   A(39,42,53)           107.6284                                         !
 ! A82   A(39,42,54)           106.732                                          !
 ! A83   A(43,42,53)           110.8777                                         !
 ! A84   A(43,42,54)           106.996                                          !
 ! A85   A(53,42,54)           106.2842                                         !
 ! A86   A(42,43,44)           118.08                                           !
 ! A87   A(42,43,55)           108.8557                                         !
 ! A88   A(42,43,56)           107.1289                                         !
 ! A89   A(44,43,55)           107.6751                                         !
 ! A90   A(44,43,56)           108.0638                                         !
 ! A91   A(55,43,56)           106.4785                                         !
 ! A92   A(43,44,45)           111.677                                          !
 ! A93   A(43,44,57)           108.0336                                         !
 ! A94   A(43,44,58)           111.3204                                         !
 ! A95   A(45,44,57)           110.5966                                         !
 ! A96   A(45,44,58)           109.3115                                         !
 ! A97   A(57,44,58)           105.7349                                         !
 ! A98   A(44,45,46)           118.9373                                         !
 ! A99   A(44,45,59)           111.744                                          !
 ! A100  A(46,45,59)           111.8306                                         !
 ! A101  A(45,46,47)           130.2738                                         !
 ! A102  A(45,46,48)           111.6989                                         !
 ! A103  A(47,46,48)           118.0095                                         !
 ! A104  A(46,47,60)           113.0817                                         !
 ! A105  A(46,48,61)           106.5176                                         !
 ! A106  A(46,48,62)           109.426                                          !
 ! A107  A(61,48,62)           106.8804                                         !
 ! A108  A(40,49,50)           109.7552                                         !
 ! D1    D(11,1,2,3)           -63.94                                           !
 ! D2    D(11,1,2,5)           176.887                                          !
 ! D3    D(11,1,2,12)           56.5881                                         !
 ! D4    D(17,1,2,3)            53.446                                          !
 ! D5    D(17,1,2,5)           -65.7271                                         !
 ! D6    D(17,1,2,12)          173.974                                          !
 ! D7    D(18,1,2,3)           177.6099                                         !
 ! D8    D(18,1,2,5)            58.4369                                         !
 ! D9    D(18,1,2,12)          -61.8621                                         !
 ! D10   D(1,2,3,4)            -56.1699                                         !
 ! D11   D(1,2,3,19)           125.74                                           !
 ! D12   D(5,2,3,4)             64.7617                                         !
 ! D13   D(5,2,3,19)          -113.3283                                         !
 ! D14   D(12,2,3,4)          -170.6707                                         !
 ! D15   D(12,2,3,19)           11.2392                                         !
 ! D16   D(1,2,5,6)            -56.7342                                         !
 ! D17   D(1,2,5,13)          -178.969                                          !
 ! D18   D(1,2,5,14)            67.6437                                         !
 ! D19   D(3,2,5,6)           -172.4474                                         !
 ! D20   D(3,2,5,13)            65.3179                                         !
 ! D21   D(3,2,5,14)           -48.0694                                         !
 ! D22   D(12,2,5,6)            60.7626                                         !
 ! D23   D(12,2,5,13)          -61.4722                                         !
 ! D24   D(12,2,5,14)         -174.8594                                         !
 ! D25   D(2,3,19,20)          -22.0625                                         !
 ! D26   D(2,3,19,27)         -176.4934                                         !
 ! D27   D(4,3,19,20)          159.9996                                         !
 ! D28   D(4,3,19,27)            5.5687                                         !
 ! D29   D(2,5,6,7)            -26.2278                                         !
 ! D30   D(2,5,6,15)            91.5446                                         !
 ! D31   D(2,5,6,16)          -151.2122                                         !
 ! D32   D(13,5,6,7)            93.925                                          !
 ! D33   D(13,5,6,15)         -148.3026                                         !
 ! D34   D(13,5,6,16)          -31.0594                                         !
 ! D35   D(14,5,6,7)          -150.1862                                         !
 ! D36   D(14,5,6,15)          -32.4138                                         !
 ! D37   D(14,5,6,16)           84.8294                                         !
 ! D38   D(5,6,7,8)             77.722                                          !
 ! D39   D(5,6,7,9)           -100.7156                                         !
 ! D40   D(15,6,7,8)           -42.4288                                         !
 ! D41   D(15,6,7,9)           139.1337                                         !
 ! D42   D(16,6,7,8)          -158.3453                                         !
 ! D43   D(16,6,7,9)            23.2172                                         !
 ! D44   D(6,7,9,10)            27.4859                                         !
 ! D45   D(8,7,9,10)          -150.9641                                         !
 ! D46   D(3,19,20,21)         -44.4423                                         !
 ! D47   D(3,19,20,23)        -169.0354                                         !
 ! D48   D(3,19,20,28)          73.0286                                         !
 ! D49   D(27,19,20,21)        109.0558                                         !
 ! D50   D(27,19,20,23)        -15.5374                                         !
 ! D51   D(27,19,20,28)       -133.4734                                         !
 ! D52   D(19,20,21,22)         -8.7117                                         !
 ! D53   D(19,20,21,38)        169.6467                                         !
 ! D54   D(23,20,21,22)        112.4758                                         !
 ! D55   D(23,20,21,38)        -69.1658                                         !
 ! D56   D(28,20,21,22)       -127.6118                                         !
 ! D57   D(28,20,21,38)         50.7466                                         !
 ! D58   D(19,20,23,24)       -167.6923                                         !
 ! D59   D(19,20,23,29)         67.3343                                         !
 ! D60   D(19,20,23,30)        -46.9336                                         !
 ! D61   D(21,20,23,24)         69.4813                                         !
 ! D62   D(21,20,23,29)        -55.4921                                         !
 ! D63   D(21,20,23,30)       -169.7601                                         !
 ! D64   D(28,20,23,24)        -49.4049                                         !
 ! D65   D(28,20,23,29)       -174.3783                                         !
 ! D66   D(28,20,23,30)         71.3537                                         !
 ! D67   D(20,21,38,39)       -168.4081                                         !
 ! D68   D(20,21,38,51)        -10.6063                                         !
 ! D69   D(22,21,38,39)          9.9417                                         !
 ! D70   D(22,21,38,51)        167.7435                                         !
 ! D71   D(20,23,24,25)         56.4142                                         !
 ! D72   D(20,23,24,26)        179.1854                                         !
 ! D73   D(20,23,24,31)        -64.4482                                         !
 ! D74   D(29,23,24,25)       -179.4021                                         !
 ! D75   D(29,23,24,26)        -56.6309                                         !
 ! D76   D(29,23,24,31)         59.7355                                         !
 ! D77   D(30,23,24,25)        -63.6152                                         !
 ! D78   D(30,23,24,26)         59.156                                          !
 ! D79   D(30,23,24,31)        175.5224                                         !
 ! D80   D(23,24,25,32)         58.4017                                         !
 ! D81   D(23,24,25,33)        177.4504                                         !
 ! D82   D(23,24,25,34)        -61.9421                                         !
 ! D83   D(26,24,25,32)        -63.4812                                         !
 ! D84   D(26,24,25,33)         55.5675                                         !
 ! D85   D(26,24,25,34)        176.175                                          !
 ! D86   D(31,24,25,32)        179.5159                                         !
 ! D87   D(31,24,25,33)        -61.4355                                         !
 ! D88   D(31,24,25,34)         59.172                                          !
 ! D89   D(23,24,26,35)        177.0338                                         !
 ! D90   D(23,24,26,36)        -63.448                                          !
 ! D91   D(23,24,26,37)         56.9546                                         !
 ! D92   D(25,24,26,35)        -58.8822                                         !
 ! D93   D(25,24,26,36)         60.636                                          !
 ! D94   D(25,24,26,37)       -178.9613                                         !
 ! D95   D(31,24,26,35)         59.2347                                         !
 ! D96   D(31,24,26,36)        178.7529                                         !
 ! D97   D(31,24,26,37)        -60.8444                                         !
 ! D98   D(21,38,39,40)       -140.6543                                         !
 ! D99   D(21,38,39,42)         91.5246                                         !
 ! D100  D(21,38,39,52)        -26.426                                          !
 ! D101  D(51,38,39,40)         61.5475                                         !
 ! D102  D(51,38,39,42)        -66.2736                                         !
 ! D103  D(51,38,39,52)        175.7758                                         !
 ! D104  D(38,39,40,41)       -148.1956                                         !
 ! D105  D(38,39,40,49)         33.1596                                         !
 ! D106  D(42,39,40,41)        -20.1226                                         !
 ! D107  D(42,39,40,49)        161.2325                                         !
 ! D108  D(52,39,40,41)         98.3719                                         !
 ! D109  D(52,39,40,49)        -80.273                                          !
 ! D110  D(38,39,42,43)         72.7532                                         !
 ! D111  D(38,39,42,53)        -53.3348                                         !
 ! D112  D(38,39,42,54)       -167.0852                                         !
 ! D113  D(40,39,42,43)        -53.5714                                         !
 ! D114  D(40,39,42,53)       -179.6594                                         !
 ! D115  D(40,39,42,54)         66.5902                                         !
 ! D116  D(52,39,42,43)       -171.0449                                         !
 ! D117  D(52,39,42,53)         62.8671                                         !
 ! D118  D(52,39,42,54)        -50.8833                                         !
 ! D119  D(39,40,49,50)          1.7701                                         !
 ! D120  D(41,40,49,50)       -176.8901                                         !
 ! D121  D(39,42,43,44)        -57.6741                                         !
 ! D122  D(39,42,43,55)         65.4077                                         !
 ! D123  D(39,42,43,56)       -179.8268                                         !
 ! D124  D(53,42,43,44)         66.8098                                         !
 ! D125  D(53,42,43,55)       -170.1083                                         !
 ! D126  D(53,42,43,56)        -55.3429                                         !
 ! D127  D(54,42,43,44)       -177.6977                                         !
 ! D128  D(54,42,43,55)        -54.6159                                         !
 ! D129  D(54,42,43,56)         60.1496                                         !
 ! D130  D(42,43,44,45)        -52.86                                           !
 ! D131  D(42,43,44,57)       -174.6983                                         !
 ! D132  D(42,43,44,58)         69.6298                                         !
 ! D133  D(55,43,44,45)       -176.5333                                         !
 ! D134  D(55,43,44,57)         61.6284                                         !
 ! D135  D(55,43,44,58)        -54.0435                                         !
 ! D136  D(56,43,44,45)         68.8166                                         !
 ! D137  D(56,43,44,57)        -53.0217                                         !
 ! D138  D(56,43,44,58)       -168.6936                                         !
 ! D139  D(43,44,45,46)       -160.7862                                         !
 ! D140  D(43,44,45,59)        -28.1008                                         !
 ! D141  D(57,44,45,46)        -40.4377                                         !
 ! D142  D(57,44,45,59)         92.2477                                         !
 ! D143  D(58,44,45,46)         75.5812                                         !
 ! D144  D(58,44,45,59)       -151.7334                                         !
 ! D145  D(44,45,46,47)        -12.7369                                         !
 ! D146  D(44,45,46,48)        168.8577                                         !
 ! D147  D(59,45,46,47)       -145.3847                                         !
 ! D148  D(59,45,46,48)         36.2099                                         !
 ! D149  D(45,46,47,60)          7.1138                                         !
 ! D150  D(48,46,47,60)       -174.5645                                         !
 ! D151  D(45,46,48,61)       -172.0456                                         !
 ! D152  D(45,46,48,62)         72.7569                                         !
 ! D153  D(47,46,48,61)          9.3324                                         !
 ! D154  D(47,46,48,62)       -105.865                                          !
 --------------------------------------------------------------------------------
 Symmetry turned off by external request.
 Stoichiometry    C17H33N6O6(1+)
 Framework group  C1[X(C17H33N6O6)]
 Deg. of freedom   180
 Full point group                 C1      NOp   1
                          Input orientation:                          
 ---------------------------------------------------------------------
 Center     Atomic      Atomic             Coordinates (Angstroms)
 Number     Number       Type             X           Y           Z
 ---------------------------------------------------------------------
      1          7           0       13.128631   15.007013   11.343448
      2          6           0       12.289072   14.943805   12.594990
      3          6           0       13.297582   14.599545   13.708840
      4          8           0       13.964284   13.584212   13.558248
      5          6           0       11.200725   13.866090   12.521185
      6          6           0       10.209142   13.972923   11.327534
      7          6           0       10.048802   15.393203   10.799479
      8          8           0       10.904723   15.892899   10.077508
      9          8           0        8.984633   16.102939   11.153028
     10          1           0        8.607867   15.833350   12.047818
     11          1           0       13.790945   15.793983   11.473804
     12          1           0       11.836782   15.931209   12.691860
     13          1           0       10.651659   13.928041   13.467212
     14          1           0       11.677483   12.881460   12.517204
     15          1           0       10.583073   13.385992   10.483372
     16          1           0        9.245899   13.544186   11.615741
     17          1           0       13.663663   14.134618   11.250012
     18          1           0       12.511053   15.197770   10.523645
     19          7           0       13.364922   15.404320   14.799169
     20          6           0       12.932881   16.797501   14.884100
     21          6           0       13.406247   17.593070   13.640044
     22          8           0       14.186463   17.118965   12.808308
     23          6           0       13.459404   17.372840   16.223930
     24          6           0       12.907332   18.731827   16.701648
     25          6           0       11.375669   18.736981   16.824741
     26          6           0       13.554824   19.084072   18.050639
     27          1           0       14.098880   15.119270   15.441010
     28          1           0       11.836174   16.836934   14.890411
     29          1           0       14.554911   17.421709   16.164039
     30          1           0       13.215403   16.627597   16.992892
     31          1           0       13.206520   19.512935   15.989853
     32          1           0       11.038872   17.961380   17.523266
     33          1           0       11.024858   19.700368   17.208190
     34          1           0       10.853056   18.557316   15.876593
     35          1           0       13.222615   20.069500   18.391851
     36          1           0       13.278404   18.352538   18.819550
     37          1           0       14.648025   19.103634   17.979317
     38          7           0       12.869857   18.829415   13.523020
     39          6           0       12.992163   19.638853   12.303116
     40          6           0       13.224673   21.117690   12.668397
     41          8           0       12.824263   22.025527   11.988466
     42          6           0       11.828450   19.438805   11.315483
     43          6           0       10.463166   20.047173   11.685746
     44          6           0        9.817402   19.619416   13.009009
     45          7           0        9.728624   18.156756   13.121899
     46          6           0        8.831586   17.603880   14.034636
     47          7           0        8.182849   18.149163   14.983387
     48          7           0        8.681003   16.176296   13.839963
     49          8           0       13.937661   21.336597   13.796101
     50          1           0       14.213584   20.486225   14.181192
     51          1           0       12.103781   19.053809   14.143581
     52          1           0       13.912685   19.291368   11.820287
     53          1           0       11.737575   18.362484   11.122653
     54          1           0       12.136085   19.895188   10.369422
     55          1           0       10.553237   21.136442   11.697271
     56          1           0        9.768331   19.800839   10.872706
     57          1           0        8.817122   20.072870   13.061864
     58          1           0       10.371187   20.017641   13.871128
     59          1           0        9.662524   17.711771   12.209731
     60          1           0        8.274134   19.165312   14.998154
     61          1           0        7.918099   15.879277   14.449180
     62          1           0        9.522746   15.698706   14.164685
 ---------------------------------------------------------------------
 Rotational constants (GHZ):           0.1842479           0.1391949           0.1222193
 Standard basis: 6-31G(d) (6D, 7F)
   501 basis functions,   944 primitive gaussians,   501 cartesian basis functions
   112 alpha electrons      112 beta electrons
       nuclear repulsion energy      3317.1970504538 Hartrees.
 NAtoms=   62 NActive=   62 NUniq=   62 SFac= 1.00D+00 NAtFMM=   60 NAOKFM=T Big=T
 Integral buffers will be    131072 words long.
 Raffenetti 2 integral format.
 Two-electron integral symmetry is turned off.
 Nuclear repulsion after empirical dispersion term =     3317.1030231980 Hartrees.
 One-electron integrals computed using PRISM.
 NBasis=   501 RedAO= T EigKep=  1.63D-03  NBF=   501
 NBsUse=   501 1.00D-06 EigRej= -1.00D+00 NBFU=   501
 Initial guess from the checkpoint file:  "conf-474.chk"
 B after Tr=     0.000000    0.000000    0.000000
         Rot=    1.000000    0.000000    0.000000    0.000000 Ang=   0.00 deg.
 Requested convergence on RMS density matrix=1.00D-08 within 128 cycles.
 Requested convergence on MAX density matrix=1.00D-06.
 Requested convergence on             energy=1.00D-06.
 No special actions if energy rises.
 SCF Done:  E(RB3LYP) =  -1447.46360988     A.U. after    1 cycles
            NFock=  1  Conv=0.59D-08     -V/T= 2.0093

 **********************************************************************

            Population analysis using the SCF Density.

 **********************************************************************

 Alpha  occ. eigenvalues --  -19.32408 -19.30072 -19.28560 -19.27658 -19.26478
 Alpha  occ. eigenvalues --  -19.24115 -14.58898 -14.51277 -14.50728 -14.48760
 Alpha  occ. eigenvalues --  -14.47661 -14.41928 -10.46867 -10.44387 -10.44123
 Alpha  occ. eigenvalues --  -10.42703 -10.41244 -10.40840 -10.38694 -10.36600
 Alpha  occ. eigenvalues --  -10.36225 -10.35193 -10.34333 -10.32637 -10.31571
 Alpha  occ. eigenvalues --  -10.30849 -10.30011 -10.29083 -10.27835  -1.24120
 Alpha  occ. eigenvalues --   -1.20797  -1.19719  -1.18590  -1.15942  -1.13590
 Alpha  occ. eigenvalues --   -1.12640  -1.10296  -1.07707  -1.07457  -1.01937
 Alpha  occ. eigenvalues --   -0.97328  -0.96165  -0.94317  -0.91713  -0.88929
 Alpha  occ. eigenvalues --   -0.88059  -0.85925  -0.80682  -0.79986  -0.79717
 Alpha  occ. eigenvalues --   -0.77909  -0.75689  -0.74836  -0.74205  -0.73046
 Alpha  occ. eigenvalues --   -0.72941  -0.71649  -0.71456  -0.70034  -0.69039
 Alpha  occ. eigenvalues --   -0.67552  -0.67357  -0.66214  -0.64444  -0.64305
 Alpha  occ. eigenvalues --   -0.63331  -0.62406  -0.61768  -0.61274  -0.61103
 Alpha  occ. eigenvalues --   -0.60525  -0.59357  -0.58682  -0.58558  -0.58149
 Alpha  occ. eigenvalues --   -0.57041  -0.56835  -0.56376  -0.56059  -0.55247
 Alpha  occ. eigenvalues --   -0.54824  -0.54762  -0.54105  -0.53476  -0.52789
 Alpha  occ. eigenvalues --   -0.52428  -0.52196  -0.51371  -0.51217  -0.50531
 Alpha  occ. eigenvalues --   -0.50079  -0.49335  -0.48917  -0.48688  -0.48173
 Alpha  occ. eigenvalues --   -0.46959  -0.46069  -0.45745  -0.45255  -0.45160
 Alpha  occ. eigenvalues --   -0.44731  -0.44704  -0.42351  -0.41927  -0.41879
 Alpha  occ. eigenvalues --   -0.41398  -0.41049  -0.40733  -0.39682  -0.38757
 Alpha  occ. eigenvalues --   -0.37380  -0.36413
 Alpha virt. eigenvalues --   -0.15060  -0.14302  -0.13438  -0.10610  -0.10248
 Alpha virt. eigenvalues --   -0.08503  -0.07367  -0.06655  -0.04989  -0.04359
 Alpha virt. eigenvalues --   -0.03226  -0.02983  -0.02305  -0.01756  -0.00848
 Alpha virt. eigenvalues --    0.00031   0.00148   0.00616   0.01176   0.01779
 Alpha virt. eigenvalues --    0.02074   0.02412   0.02667   0.03393   0.03870
 Alpha virt. eigenvalues --    0.03938   0.04415   0.04548   0.04839   0.05073
 Alpha virt. eigenvalues --    0.05691   0.05888   0.06063   0.06724   0.07036
 Alpha virt. eigenvalues --    0.07567   0.07666   0.08582   0.09023   0.09323
 Alpha virt. eigenvalues --    0.09473   0.09619   0.10347   0.10932   0.11613
 Alpha virt. eigenvalues --    0.11876   0.12216   0.13138   0.13276   0.13630
 Alpha virt. eigenvalues --    0.14689   0.15045   0.15577   0.16090   0.17018
 Alpha virt. eigenvalues --    0.19173   0.20771   0.21329   0.21830   0.22923
 Alpha virt. eigenvalues --    0.23851   0.24646   0.26162   0.28212   0.29132
 Alpha virt. eigenvalues --    0.32129   0.34013   0.35096   0.35831   0.37259
 Alpha virt. eigenvalues --    0.38360   0.38869   0.39632   0.39768   0.40365
 Alpha virt. eigenvalues --    0.41266   0.41607   0.42321   0.42966   0.43280
 Alpha virt. eigenvalues --    0.43958   0.44673   0.45628   0.46059   0.47236
 Alpha virt. eigenvalues --    0.47271   0.47465   0.48105   0.49196   0.49412
 Alpha virt. eigenvalues --    0.50015   0.51023   0.51257   0.51764   0.52096
 Alpha virt. eigenvalues --    0.52909   0.53254   0.54320   0.54724   0.55008
 Alpha virt. eigenvalues --    0.55649   0.55802   0.56617   0.57152   0.58314
 Alpha virt. eigenvalues --    0.58856   0.59465   0.60207   0.60452   0.61492
 Alpha virt. eigenvalues --    0.61991   0.62453   0.63345   0.63582   0.64131
 Alpha virt. eigenvalues --    0.64860   0.65559   0.65875   0.66639   0.67177
 Alpha virt. eigenvalues --    0.67971   0.68484   0.69065   0.69879   0.70330
 Alpha virt. eigenvalues --    0.71126   0.71695   0.71926   0.72888   0.73541
 Alpha virt. eigenvalues --    0.74442   0.74490   0.74976   0.75371   0.76509
 Alpha virt. eigenvalues --    0.76877   0.77153   0.77639   0.78378   0.78563
 Alpha virt. eigenvalues --    0.79074   0.79595   0.79835   0.80386   0.80736
 Alpha virt. eigenvalues --    0.81241   0.81472   0.81685   0.82577   0.83002
 Alpha virt. eigenvalues --    0.83114   0.83434   0.84337   0.85150   0.85408
 Alpha virt. eigenvalues --    0.85708   0.86447   0.87437   0.88376   0.88850
 Alpha virt. eigenvalues --    0.88998   0.89912   0.90556   0.91405   0.92109
 Alpha virt. eigenvalues --    0.92436   0.93662   0.94371   0.95405   0.96590
 Alpha virt. eigenvalues --    0.97038   0.98223   0.98470   0.99981   1.00701
 Alpha virt. eigenvalues --    1.01131   1.02366   1.03500   1.04168   1.04931
 Alpha virt. eigenvalues --    1.06283   1.07065   1.07535   1.08300   1.09581
 Alpha virt. eigenvalues --    1.10382   1.11726   1.12403   1.13281   1.15374
 Alpha virt. eigenvalues --    1.16238   1.17197   1.17843   1.19974   1.20430
 Alpha virt. eigenvalues --    1.21966   1.23484   1.24686   1.24786   1.25725
 Alpha virt. eigenvalues --    1.27409   1.28018   1.29781   1.30838   1.32579
 Alpha virt. eigenvalues --    1.32717   1.34239   1.34473   1.35600   1.36422
 Alpha virt. eigenvalues --    1.36549   1.36973   1.39961   1.40533   1.42463
 Alpha virt. eigenvalues --    1.43718   1.45817   1.47048   1.48924   1.49269
 Alpha virt. eigenvalues --    1.50755   1.51366   1.53269   1.53971   1.54369
 Alpha virt. eigenvalues --    1.56211   1.56571   1.57558   1.57948   1.58681
 Alpha virt. eigenvalues --    1.59357   1.60252   1.60562   1.62103   1.62695
 Alpha virt. eigenvalues --    1.63868   1.64576   1.65913   1.66219   1.66788
 Alpha virt. eigenvalues --    1.67476   1.68185   1.68650   1.69078   1.69568
 Alpha virt. eigenvalues --    1.70061   1.70463   1.71251   1.71794   1.72513
 Alpha virt. eigenvalues --    1.73701   1.74197   1.75072   1.75872   1.77146
 Alpha virt. eigenvalues --    1.77502   1.78320   1.79346   1.79628   1.80790
 Alpha virt. eigenvalues --    1.81144   1.82058   1.82362   1.82619   1.84859
 Alpha virt. eigenvalues --    1.85387   1.85805   1.86221   1.87687   1.88785
 Alpha virt. eigenvalues --    1.89366   1.89519   1.91362   1.91377   1.92401
 Alpha virt. eigenvalues --    1.92453   1.92978   1.93762   1.95757   1.96033
 Alpha virt. eigenvalues --    1.96403   1.97965   1.99705   1.99979   2.00970
 Alpha virt. eigenvalues --    2.02810   2.03251   2.05569   2.06284   2.07064
 Alpha virt. eigenvalues --    2.08835   2.09943   2.11189   2.12509   2.13745
 Alpha virt. eigenvalues --    2.14826   2.15213   2.15741   2.17805   2.18226
 Alpha virt. eigenvalues --    2.19209   2.19977   2.20461   2.21958   2.22840
 Alpha virt. eigenvalues --    2.23892   2.24969   2.26971   2.27474   2.28675
 Alpha virt. eigenvalues --    2.29425   2.30182   2.31601   2.32552   2.33769
 Alpha virt. eigenvalues --    2.34510   2.35503   2.36310   2.37799   2.38663
 Alpha virt. eigenvalues --    2.40040   2.40895   2.42162   2.43264   2.46288
 Alpha virt. eigenvalues --    2.46449   2.48112   2.49899   2.50373   2.50959
 Alpha virt. eigenvalues --    2.52951   2.53979   2.54626   2.55049   2.55514
 Alpha virt. eigenvalues --    2.56398   2.57369   2.57880   2.58779   2.60888
 Alpha virt. eigenvalues --    2.62044   2.62897   2.64712   2.64882   2.66368
 Alpha virt. eigenvalues --    2.71354   2.73364   2.74760   2.79107   2.82842
 Alpha virt. eigenvalues --    2.84956   2.86106   2.88097   2.90265   2.92545
 Alpha virt. eigenvalues --    2.92807   2.93737   2.99211   3.00687   3.03767
 Alpha virt. eigenvalues --    3.67584   3.75385   3.75628   3.81349   3.84133
 Alpha virt. eigenvalues --    3.85787   3.94311   3.96492   3.98180   4.03724
 Alpha virt. eigenvalues --    4.04303   4.07579   4.09741   4.12047   4.16081
 Alpha virt. eigenvalues --    4.17842   4.19605   4.19925   4.21536   4.26516
 Alpha virt. eigenvalues --    4.28402   4.34200   4.39017   4.40980   4.44158
 Alpha virt. eigenvalues --    4.48875   4.52841   4.54462   4.61969
          Condensed to atoms (all electrons):
 Mulliken charges:
               1
     1  N   -0.759756
     2  C   -0.130282
     3  C    0.634321
     4  O   -0.496458
     5  C   -0.300728
     6  C   -0.390684
     7  C    0.608948
     8  O   -0.482736
     9  O   -0.571181
    10  H    0.461717
    11  H    0.441821
    12  H    0.194698
    13  H    0.180999
    14  H    0.218718
    15  H    0.210281
    16  H    0.204224
    17  H    0.411726
    18  H    0.434089
    19  N   -0.602007
    20  C   -0.069800
    21  C    0.620820
    22  O   -0.554002
    23  C   -0.302019
    24  C   -0.104962
    25  C   -0.473509
    26  C   -0.449236
    27  H    0.365598
    28  H    0.177093
    29  H    0.170366
    30  H    0.174880
    31  H    0.120547
    32  H    0.169107
    33  H    0.179745
    34  H    0.131897
    35  H    0.173250
    36  H    0.160871
    37  H    0.159628
    38  N   -0.630559
    39  C   -0.113331
    40  C    0.614967
    41  O   -0.421789
    42  C   -0.268071
    43  C   -0.324921
    44  C   -0.163880
    45  N   -0.647025
    46  C    0.549218
    47  N   -0.585522
    48  N   -0.830496
    49  O   -0.557333
    50  H    0.430580
    51  H    0.374167
    52  H    0.220897
    53  H    0.140519
    54  H    0.195280
    55  H    0.208789
    56  H    0.174538
    57  H    0.180452
    58  H    0.144899
    59  H    0.375415
    60  H    0.308670
    61  H    0.368937
    62  H    0.337616
 Sum of Mulliken charges =   1.00000
 Mulliken charges with hydrogens summed into heavy atoms:
               1
     1  N    0.527880
     2  C    0.064416
     3  C    0.634321
     4  O   -0.496458
     5  C    0.098990
     6  C    0.023822
     7  C    0.608948
     8  O   -0.482736
     9  O   -0.109464
    19  N   -0.236409
    20  C    0.107293
    21  C    0.620820
    22  O   -0.554002
    23  C    0.043227
    24  C    0.015585
    25  C    0.007240
    26  C    0.044513
    38  N   -0.256393
    39  C    0.107566
    40  C    0.614967
    41  O   -0.421789
    42  C    0.067728
    43  C    0.058406
    44  C    0.161471
    45  N   -0.271610
    46  C    0.549218
    47  N   -0.276852
    48  N   -0.123943
    49  O   -0.126753
 Electronic spatial extent (au):  <R**2>=         509157.1623
 Charge=              1.0000 electrons
 Dipole moment (field-independent basis, Debye):
    X=             56.2006    Y=             75.8973    Z=             64.4167  Tot=            114.3171
 Quadrupole moment (field-independent basis, Debye-Ang):
   XX=            498.5112   YY=           1028.8245   ZZ=            715.2114
   XY=            891.1195   XZ=            758.9363   YZ=           1038.2791
 Traceless Quadrupole moment (field-independent basis, Debye-Ang):
   XX=           -249.0046   YY=            281.3088   ZZ=            -32.3043
   XY=            891.1195   XZ=            758.9363   YZ=           1038.2791
 Octapole moment (field-independent basis, Debye-Ang**2):
  XXX=           2074.2269  YYY=           9870.4906  ZZZ=           5634.6583  XYY=          12041.1612
  XXY=           7669.1016  XXZ=           6792.8714  XZZ=           8555.9747  YZZ=          11565.9262
  YYZ=          14473.3687  XYZ=          12299.4938
 Hexadecapole moment (field-independent basis, Debye-Ang**3):
 XXXX=         -45924.6159 YYYY=         -29024.9695 ZZZZ=          -7449.6827 XXXY=          24038.7845
 XXXZ=          29070.0061 YYYX=         112600.3387 YYYZ=         149015.9174 ZZZX=          70228.9708
 ZZZY=          88370.4527 XXYY=          90409.5012 XXZZ=          72052.6764 YYZZ=         155141.7337
 XXYZ=         107827.4111 YYXZ=         171473.9355 ZZXY=         139534.7597
 N-N= 3.317103023198D+03 E-N=-9.979132242855D+03  KE= 1.434110793521D+03
 Unable to Open any file for archive entry.
 1\1\GINC-SKL-155\SP\RB3LYP\6-31G(d)\C17H33N6O6(1+)\KENGMITH\24-May-202
 2\0\\# B3LYP/6-31G* empiricaldispersion=gd3 guess=read geom=check nosy
 mm integral(ultrafinegrid)\\Candidate Structure: Conf:474 Charge calc 
 in gas phase\\1,1\N,0,13.1286312289,15.0070131956,11.3434484003\C,0,12
 .2890717964,14.9438049157,12.5949900104\C,0,13.297581504,14.5995445834
 ,13.7088401824\O,0,13.9642835923,13.5842122175,13.5582482123\C,0,11.20
 0724927,13.8660897408,12.5211847455\C,0,10.2091420699,13.9729234847,11
 .3275343729\C,0,10.0488019959,15.3932033591,10.799478552\O,0,10.904722
 8821,15.8928992018,10.0775084731\O,0,8.9846331843,16.1029394125,11.153
 0280712\H,0,8.6078672112,15.833350156,12.0478177788\H,0,13.7909454735,
 15.7939828344,11.4738043027\H,0,11.8367820769,15.9312091375,12.6918604
 284\H,0,10.6516594862,13.9280408848,13.4672119784\H,0,11.6774833855,12
 .881460425,12.5172036573\H,0,10.5830728193,13.3859917451,10.4833715247
 \H,0,9.2458989827,13.5441858757,11.615741192\H,0,13.6636626607,14.1346
 179304,11.2500119825\H,0,12.5110531317,15.1977702614,10.5236446772\N,0
 ,13.3649215201,15.4043200014,14.7991694825\C,0,12.9328809747,16.797501
 0212,14.884100303\C,0,13.4062472072,17.5930701086,13.6400435336\O,0,14
 .1864630694,17.1189652613,12.808308058\C,0,13.4594042228,17.3728400887
 ,16.2239298862\C,0,12.907332056,18.7318269598,16.7016478441\C,0,11.375
 6685739,18.7369808577,16.824741086\C,0,13.5548244135,19.0840715086,18.
 0506392214\H,0,14.0988795982,15.1192696078,15.4410095007\H,0,11.836174
 2865,16.836934133,14.8904110787\H,0,14.5549113761,17.4217085477,16.164
 0386364\H,0,13.2154025125,16.627597414,16.9928921839\H,0,13.2065201575
 ,19.5129345447,15.9898525756\H,0,11.0388720818,17.9613804297,17.523266
 2547\H,0,11.0248584126,19.7003679852,17.2081900014\H,0,10.8530564129,1
 8.557316402,15.8765933346\H,0,13.2226145382,20.0695004075,18.391851109
 1\H,0,13.2784039887,18.3525379906,18.8195504008\H,0,14.6480247924,19.1
 036341322,17.97931659\N,0,12.8698571227,18.8294153602,13.5230196385\C,
 0,12.9921630043,19.6388525322,12.3031155731\C,0,13.2246729429,21.11769
 00703,12.6683971057\O,0,12.824262613,22.0255269044,11.9884664029\C,0,1
 1.8284498509,19.4388053272,11.3154827087\C,0,10.4631657311,20.04717279
 86,11.6857458545\C,0,9.8174024196,19.6194159987,13.0090088126\N,0,9.72
 86242423,18.1567564939,13.1218987549\C,0,8.831585966,17.603879962,14.0
 346358002\N,0,8.1828492273,18.1491629249,14.9833871451\N,0,8.681003199
 5,16.1762956049,13.8399634702\O,0,13.9376605016,21.3365971545,13.79610
 06007\H,0,14.2135839486,20.4862252327,14.1811920574\H,0,12.103781447,1
 9.0538088072,14.1435808238\H,0,13.9126849131,19.2913681847,11.82028690
 6\H,0,11.7375747158,18.3624841273,11.1226532454\H,0,12.1360846323,19.8
 951882093,10.3694223301\H,0,10.5532372981,21.1364420666,11.6972714041\
 H,0,9.7683305007,19.8008387514,10.872705583\H,0,8.8171218314,20.072870
 2629,13.0618639424\H,0,10.3711865584,20.0176409117,13.8711279483\H,0,9
 .6625244686,17.711771297,12.2097311045\H,0,8.2741338676,19.1653122569,
 14.9981544818\H,0,7.9180985673,15.8792773279,14.4491799555\H,0,9.52274
 64867,15.6987064299,14.1646849275\\Version=ES64L-G16RevC.01\HF=-1447.4
 636099\RMSD=5.925e-09\Dipole=-0.1766737,-3.1331759,0.0597729\Quadrupol
 e=-185.1287808,209.1462262,-24.0174455,662.5254781,564.2505207,771.935
 0943\PG=C01 [X(C17H33N6O6)]\\@
 The archive entry for this job was punched.


 I DON'T EXACTLY UNDERSTAND WHAT YOU ARE SAYING,
 BUT YOU ARE ABSOLUTELY RIGHT.
     M.S.GORDON, IN A NDSU FACULTY MEETING
 Job cpu time:       0 days  0 hours  1 minutes 14.1 seconds.
 Elapsed time:       0 days  0 hours  0 minutes 19.0 seconds.
 File lengths (MBytes):  RWF=    248 Int=      0 D2E=      0 Chk=     32 Scr=     16
 Normal termination of Gaussian 16 at Tue May 24 03:34:03 2022.
