 Entering Gaussian System, Link 0=/opt/software/Gaussian/g16-AVX2-C.01/g16/g16
 Input=charge-conf-472.com
 Output=charge-conf-472.log
 Initial command:
 /opt/software/Gaussian/g16-AVX2-C.01/g16/l1.exe "/mnt/gs18/scratch/users/kengmith/Gau-10943.inp" -scrdir="/mnt/gs18/scratch/users/kengmith/"
 Entering Link 1 = /opt/software/Gaussian/g16-AVX2-C.01/g16/l1.exe PID=     10953.
  
 Copyright (c) 1988-2019, Gaussian, Inc.  All Rights Reserved.
  
 This is part of the Gaussian(R) 16 program.  It is based on
 the Gaussian(R) 09 system (copyright 2009, Gaussian, Inc.),
 the Gaussian(R) 03 system (copyright 2003, Gaussian, Inc.),
 the Gaussian(R) 98 system (copyright 1998, Gaussian, Inc.),
 the Gaussian(R) 94 system (copyright 1995, Gaussian, Inc.),
 the Gaussian 92(TM) system (copyright 1992, Gaussian, Inc.),
 the Gaussian 90(TM) system (copyright 1990, Gaussian, Inc.),
 the Gaussian 88(TM) system (copyright 1988, Gaussian, Inc.),
 the Gaussian 86(TM) system (copyright 1986, Carnegie Mellon
 University), and the Gaussian 82(TM) system (copyright 1983,
 Carnegie Mellon University). Gaussian is a federally registered
 trademark of Gaussian, Inc.
  
 This software contains proprietary and confidential information,
 including trade secrets, belonging to Gaussian, Inc.
  
 This software is provided under written license and may be
 used, copied, transmitted, or stored only in accord with that
 written license.
  
 The following legend is applicable only to US Government
 contracts under FAR:
  
                    RESTRICTED RIGHTS LEGEND
  
 Use, reproduction and disclosure by the US Government is
 subject to restrictions as set forth in subparagraphs (a)
 and (c) of the Commercial Computer Software - Restricted
 Rights clause in FAR 52.227-19.
  
 Gaussian, Inc.
 340 Quinnipiac St., Bldg. 40, Wallingford CT 06492
  
  
 ---------------------------------------------------------------
 Warning -- This program may not be used in any manner that
 competes with the business of Gaussian, Inc. or will provide
 assistance to any competitor of Gaussian, Inc.  The licensee
 of this program is prohibited from giving any competitor of
 Gaussian, Inc. access to this program.  By using this program,
 the user acknowledges that Gaussian, Inc. is engaged in the
 business of creating and licensing software in the field of
 computational chemistry and represents and warrants to the
 licensee that it is not a competitor of Gaussian, Inc. and that
 it will not use this program in any manner prohibited above.
 ---------------------------------------------------------------
  

 Cite this work as:
 Gaussian 16, Revision C.01,
 M. J. Frisch, G. W. Trucks, H. B. Schlegel, G. E. Scuseria, 
 M. A. Robb, J. R. Cheeseman, G. Scalmani, V. Barone, 
 G. A. Petersson, H. Nakatsuji, X. Li, M. Caricato, A. V. Marenich, 
 J. Bloino, B. G. Janesko, R. Gomperts, B. Mennucci, H. P. Hratchian, 
 J. V. Ortiz, A. F. Izmaylov, J. L. Sonnenberg, D. Williams-Young, 
 F. Ding, F. Lipparini, F. Egidi, J. Goings, B. Peng, A. Petrone, 
 T. Henderson, D. Ranasinghe, V. G. Zakrzewski, J. Gao, N. Rega, 
 G. Zheng, W. Liang, M. Hada, M. Ehara, K. Toyota, R. Fukuda, 
 J. Hasegawa, M. Ishida, T. Nakajima, Y. Honda, O. Kitao, H. Nakai, 
 T. Vreven, K. Throssell, J. A. Montgomery, Jr., J. E. Peralta, 
 F. Ogliaro, M. J. Bearpark, J. J. Heyd, E. N. Brothers, K. N. Kudin, 
 V. N. Staroverov, T. A. Keith, R. Kobayashi, J. Normand, 
 K. Raghavachari, A. P. Rendell, J. C. Burant, S. S. Iyengar, 
 J. Tomasi, M. Cossi, J. M. Millam, M. Klene, C. Adamo, R. Cammi, 
 J. W. Ochterski, R. L. Martin, K. Morokuma, O. Farkas, 
 J. B. Foresman, and D. J. Fox, Gaussian, Inc., Wallingford CT, 2019.
 
 ******************************************
 Gaussian 16:  ES64L-G16RevC.01  3-Jul-2019
                24-May-2022 
 ******************************************
 %mem=8gb
 %nproc=4
 Will use up to    4 processors via shared memory.
 %chk=conf-472.chk
 ----------------------------------------------------------------------
 # B3LYP/6-31G* empiricaldispersion=gd3 guess=read geom=check nosymm in
 tegral(ultrafinegrid)
 ----------------------------------------------------------------------
 1/29=2,38=1,172=1/1;
 2/12=2,15=1,40=1/2;
 3/5=1,6=6,7=1,11=2,14=-4,25=1,30=1,74=-5,75=-5,116=-2,124=31/1,2,3;
 4/5=1/1;
 5/5=2,38=6/2;
 6/7=2,8=2,9=2,10=2,28=1/1;
 99/5=1,9=1/99;
 ------------------------------------------------------
 Candidate Structure: Conf:472 Charge calc in gas phase
 ------------------------------------------------------
 Structure from the checkpoint file:  "conf-472.chk"
 Charge =  1 Multiplicity = 1
 Redundant internal coordinates found in file.  (old form).
 N,0,12.9906463574,16.569243176,10.4402039195
 C,0,12.5610304178,15.8931323553,11.7197555363
 C,0,13.9139330971,15.4855271757,12.3440600541
 O,0,14.6564208922,14.8081302932,11.6404532851
 C,0,11.6708842221,14.6601195301,11.5151475187
 C,0,10.4559868818,14.7666739829,10.5457809841
 C,0,9.8437043271,16.1465839316,10.3327379972
 O,0,10.4689630824,17.0444768786,9.7767663599
 O,0,8.5865098426,16.3740543312,10.6839867246
 H,0,8.259925683,15.7860173024,11.4021879262
 H,0,13.4784436864,17.4389708802,10.7060024231
 H,0,12.0139223127,16.6468190222,12.2786895744
 H,0,11.3021814239,14.4217844513,12.5180864798
 H,0,12.2950494512,13.8237597972,11.1881326748
 H,0,10.7683539804,14.4579074339,9.5413246163
 H,0,9.6964474053,14.0478866702,10.8648586685
 H,0,13.652183916,15.9538462999,9.9491595886
 H,0,12.1380615775,16.7985328946,9.8693963618
 N,0,14.2430386949,15.8965482131,13.5882930281
 C,0,13.5651481062,16.856414032,14.4482164776
 C,0,13.3013025447,18.1986377151,13.7024082341
 O,0,13.7322506494,18.438278514,12.5753896521
 C,0,14.4284567026,17.005379421,15.7293248077
 C,0,13.8380654655,17.7431687404,16.9494939091
 C,0,12.4768842387,17.1780267595,17.3911638332
 C,0,14.8451128182,17.6612321224,18.1090018808
 H,0,15.1873929654,15.6295179362,13.8478791322
 H,0,12.5872472276,16.4428828439,14.7241594775
 H,0,15.3771818553,17.4788011478,15.444946647
 H,0,14.665870368,15.9822946617,16.0509448289
 H,0,13.7249116128,18.8093238557,16.707869518
 H,0,12.5448248926,16.0981065394,17.5710709477
 H,0,12.1444572085,17.6531852612,18.3187211565
 H,0,11.6760481097,17.3432267613,16.6554203791
 H,0,14.4893907493,18.2354300768,18.9700035785
 H,0,14.985886777,16.6224994691,18.4317511438
 H,0,15.8223547209,18.0614805604,17.8181592382
 N,0,12.4397667693,19.0099817069,14.37186118
 C,0,12.0639586511,20.3924099054,14.0155878399
 C,0,11.0708777425,20.9407531329,15.0683313104
 O,0,11.1016822593,22.104616338,15.3680649033
 C,0,11.5366698981,20.6016594871,12.5727096191
 C,0,10.6160076522,19.5513860258,11.9265504725
 C,0,9.3625683848,19.0734034192,12.6755791497
 N,0,9.7112184477,18.0714132411,13.7164134055
 C,0,9.0513711995,16.8368117281,13.7941985445
 N,0,7.9011584846,16.5070961478,13.3359137702
 N,0,9.8500312132,15.8554339193,14.4159955666
 O,0,10.2079148626,20.0794210579,15.6549004687
 H,0,10.0114056417,19.280389049,15.1077465701
 H,0,12.2875021122,18.785357022,15.347012878
 H,0,12.9423940297,21.0350153333,14.1260107598
 H,0,12.4069953986,20.7006202428,11.9186263015
 H,0,11.0414128665,21.5794976499,12.5823229883
 H,0,10.2817019479,19.9740132336,10.9728697219
 H,0,11.2043509552,18.669507293,11.6507809618
 H,0,8.6933485225,18.6081277708,11.9470132685
 H,0,8.8287721645,19.9104982324,13.1383168774
 H,0,10.7167239279,17.9388911792,13.7613869268
 H,0,7.4297091623,17.2912300536,12.8853530131
 H,0,9.2862886961,15.0303004613,14.6054346619
 H,0,10.2684774558,16.1773019018,15.2857731078
 Recover connectivity data from disk.
                           ----------------------------
                           !    Current Parameters    !
                           ! (Angstroms and Degrees)  !
 --------------------------                            --------------------------
 ! Name  Definition              Value                                          !
 --------------------------------------------------------------------------------
 ! R1    R(1,2)                  1.5096                                         !
 ! R2    R(1,11)                 1.032                                          !
 ! R3    R(1,17)                 1.0283                                         !
 ! R4    R(1,18)                 1.0513                                         !
 ! R5    R(2,3)                  1.5447                                         !
 ! R6    R(2,5)                  1.5345                                         !
 ! R7    R(2,12)                 1.0862                                         !
 ! R8    R(3,4)                  1.2269                                         !
 ! R9    R(3,19)                 1.3511                                         !
 ! R10   R(5,6)                  1.5579                                         !
 ! R11   R(5,13)                 1.0948                                         !
 ! R12   R(5,14)                 1.0936                                         !
 ! R13   R(6,7)                  1.5246                                         !
 ! R14   R(6,15)                 1.0963                                         !
 ! R15   R(6,16)                 1.0933                                         !
 ! R16   R(7,8)                  1.2273                                         !
 ! R17   R(7,9)                  1.325                                          !
 ! R18   R(9,10)                 0.984                                          !
 ! R19   R(19,20)                1.4561                                         !
 ! R20   R(19,27)                1.0151                                         !
 ! R21   R(20,21)                1.558                                          !
 ! R22   R(20,23)                1.552                                          !
 ! R23   R(20,28)                1.097                                          !
 ! R24   R(21,22)                1.2302                                         !
 ! R25   R(21,38)                1.3597                                         !
 ! R26   R(23,24)                1.5433                                         !
 ! R27   R(23,29)                1.0978                                         !
 ! R28   R(23,30)                1.0984                                         !
 ! R29   R(24,25)                1.5386                                         !
 ! R30   R(24,26)                1.538                                          !
 ! R31   R(24,31)                1.099                                          !
 ! R32   R(25,32)                1.0969                                         !
 ! R33   R(25,33)                1.0939                                         !
 ! R34   R(25,34)                1.1                                            !
 ! R35   R(26,35)                1.0943                                         !
 ! R36   R(26,36)                1.0968                                         !
 ! R37   R(26,37)                1.0953                                         !
 ! R38   R(38,39)                1.4762                                         !
 ! R39   R(38,51)                1.0122                                         !
 ! R40   R(39,40)                1.5476                                         !
 ! R41   R(39,42)                1.5504                                         !
 ! R42   R(39,52)                1.094                                          !
 ! R43   R(40,41)                1.2022                                         !
 ! R44   R(40,49)                1.353                                          !
 ! R45   R(42,43)                1.5389                                         !
 ! R46   R(42,53)                1.0932                                         !
 ! R47   R(42,54)                1.0961                                         !
 ! R48   R(43,44)                1.5364                                         !
 ! R49   R(43,55)                1.0954                                         !
 ! R50   R(43,56)                1.0954                                         !
 ! R51   R(44,45)                1.4862                                         !
 ! R52   R(44,57)                1.0932                                         !
 ! R53   R(44,58)                1.0954                                         !
 ! R54   R(45,46)                1.402                                          !
 ! R55   R(45,59)                1.0152                                         !
 ! R56   R(46,47)                1.2813                                         !
 ! R57   R(46,48)                1.4098                                         !
 ! R58   R(47,60)                1.0199                                         !
 ! R59   R(48,61)                1.0171                                         !
 ! R60   R(48,62)                1.0175                                         !
 ! R61   R(49,50)                0.9882                                         !
 ! A1    A(2,1,11)             107.077                                          !
 ! A2    A(2,1,17)             108.6505                                         !
 ! A3    A(2,1,18)             109.0919                                         !
 ! A4    A(11,1,17)            108.8599                                         !
 ! A5    A(11,1,18)            109.8375                                         !
 ! A6    A(17,1,18)            113.1384                                         !
 ! A7    A(1,2,3)              102.2096                                         !
 ! A8    A(1,2,5)              114.3277                                         !
 ! A9    A(1,2,12)             105.5893                                         !
 ! A10   A(3,2,5)              110.4826                                         !
 ! A11   A(3,2,12)             114.5993                                         !
 ! A12   A(5,2,12)             109.5113                                         !
 ! A13   A(2,3,4)              116.3556                                         !
 ! A14   A(2,3,19)             120.3484                                         !
 ! A15   A(4,3,19)             123.2781                                         !
 ! A16   A(2,5,6)              118.7115                                         !
 ! A17   A(2,5,13)             104.3674                                         !
 ! A18   A(2,5,14)             108.8633                                         !
 ! A19   A(6,5,13)             108.8006                                         !
 ! A20   A(6,5,14)             108.1391                                         !
 ! A21   A(13,5,14)            107.4363                                         !
 ! A22   A(5,6,7)              117.5186                                         !
 ! A23   A(5,6,15)             109.1867                                         !
 ! A24   A(5,6,16)             108.3728                                         !
 ! A25   A(7,6,15)             103.9641                                         !
 ! A26   A(7,6,16)             110.9052                                         !
 ! A27   A(15,6,16)            106.2706                                         !
 ! A28   A(6,7,8)              121.3905                                         !
 ! A29   A(6,7,9)              119.9592                                         !
 ! A30   A(8,7,9)              118.5466                                         !
 ! A31   A(7,9,10)             113.9412                                         !
 ! A32   A(3,19,20)            129.1234                                         !
 ! A33   A(3,19,27)            112.4625                                         !
 ! A34   A(20,19,27)           117.0949                                         !
 ! A35   A(19,20,21)           111.348                                          !
 ! A36   A(19,20,23)           106.9647                                         !
 ! A37   A(19,20,28)           108.3639                                         !
 ! A38   A(21,20,23)           113.9945                                         !
 ! A39   A(21,20,28)           107.1096                                         !
 ! A40   A(23,20,28)           108.9293                                         !
 ! A41   A(20,21,22)           123.1649                                         !
 ! A42   A(20,21,38)           112.6865                                         !
 ! A43   A(22,21,38)           123.8355                                         !
 ! A44   A(20,23,24)           119.0596                                         !
 ! A45   A(20,23,29)           107.9563                                         !
 ! A46   A(20,23,30)           105.8146                                         !
 ! A47   A(24,23,29)           109.2241                                         !
 ! A48   A(24,23,30)           107.2455                                         !
 ! A49   A(29,23,30)           106.9023                                         !
 ! A50   A(23,24,25)           112.9424                                         !
 ! A51   A(23,24,26)           108.6699                                         !
 ! A52   A(23,24,31)           109.2281                                         !
 ! A53   A(25,24,26)           110.078                                          !
 ! A54   A(25,24,31)           109.1685                                         !
 ! A55   A(26,24,31)           106.5499                                         !
 ! A56   A(24,25,32)           110.7265                                         !
 ! A57   A(24,25,33)           110.6529                                         !
 ! A58   A(24,25,34)           113.3862                                         !
 ! A59   A(32,25,33)           107.902                                          !
 ! A60   A(32,25,34)           107.6172                                         !
 ! A61   A(33,25,34)           106.3004                                         !
 ! A62   A(24,26,35)           110.6327                                         !
 ! A63   A(24,26,36)           110.8765                                         !
 ! A64   A(24,26,37)           111.3791                                         !
 ! A65   A(35,26,36)           107.886                                          !
 ! A66   A(35,26,37)           107.8899                                         !
 ! A67   A(36,26,37)           108.0405                                         !
 ! A68   A(21,38,39)           126.9619                                         !
 ! A69   A(21,38,51)           115.9277                                         !
 ! A70   A(39,38,51)           113.7048                                         !
 ! A71   A(38,39,40)           109.3285                                         !
 ! A72   A(38,39,42)           115.9491                                         !
 ! A73   A(38,39,52)           108.7417                                         !
 ! A74   A(40,39,42)           111.5309                                         !
 ! A75   A(40,39,52)           103.7961                                         !
 ! A76   A(42,39,52)           106.7233                                         !
 ! A77   A(39,40,41)           119.7458                                         !
 ! A78   A(39,40,49)           118.5946                                         !
 ! A79   A(41,40,49)           121.6373                                         !
 ! A80   A(39,42,43)           120.1405                                         !
 ! A81   A(39,42,53)           107.3545                                         !
 ! A82   A(39,42,54)           105.4204                                         !
 ! A83   A(43,42,53)           106.6693                                         !
 ! A84   A(43,42,54)           110.011                                          !
 ! A85   A(53,42,54)           106.5108                                         !
 ! A86   A(42,43,44)           119.7152                                         !
 ! A87   A(42,43,55)           106.5487                                         !
 ! A88   A(42,43,56)           109.5013                                         !
 ! A89   A(44,43,55)           107.187                                          !
 ! A90   A(44,43,56)           108.0863                                         !
 ! A91   A(55,43,56)           104.7945                                         !
 ! A92   A(43,44,45)           111.0862                                         !
 ! A93   A(43,44,57)           107.873                                          !
 ! A94   A(43,44,58)           111.4551                                         !
 ! A95   A(45,44,57)           108.868                                          !
 ! A96   A(45,44,58)           109.4932                                         !
 ! A97   A(57,44,58)           107.9673                                         !
 ! A98   A(44,45,46)           121.4746                                         !
 ! A99   A(44,45,59)           110.5716                                         !
 ! A100  A(46,45,59)           110.41                                           !
 ! A101  A(45,46,47)           128.9943                                         !
 ! A102  A(45,46,48)           111.7667                                         !
 ! A103  A(47,46,48)           119.1544                                         !
 ! A104  A(46,47,60)           112.0327                                         !
 ! A105  A(46,48,61)           109.4431                                         !
 ! A106  A(46,48,62)           112.9424                                         !
 ! A107  A(61,48,62)           108.9876                                         !
 ! A108  A(40,49,50)           113.6751                                         !
 ! D1    D(11,1,2,3)           -67.4831                                         !
 ! D2    D(11,1,2,5)           173.1279                                         !
 ! D3    D(11,1,2,12)           52.6852                                         !
 ! D4    D(17,1,2,3)            49.9422                                         !
 ! D5    D(17,1,2,5)           -69.4468                                         !
 ! D6    D(17,1,2,12)          170.1105                                         !
 ! D7    D(18,1,2,3)           173.7009                                         !
 ! D8    D(18,1,2,5)            54.3119                                         !
 ! D9    D(18,1,2,12)          -66.1308                                         !
 ! D10   D(1,2,3,4)            -54.7924                                         !
 ! D11   D(1,2,3,19)           123.7137                                         !
 ! D12   D(5,2,3,4)             67.2646                                         !
 ! D13   D(5,2,3,19)          -114.2294                                         !
 ! D14   D(12,2,3,4)          -168.4625                                         !
 ! D15   D(12,2,3,19)           10.0436                                         !
 ! D16   D(1,2,5,6)            -48.0715                                         !
 ! D17   D(1,2,5,13)          -169.3784                                         !
 ! D18   D(1,2,5,14)            76.1406                                         !
 ! D19   D(3,2,5,6)           -162.694                                          !
 ! D20   D(3,2,5,13)            75.999                                          !
 ! D21   D(3,2,5,14)           -38.482                                          !
 ! D22   D(12,2,5,6)            70.1638                                         !
 ! D23   D(12,2,5,13)          -51.1431                                         !
 ! D24   D(12,2,5,14)         -165.6242                                         !
 ! D25   D(2,3,19,20)           -8.6864                                         !
 ! D26   D(2,3,19,27)         -174.9934                                         !
 ! D27   D(4,3,19,20)          169.7124                                         !
 ! D28   D(4,3,19,27)            3.4054                                         !
 ! D29   D(2,5,6,7)            -26.2432                                         !
 ! D30   D(2,5,6,15)            91.7516                                         !
 ! D31   D(2,5,6,16)          -152.8976                                         !
 ! D32   D(13,5,6,7)            92.7918                                         !
 ! D33   D(13,5,6,15)         -149.2134                                         !
 ! D34   D(13,5,6,16)          -33.8626                                         !
 ! D35   D(14,5,6,7)          -150.8093                                         !
 ! D36   D(14,5,6,15)          -32.8145                                         !
 ! D37   D(14,5,6,16)           82.5363                                         !
 ! D38   D(5,6,7,8)             66.1557                                         !
 ! D39   D(5,6,7,9)           -117.6005                                         !
 ! D40   D(15,6,7,8)           -54.602                                          !
 ! D41   D(15,6,7,9)           121.6418                                         !
 ! D42   D(16,6,7,8)          -168.4324                                         !
 ! D43   D(16,6,7,9)             7.8113                                         !
 ! D44   D(6,7,9,10)            25.9122                                         !
 ! D45   D(8,7,9,10)          -157.7379                                         !
 ! D46   D(3,19,20,21)         -51.5096                                         !
 ! D47   D(3,19,20,23)        -176.6583                                         !
 ! D48   D(3,19,20,28)          66.0433                                         !
 ! D49   D(27,19,20,21)        114.2656                                         !
 ! D50   D(27,19,20,23)        -10.8831                                         !
 ! D51   D(27,19,20,28)       -128.1815                                         !
 ! D52   D(19,20,21,22)         -6.3698                                         !
 ! D53   D(19,20,21,38)        167.421                                          !
 ! D54   D(23,20,21,22)        114.7536                                         !
 ! D55   D(23,20,21,38)        -71.4556                                         !
 ! D56   D(28,20,21,22)       -124.6794                                         !
 ! D57   D(28,20,21,38)         49.1114                                         !
 ! D58   D(19,20,23,24)       -168.2015                                         !
 ! D59   D(19,20,23,29)         66.6254                                         !
 ! D60   D(19,20,23,30)        -47.5445                                         !
 ! D61   D(21,20,23,24)         68.2682                                         !
 ! D62   D(21,20,23,29)        -56.905                                          !
 ! D63   D(21,20,23,30)       -171.0749                                         !
 ! D64   D(28,20,23,24)        -51.2757                                         !
 ! D65   D(28,20,23,29)       -176.4489                                         !
 ! D66   D(28,20,23,30)         69.3812                                         !
 ! D67   D(20,21,38,39)        174.2334                                         !
 ! D68   D(20,21,38,51)         16.5204                                         !
 ! D69   D(22,21,38,39)        -12.0242                                         !
 ! D70   D(22,21,38,51)       -169.7373                                         !
 ! D71   D(20,23,24,25)         53.4173                                         !
 ! D72   D(20,23,24,26)        175.8645                                         !
 ! D73   D(20,23,24,31)        -68.2681                                         !
 ! D74   D(29,23,24,25)        177.9784                                         !
 ! D75   D(29,23,24,26)        -59.5744                                         !
 ! D76   D(29,23,24,31)         56.293                                          !
 ! D77   D(30,23,24,25)        -66.5127                                         !
 ! D78   D(30,23,24,26)         55.9344                                         !
 ! D79   D(30,23,24,31)        171.8018                                         !
 ! D80   D(23,24,25,32)         54.2971                                         !
 ! D81   D(23,24,25,33)        173.8918                                         !
 ! D82   D(23,24,25,34)        -66.7807                                         !
 ! D83   D(26,24,25,32)        -67.3592                                         !
 ! D84   D(26,24,25,33)         52.2355                                         !
 ! D85   D(26,24,25,34)        171.563                                          !
 ! D86   D(31,24,25,32)        176.0161                                         !
 ! D87   D(31,24,25,33)        -64.3892                                         !
 ! D88   D(31,24,25,34)         54.9383                                         !
 ! D89   D(23,24,26,35)        175.9987                                         !
 ! D90   D(23,24,26,36)        -64.3423                                         !
 ! D91   D(23,24,26,37)         56.0054                                         !
 ! D92   D(25,24,26,35)        -59.8357                                         !
 ! D93   D(25,24,26,36)         59.8233                                         !
 ! D94   D(25,24,26,37)       -179.829                                          !
 ! D95   D(31,24,26,35)         58.4143                                         !
 ! D96   D(31,24,26,36)        178.0732                                         !
 ! D97   D(31,24,26,37)        -61.5791                                         !
 ! D98   D(21,38,39,40)       -179.1933                                         !
 ! D99   D(21,38,39,42)         53.7059                                         !
 ! D100  D(21,38,39,52)        -66.4956                                         !
 ! D101  D(51,38,39,40)        -21.0633                                         !
 ! D102  D(51,38,39,42)       -148.1641                                         !
 ! D103  D(51,38,39,52)         91.6344                                         !
 ! D104  D(38,39,40,41)        145.5557                                         !
 ! D105  D(38,39,40,49)        -32.752                                          !
 ! D106  D(42,39,40,41)        -84.8848                                         !
 ! D107  D(42,39,40,49)         96.8075                                         !
 ! D108  D(52,39,40,41)         29.6599                                         !
 ! D109  D(52,39,40,49)       -148.6478                                         !
 ! D110  D(38,39,42,43)         38.897                                          !
 ! D111  D(38,39,42,53)        -83.0385                                         !
 ! D112  D(38,39,42,54)        163.6912                                         !
 ! D113  D(40,39,42,43)        -87.097                                          !
 ! D114  D(40,39,42,53)        150.9676                                         !
 ! D115  D(40,39,42,54)         37.6973                                         !
 ! D116  D(52,39,42,43)        160.1837                                         !
 ! D117  D(52,39,42,53)         38.2482                                         !
 ! D118  D(52,39,42,54)        -75.0221                                         !
 ! D119  D(39,40,49,50)        -25.178                                          !
 ! D120  D(41,40,49,50)        156.5478                                         !
 ! D121  D(39,42,43,44)         51.5413                                         !
 ! D122  D(39,42,43,55)        173.1775                                         !
 ! D123  D(39,42,43,56)        -74.003                                          !
 ! D124  D(53,42,43,44)        173.811                                          !
 ! D125  D(53,42,43,55)        -64.5528                                         !
 ! D126  D(53,42,43,56)         48.2667                                         !
 ! D127  D(54,42,43,44)        -71.0527                                         !
 ! D128  D(54,42,43,55)         50.5835                                         !
 ! D129  D(54,42,43,56)        163.403                                          !
 ! D130  D(42,43,44,45)        -79.1446                                         !
 ! D131  D(42,43,44,57)        161.6124                                         !
 ! D132  D(42,43,44,58)         43.2543                                         !
 ! D133  D(55,43,44,45)        159.5353                                         !
 ! D134  D(55,43,44,57)         40.2923                                         !
 ! D135  D(55,43,44,58)        -78.0658                                         !
 ! D136  D(56,43,44,45)         47.0656                                         !
 ! D137  D(56,43,44,57)        -72.1775                                         !
 ! D138  D(56,43,44,58)        169.4644                                         !
 ! D139  D(43,44,45,46)       -128.6591                                         !
 ! D140  D(43,44,45,59)          3.1391                                         !
 ! D141  D(57,44,45,46)        -10.0136                                         !
 ! D142  D(57,44,45,59)        121.7846                                         !
 ! D143  D(58,44,45,46)        107.8124                                         !
 ! D144  D(58,44,45,59)       -120.3894                                         !
 ! D145  D(44,45,46,47)        -21.6434                                         !
 ! D146  D(44,45,46,48)        154.931                                          !
 ! D147  D(59,45,46,47)       -153.5091                                         !
 ! D148  D(59,45,46,48)         23.0654                                         !
 ! D149  D(45,46,47,60)         -1.9241                                         !
 ! D150  D(48,46,47,60)       -178.281                                          !
 ! D151  D(45,46,48,61)        169.8789                                         !
 ! D152  D(45,46,48,62)         48.2713                                         !
 ! D153  D(47,46,48,61)        -13.1693                                         !
 ! D154  D(47,46,48,62)       -134.777                                          !
 --------------------------------------------------------------------------------
 Symmetry turned off by external request.
 Stoichiometry    C17H33N6O6(1+)
 Framework group  C1[X(C17H33N6O6)]
 Deg. of freedom   180
 Full point group                 C1      NOp   1
                          Input orientation:                          
 ---------------------------------------------------------------------
 Center     Atomic      Atomic             Coordinates (Angstroms)
 Number     Number       Type             X           Y           Z
 ---------------------------------------------------------------------
      1          7           0       12.990646   16.569243   10.440204
      2          6           0       12.561030   15.893132   11.719756
      3          6           0       13.913933   15.485527   12.344060
      4          8           0       14.656421   14.808130   11.640453
      5          6           0       11.670884   14.660120   11.515148
      6          6           0       10.455987   14.766674   10.545781
      7          6           0        9.843704   16.146584   10.332738
      8          8           0       10.468963   17.044477    9.776766
      9          8           0        8.586510   16.374054   10.683987
     10          1           0        8.259926   15.786017   11.402188
     11          1           0       13.478444   17.438971   10.706002
     12          1           0       12.013922   16.646819   12.278690
     13          1           0       11.302181   14.421784   12.518086
     14          1           0       12.295049   13.823760   11.188133
     15          1           0       10.768354   14.457907    9.541325
     16          1           0        9.696447   14.047887   10.864859
     17          1           0       13.652184   15.953846    9.949160
     18          1           0       12.138062   16.798533    9.869396
     19          7           0       14.243039   15.896548   13.588293
     20          6           0       13.565148   16.856414   14.448216
     21          6           0       13.301303   18.198638   13.702408
     22          8           0       13.732251   18.438279   12.575390
     23          6           0       14.428457   17.005379   15.729325
     24          6           0       13.838065   17.743169   16.949494
     25          6           0       12.476884   17.178027   17.391164
     26          6           0       14.845113   17.661232   18.109002
     27          1           0       15.187393   15.629518   13.847879
     28          1           0       12.587247   16.442883   14.724159
     29          1           0       15.377182   17.478801   15.444947
     30          1           0       14.665870   15.982295   16.050945
     31          1           0       13.724912   18.809324   16.707870
     32          1           0       12.544825   16.098107   17.571071
     33          1           0       12.144457   17.653185   18.318721
     34          1           0       11.676048   17.343227   16.655420
     35          1           0       14.489391   18.235430   18.970004
     36          1           0       14.985887   16.622499   18.431751
     37          1           0       15.822355   18.061481   17.818159
     38          7           0       12.439767   19.009982   14.371861
     39          6           0       12.063959   20.392410   14.015588
     40          6           0       11.070878   20.940753   15.068331
     41          8           0       11.101682   22.104616   15.368065
     42          6           0       11.536670   20.601659   12.572710
     43          6           0       10.616008   19.551386   11.926550
     44          6           0        9.362568   19.073403   12.675579
     45          7           0        9.711218   18.071413   13.716413
     46          6           0        9.051371   16.836812   13.794199
     47          7           0        7.901158   16.507096   13.335914
     48          7           0        9.850031   15.855434   14.415996
     49          8           0       10.207915   20.079421   15.654900
     50          1           0       10.011406   19.280389   15.107747
     51          1           0       12.287502   18.785357   15.347013
     52          1           0       12.942394   21.035015   14.126011
     53          1           0       12.406995   20.700620   11.918626
     54          1           0       11.041413   21.579498   12.582323
     55          1           0       10.281702   19.974013   10.972870
     56          1           0       11.204351   18.669507   11.650781
     57          1           0        8.693349   18.608128   11.947013
     58          1           0        8.828772   19.910498   13.138317
     59          1           0       10.716724   17.938891   13.761387
     60          1           0        7.429709   17.291230   12.885353
     61          1           0        9.286289   15.030300   14.605435
     62          1           0       10.268477   16.177302   15.285773
 ---------------------------------------------------------------------
 Rotational constants (GHZ):           0.1930061           0.1471836           0.1132965
 Standard basis: 6-31G(d) (6D, 7F)
   501 basis functions,   944 primitive gaussians,   501 cartesian basis functions
   112 alpha electrons      112 beta electrons
       nuclear repulsion energy      3334.4346742499 Hartrees.
 NAtoms=   62 NActive=   62 NUniq=   62 SFac= 1.00D+00 NAtFMM=   60 NAOKFM=T Big=T
 Integral buffers will be    131072 words long.
 Raffenetti 2 integral format.
 Two-electron integral symmetry is turned off.
 Nuclear repulsion after empirical dispersion term =     3334.3383175055 Hartrees.
 One-electron integrals computed using PRISM.
 NBasis=   501 RedAO= T EigKep=  1.68D-03  NBF=   501
 NBsUse=   501 1.00D-06 EigRej= -1.00D+00 NBFU=   501
 Initial guess from the checkpoint file:  "conf-472.chk"
 B after Tr=     0.000000    0.000000    0.000000
         Rot=    1.000000    0.000000    0.000000    0.000000 Ang=   0.00 deg.
 Requested convergence on RMS density matrix=1.00D-08 within 128 cycles.
 Requested convergence on MAX density matrix=1.00D-06.
 Requested convergence on             energy=1.00D-06.
 No special actions if energy rises.
 SCF Done:  E(RB3LYP) =  -1447.45378720     A.U. after    1 cycles
            NFock=  1  Conv=0.79D-08     -V/T= 2.0093

 **********************************************************************

            Population analysis using the SCF Density.

 **********************************************************************

 Alpha  occ. eigenvalues --  -19.32988 -19.28875 -19.28618 -19.27378 -19.26067
 Alpha  occ. eigenvalues --  -19.23513 -14.58069 -14.51155 -14.50703 -14.49184
 Alpha  occ. eigenvalues --  -14.48171 -14.42646 -10.47045 -10.44187 -10.43830
 Alpha  occ. eigenvalues --  -10.42270 -10.42154 -10.40583 -10.38601 -10.36428
 Alpha  occ. eigenvalues --  -10.35130 -10.35055 -10.34606 -10.32733 -10.31979
 Alpha  occ. eigenvalues --  -10.31351 -10.31088 -10.30167 -10.28079  -1.24536
 Alpha  occ. eigenvalues --   -1.19837  -1.19243  -1.18347  -1.16199  -1.12848
 Alpha  occ. eigenvalues --   -1.11946  -1.11272  -1.07537  -1.07227  -1.02362
 Alpha  occ. eigenvalues --   -0.98164  -0.95285  -0.94409  -0.92075  -0.88941
 Alpha  occ. eigenvalues --   -0.88185  -0.86053  -0.81085  -0.80318  -0.79702
 Alpha  occ. eigenvalues --   -0.78131  -0.75970  -0.74862  -0.74132  -0.73146
 Alpha  occ. eigenvalues --   -0.72540  -0.71252  -0.71076  -0.70191  -0.68819
 Alpha  occ. eigenvalues --   -0.68023  -0.67649  -0.66092  -0.64626  -0.63774
 Alpha  occ. eigenvalues --   -0.63428  -0.62979  -0.62210  -0.61315  -0.61101
 Alpha  occ. eigenvalues --   -0.59636  -0.59163  -0.59012  -0.58361  -0.57481
 Alpha  occ. eigenvalues --   -0.57118  -0.56791  -0.56194  -0.55893  -0.55266
 Alpha  occ. eigenvalues --   -0.54792  -0.54672  -0.54086  -0.53643  -0.53265
 Alpha  occ. eigenvalues --   -0.52864  -0.51901  -0.51431  -0.50970  -0.50573
 Alpha  occ. eigenvalues --   -0.50446  -0.49711  -0.49028  -0.48484  -0.48326
 Alpha  occ. eigenvalues --   -0.47129  -0.46708  -0.45601  -0.45470  -0.45277
 Alpha  occ. eigenvalues --   -0.45130  -0.44909  -0.42516  -0.41767  -0.41281
 Alpha  occ. eigenvalues --   -0.41267  -0.40484  -0.40282  -0.39903  -0.39325
 Alpha  occ. eigenvalues --   -0.37174  -0.36810
 Alpha virt. eigenvalues --   -0.14854  -0.14050  -0.13183  -0.10419  -0.09752
 Alpha virt. eigenvalues --   -0.09229  -0.07338  -0.05018  -0.04632  -0.03670
 Alpha virt. eigenvalues --   -0.03504  -0.01922  -0.01701  -0.01096  -0.00809
 Alpha virt. eigenvalues --   -0.00019   0.00062   0.00374   0.00772   0.01154
 Alpha virt. eigenvalues --    0.01707   0.02162   0.02210   0.02944   0.03201
 Alpha virt. eigenvalues --    0.03278   0.03865   0.04362   0.04441   0.04847
 Alpha virt. eigenvalues --    0.04947   0.05769   0.06122   0.06347   0.07063
 Alpha virt. eigenvalues --    0.07409   0.07786   0.08079   0.08678   0.09225
 Alpha virt. eigenvalues --    0.09397   0.10188   0.10564   0.11188   0.11373
 Alpha virt. eigenvalues --    0.12219   0.12396   0.13017   0.13784   0.13922
 Alpha virt. eigenvalues --    0.14503   0.15141   0.15704   0.16269   0.17736
 Alpha virt. eigenvalues --    0.19067   0.21347   0.21376   0.21961   0.24104
 Alpha virt. eigenvalues --    0.24596   0.24912   0.27414   0.27787   0.29596
 Alpha virt. eigenvalues --    0.30055   0.33121   0.34868   0.35604   0.36385
 Alpha virt. eigenvalues --    0.38217   0.38430   0.39175   0.39856   0.40381
 Alpha virt. eigenvalues --    0.40893   0.41412   0.41985   0.42505   0.43255
 Alpha virt. eigenvalues --    0.44083   0.44626   0.45641   0.46437   0.46586
 Alpha virt. eigenvalues --    0.47221   0.48203   0.48495   0.49275   0.50018
 Alpha virt. eigenvalues --    0.50202   0.50436   0.50848   0.51736   0.52177
 Alpha virt. eigenvalues --    0.52876   0.54057   0.54414   0.55279   0.55622
 Alpha virt. eigenvalues --    0.56427   0.57144   0.57394   0.58019   0.58539
 Alpha virt. eigenvalues --    0.58938   0.59880   0.60670   0.61274   0.61929
 Alpha virt. eigenvalues --    0.62520   0.63029   0.64085   0.64299   0.64685
 Alpha virt. eigenvalues --    0.65366   0.65741   0.66245   0.67022   0.67669
 Alpha virt. eigenvalues --    0.67913   0.68175   0.68927   0.69816   0.70396
 Alpha virt. eigenvalues --    0.70909   0.71660   0.72519   0.72986   0.73632
 Alpha virt. eigenvalues --    0.73970   0.74230   0.74682   0.74804   0.75586
 Alpha virt. eigenvalues --    0.76372   0.76847   0.77182   0.77532   0.77969
 Alpha virt. eigenvalues --    0.78332   0.79411   0.79789   0.80197   0.80722
 Alpha virt. eigenvalues --    0.81487   0.81841   0.82459   0.82918   0.83319
 Alpha virt. eigenvalues --    0.83737   0.83901   0.84419   0.85340   0.85815
 Alpha virt. eigenvalues --    0.86738   0.86850   0.88206   0.88689   0.89226
 Alpha virt. eigenvalues --    0.89428   0.89984   0.91291   0.91629   0.92955
 Alpha virt. eigenvalues --    0.93231   0.93374   0.94369   0.95702   0.96097
 Alpha virt. eigenvalues --    0.96629   0.97831   0.98545   0.99904   1.01309
 Alpha virt. eigenvalues --    1.01940   1.02211   1.03097   1.04561   1.05270
 Alpha virt. eigenvalues --    1.06623   1.07161   1.07576   1.08790   1.09689
 Alpha virt. eigenvalues --    1.10095   1.10705   1.11862   1.14285   1.14718
 Alpha virt. eigenvalues --    1.16790   1.17397   1.19289   1.19873   1.22039
 Alpha virt. eigenvalues --    1.22359   1.23674   1.23960   1.25447   1.26642
 Alpha virt. eigenvalues --    1.27837   1.28836   1.29407   1.30834   1.31239
 Alpha virt. eigenvalues --    1.32641   1.33223   1.34010   1.34860   1.35989
 Alpha virt. eigenvalues --    1.37210   1.37973   1.39591   1.43607   1.43860
 Alpha virt. eigenvalues --    1.44989   1.46432   1.47239   1.49192   1.50434
 Alpha virt. eigenvalues --    1.51709   1.52414   1.53255   1.54219   1.55693
 Alpha virt. eigenvalues --    1.56765   1.57179   1.58119   1.58654   1.59454
 Alpha virt. eigenvalues --    1.59737   1.60772   1.61263   1.62187   1.63584
 Alpha virt. eigenvalues --    1.64370   1.64861   1.65157   1.65666   1.66326
 Alpha virt. eigenvalues --    1.66909   1.68230   1.68783   1.69318   1.70055
 Alpha virt. eigenvalues --    1.70438   1.71436   1.71616   1.72240   1.72296
 Alpha virt. eigenvalues --    1.73442   1.75271   1.75784   1.75979   1.76646
 Alpha virt. eigenvalues --    1.77470   1.77884   1.79211   1.79649   1.80474
 Alpha virt. eigenvalues --    1.81363   1.82043   1.83216   1.84592   1.84643
 Alpha virt. eigenvalues --    1.85687   1.86241   1.87116   1.87201   1.88238
 Alpha virt. eigenvalues --    1.88551   1.89420   1.89809   1.91301   1.91538
 Alpha virt. eigenvalues --    1.91646   1.93221   1.94800   1.94927   1.96083
 Alpha virt. eigenvalues --    1.97706   1.98908   1.99349   2.00045   2.01999
 Alpha virt. eigenvalues --    2.02816   2.04971   2.05794   2.07451   2.09319
 Alpha virt. eigenvalues --    2.09450   2.10632   2.12558   2.12807   2.13933
 Alpha virt. eigenvalues --    2.14456   2.14813   2.15874   2.17604   2.18212
 Alpha virt. eigenvalues --    2.18274   2.19760   2.21348   2.22158   2.22617
 Alpha virt. eigenvalues --    2.24521   2.25113   2.27332   2.27685   2.28844
 Alpha virt. eigenvalues --    2.29286   2.30797   2.31275   2.31867   2.33684
 Alpha virt. eigenvalues --    2.35411   2.35686   2.36341   2.37813   2.39194
 Alpha virt. eigenvalues --    2.39902   2.41628   2.42359   2.43664   2.44750
 Alpha virt. eigenvalues --    2.45732   2.48167   2.49528   2.50577   2.51210
 Alpha virt. eigenvalues --    2.51922   2.53396   2.54020   2.54805   2.55924
 Alpha virt. eigenvalues --    2.56951   2.58647   2.60258   2.60350   2.61111
 Alpha virt. eigenvalues --    2.62181   2.62438   2.63689   2.64601   2.67222
 Alpha virt. eigenvalues --    2.72776   2.73036   2.73936   2.76446   2.84012
 Alpha virt. eigenvalues --    2.85600   2.85947   2.86527   2.89316   2.91313
 Alpha virt. eigenvalues --    2.93062   2.93200   2.99317   3.01731   3.07239
 Alpha virt. eigenvalues --    3.68845   3.73193   3.77248   3.81457   3.85511
 Alpha virt. eigenvalues --    3.89286   3.95104   3.96896   3.98734   4.01955
 Alpha virt. eigenvalues --    4.07629   4.08275   4.10443   4.13072   4.14551
 Alpha virt. eigenvalues --    4.18310   4.18561   4.19513   4.21419   4.26092
 Alpha virt. eigenvalues --    4.28732   4.36314   4.40402   4.41229   4.46390
 Alpha virt. eigenvalues --    4.50394   4.55484   4.57856   4.65406
          Condensed to atoms (all electrons):
 Mulliken charges:
               1
     1  N   -0.771172
     2  C   -0.101974
     3  C    0.628930
     4  O   -0.502659
     5  C   -0.297079
     6  C   -0.401639
     7  C    0.624922
     8  O   -0.490103
     9  O   -0.544300
    10  H    0.443462
    11  H    0.433141
    12  H    0.187004
    13  H    0.204226
    14  H    0.210129
    15  H    0.214953
    16  H    0.197755
    17  H    0.411203
    18  H    0.440739
    19  N   -0.606841
    20  C   -0.061084
    21  C    0.609594
    22  O   -0.538431
    23  C   -0.305344
    24  C   -0.110324
    25  C   -0.471709
    26  C   -0.453204
    27  H    0.365323
    28  H    0.174649
    29  H    0.177277
    30  H    0.173171
    31  H    0.145727
    32  H    0.165393
    33  H    0.195276
    34  H    0.110228
    35  H    0.175293
    36  H    0.160401
    37  H    0.165137
    38  N   -0.674772
    39  C   -0.029670
    40  C    0.561405
    41  O   -0.410359
    42  C   -0.290811
    43  C   -0.311150
    44  C   -0.166388
    45  N   -0.696588
    46  C    0.578006
    47  N   -0.654010
    48  N   -0.779240
    49  O   -0.604295
    50  H    0.450518
    51  H    0.372974
    52  H    0.215784
    53  H    0.184071
    54  H    0.195704
    55  H    0.193381
    56  H    0.128928
    57  H    0.190676
    58  H    0.191080
    59  H    0.369126
    60  H    0.320181
    61  H    0.358941
    62  H    0.348434
 Sum of Mulliken charges =   1.00000
 Mulliken charges with hydrogens summed into heavy atoms:
               1
     1  N    0.513911
     2  C    0.085030
     3  C    0.628930
     4  O   -0.502659
     5  C    0.117275
     6  C    0.011069
     7  C    0.624922
     8  O   -0.490103
     9  O   -0.100838
    19  N   -0.241518
    20  C    0.113565
    21  C    0.609594
    22  O   -0.538431
    23  C    0.045103
    24  C    0.035404
    25  C   -0.000811
    26  C    0.047628
    38  N   -0.301797
    39  C    0.186114
    40  C    0.561405
    41  O   -0.410359
    42  C    0.088965
    43  C    0.011159
    44  C    0.215369
    45  N   -0.327462
    46  C    0.578006
    47  N   -0.333829
    48  N   -0.071865
    49  O   -0.153777
 Electronic spatial extent (au):  <R**2>=         511509.1075
 Charge=              1.0000 electrons
 Dipole moment (field-independent basis, Debye):
    X=             58.5165    Y=             77.5826    Z=             61.7431  Tot=            115.1323
 Quadrupole moment (field-independent basis, Debye-Ang):
   XX=            553.5141   YY=           1075.3069   ZZ=            655.1694
   XY=            956.6725   XZ=            767.1898   YZ=            991.1900
 Traceless Quadrupole moment (field-independent basis, Debye-Ang):
   XX=           -207.8160   YY=            313.9768   ZZ=           -106.1608
   XY=            956.6725   XZ=            767.1898   YZ=            991.1900
 Octapole moment (field-independent basis, Debye-Ang**2):
  XXX=           3083.0501  YYY=          10778.8880  ZZZ=           4594.5518  XYY=          13553.7598
  XXY=           8994.5454  XXZ=           7388.5067  XZZ=           8508.1793  YZZ=          10147.7511
  YYZ=          13425.1992  XYZ=          12491.7173
 Hexadecapole moment (field-independent basis, Debye-Ang**3):
 XXXX=         -29556.9139 YYYY=         -13074.1957 ZZZZ=         -24932.6655 XXXY=          47147.6311
 XXXZ=          42520.0305 YYYX=         145054.2941 YYYZ=         122206.2322 ZZZX=          68335.6791
 ZZZY=          59297.4085 XXYY=         120049.8014 XXZZ=          79757.0047 YYZZ=         120178.8679
 XXYZ=         119341.5653 YYXZ=         174175.2552 ZZXY=         135107.9618
 N-N= 3.334338317506D+03 E-N=-1.001354500519D+04  KE= 1.434112246595D+03
 Unable to Open any file for archive entry.
 1\1\GINC-SKL-154\SP\RB3LYP\6-31G(d)\C17H33N6O6(1+)\KENGMITH\24-May-202
 2\0\\# B3LYP/6-31G* empiricaldispersion=gd3 guess=read geom=check nosy
 mm integral(ultrafinegrid)\\Candidate Structure: Conf:472 Charge calc 
 in gas phase\\1,1\N,0,12.9906463574,16.569243176,10.4402039195\C,0,12.
 5610304178,15.8931323553,11.7197555363\C,0,13.9139330971,15.4855271757
 ,12.3440600541\O,0,14.6564208922,14.8081302932,11.6404532851\C,0,11.67
 08842221,14.6601195301,11.5151475187\C,0,10.4559868818,14.7666739829,1
 0.5457809841\C,0,9.8437043271,16.1465839316,10.3327379972\O,0,10.46896
 30824,17.0444768786,9.7767663599\O,0,8.5865098426,16.3740543312,10.683
 9867246\H,0,8.259925683,15.7860173024,11.4021879262\H,0,13.4784436864,
 17.4389708802,10.7060024231\H,0,12.0139223127,16.6468190222,12.2786895
 744\H,0,11.3021814239,14.4217844513,12.5180864798\H,0,12.2950494512,13
 .8237597972,11.1881326748\H,0,10.7683539804,14.4579074339,9.5413246163
 \H,0,9.6964474053,14.0478866702,10.8648586685\H,0,13.652183916,15.9538
 462999,9.9491595886\H,0,12.1380615775,16.7985328946,9.8693963618\N,0,1
 4.2430386949,15.8965482131,13.5882930281\C,0,13.5651481062,16.85641403
 2,14.4482164776\C,0,13.3013025447,18.1986377151,13.7024082341\O,0,13.7
 322506494,18.438278514,12.5753896521\C,0,14.4284567026,17.005379421,15
 .7293248077\C,0,13.8380654655,17.7431687404,16.9494939091\C,0,12.47688
 42387,17.1780267595,17.3911638332\C,0,14.8451128182,17.6612321224,18.1
 090018808\H,0,15.1873929654,15.6295179362,13.8478791322\H,0,12.5872472
 276,16.4428828439,14.7241594775\H,0,15.3771818553,17.4788011478,15.444
 946647\H,0,14.665870368,15.9822946617,16.0509448289\H,0,13.7249116128,
 18.8093238557,16.707869518\H,0,12.5448248926,16.0981065394,17.57107094
 77\H,0,12.1444572085,17.6531852612,18.3187211565\H,0,11.6760481097,17.
 3432267613,16.6554203791\H,0,14.4893907493,18.2354300768,18.9700035785
 \H,0,14.985886777,16.6224994691,18.4317511438\H,0,15.8223547209,18.061
 4805604,17.8181592382\N,0,12.4397667693,19.0099817069,14.37186118\C,0,
 12.0639586511,20.3924099054,14.0155878399\C,0,11.0708777425,20.9407531
 329,15.0683313104\O,0,11.1016822593,22.104616338,15.3680649033\C,0,11.
 5366698981,20.6016594871,12.5727096191\C,0,10.6160076522,19.5513860258
 ,11.9265504725\C,0,9.3625683848,19.0734034192,12.6755791497\N,0,9.7112
 184477,18.0714132411,13.7164134055\C,0,9.0513711995,16.8368117281,13.7
 941985445\N,0,7.9011584846,16.5070961478,13.3359137702\N,0,9.850031213
 2,15.8554339193,14.4159955666\O,0,10.2079148626,20.0794210579,15.65490
 04687\H,0,10.0114056417,19.280389049,15.1077465701\H,0,12.2875021122,1
 8.785357022,15.347012878\H,0,12.9423940297,21.0350153333,14.1260107598
 \H,0,12.4069953986,20.7006202428,11.9186263015\H,0,11.0414128665,21.57
 94976499,12.5823229883\H,0,10.2817019479,19.9740132336,10.9728697219\H
 ,0,11.2043509552,18.669507293,11.6507809618\H,0,8.6933485225,18.608127
 7708,11.9470132685\H,0,8.8287721645,19.9104982324,13.1383168774\H,0,10
 .7167239279,17.9388911792,13.7613869268\H,0,7.4297091623,17.2912300536
 ,12.8853530131\H,0,9.2862886961,15.0303004613,14.6054346619\H,0,10.268
 4774558,16.1773019018,15.2857731078\\Version=ES64L-G16RevC.01\HF=-1447
 .4537872\RMSD=7.852e-09\Dipole=0.8510464,-2.6587405,-1.0551147\Quadrup
 ole=-154.5061233,233.4340409,-78.9279176,711.2625819,570.3868264,736.9
 254775\PG=C01 [X(C17H33N6O6)]\\@
 The archive entry for this job was punched.


 THE ONLY DIFFERENCE BETWEEN ECCENTRICS AND JOGGERS
 IS THAT JOGGERS WEAR SWEATBANDS WHEN THEY RUN IN THE RAIN.
 Job cpu time:       0 days  0 hours  1 minutes 15.3 seconds.
 Elapsed time:       0 days  0 hours  0 minutes 19.3 seconds.
 File lengths (MBytes):  RWF=    248 Int=      0 D2E=      0 Chk=     32 Scr=     16
 Normal termination of Gaussian 16 at Tue May 24 03:34:12 2022.
