 Entering Gaussian System, Link 0=/opt/software/Gaussian/g16-AVX2-C.01/g16/g16
 Input=charge-conf-731.com
 Output=charge-conf-731.log
 Initial command:
 /opt/software/Gaussian/g16-AVX2-C.01/g16/l1.exe "/mnt/gs18/scratch/users/kengmith/Gau-32342.inp" -scrdir="/mnt/gs18/scratch/users/kengmith/"
 Entering Link 1 = /opt/software/Gaussian/g16-AVX2-C.01/g16/l1.exe PID=     32352.
  
 Copyright (c) 1988-2019, Gaussian, Inc.  All Rights Reserved.
  
 This is part of the Gaussian(R) 16 program.  It is based on
 the Gaussian(R) 09 system (copyright 2009, Gaussian, Inc.),
 the Gaussian(R) 03 system (copyright 2003, Gaussian, Inc.),
 the Gaussian(R) 98 system (copyright 1998, Gaussian, Inc.),
 the Gaussian(R) 94 system (copyright 1995, Gaussian, Inc.),
 the Gaussian 92(TM) system (copyright 1992, Gaussian, Inc.),
 the Gaussian 90(TM) system (copyright 1990, Gaussian, Inc.),
 the Gaussian 88(TM) system (copyright 1988, Gaussian, Inc.),
 the Gaussian 86(TM) system (copyright 1986, Carnegie Mellon
 University), and the Gaussian 82(TM) system (copyright 1983,
 Carnegie Mellon University). Gaussian is a federally registered
 trademark of Gaussian, Inc.
  
 This software contains proprietary and confidential information,
 including trade secrets, belonging to Gaussian, Inc.
  
 This software is provided under written license and may be
 used, copied, transmitted, or stored only in accord with that
 written license.
  
 The following legend is applicable only to US Government
 contracts under FAR:
  
                    RESTRICTED RIGHTS LEGEND
  
 Use, reproduction and disclosure by the US Government is
 subject to restrictions as set forth in subparagraphs (a)
 and (c) of the Commercial Computer Software - Restricted
 Rights clause in FAR 52.227-19.
  
 Gaussian, Inc.
 340 Quinnipiac St., Bldg. 40, Wallingford CT 06492
  
  
 ---------------------------------------------------------------
 Warning -- This program may not be used in any manner that
 competes with the business of Gaussian, Inc. or will provide
 assistance to any competitor of Gaussian, Inc.  The licensee
 of this program is prohibited from giving any competitor of
 Gaussian, Inc. access to this program.  By using this program,
 the user acknowledges that Gaussian, Inc. is engaged in the
 business of creating and licensing software in the field of
 computational chemistry and represents and warrants to the
 licensee that it is not a competitor of Gaussian, Inc. and that
 it will not use this program in any manner prohibited above.
 ---------------------------------------------------------------
  

 Cite this work as:
 Gaussian 16, Revision C.01,
 M. J. Frisch, G. W. Trucks, H. B. Schlegel, G. E. Scuseria, 
 M. A. Robb, J. R. Cheeseman, G. Scalmani, V. Barone, 
 G. A. Petersson, H. Nakatsuji, X. Li, M. Caricato, A. V. Marenich, 
 J. Bloino, B. G. Janesko, R. Gomperts, B. Mennucci, H. P. Hratchian, 
 J. V. Ortiz, A. F. Izmaylov, J. L. Sonnenberg, D. Williams-Young, 
 F. Ding, F. Lipparini, F. Egidi, J. Goings, B. Peng, A. Petrone, 
 T. Henderson, D. Ranasinghe, V. G. Zakrzewski, J. Gao, N. Rega, 
 G. Zheng, W. Liang, M. Hada, M. Ehara, K. Toyota, R. Fukuda, 
 J. Hasegawa, M. Ishida, T. Nakajima, Y. Honda, O. Kitao, H. Nakai, 
 T. Vreven, K. Throssell, J. A. Montgomery, Jr., J. E. Peralta, 
 F. Ogliaro, M. J. Bearpark, J. J. Heyd, E. N. Brothers, K. N. Kudin, 
 V. N. Staroverov, T. A. Keith, R. Kobayashi, J. Normand, 
 K. Raghavachari, A. P. Rendell, J. C. Burant, S. S. Iyengar, 
 J. Tomasi, M. Cossi, J. M. Millam, M. Klene, C. Adamo, R. Cammi, 
 J. W. Ochterski, R. L. Martin, K. Morokuma, O. Farkas, 
 J. B. Foresman, and D. J. Fox, Gaussian, Inc., Wallingford CT, 2019.
 
 ******************************************
 Gaussian 16:  ES64L-G16RevC.01  3-Jul-2019
                24-May-2022 
 ******************************************
 %mem=8gb
 %nproc=4
 Will use up to    4 processors via shared memory.
 %chk=conf-731.chk
 ----------------------------------------------------------------------
 # B3LYP/6-31G* empiricaldispersion=gd3 guess=read geom=check nosymm in
 tegral(ultrafinegrid)
 ----------------------------------------------------------------------
 1/29=2,38=1,172=1/1;
 2/12=2,15=1,40=1/2;
 3/5=1,6=6,7=1,11=2,14=-4,25=1,30=1,74=-5,75=-5,116=-2,124=31/1,2,3;
 4/5=1/1;
 5/5=2,38=6/2;
 6/7=2,8=2,9=2,10=2,28=1/1;
 99/5=1,9=1/99;
 ------------------------------------------------------
 Candidate Structure: Conf:731 Charge calc in gas phase
 ------------------------------------------------------
 Structure from the checkpoint file:  "conf-731.chk"
 Charge =  1 Multiplicity = 1
 Redundant internal coordinates found in file.  (old form).
 N,0,14.4329625407,17.1451924965,13.9451310855
 C,0,13.6553667845,18.4244919175,14.119325514
 C,0,14.1670225571,19.294190198,12.9535669128
 O,0,15.3672410706,19.5403503435,12.9361809512
 C,0,13.9560466366,19.1062081034,15.466595369
 C,0,13.1267408642,18.648642314,16.6808862534
 C,0,13.2828428176,17.1991456069,17.0993999656
 O,0,13.4817820627,16.2798358993,16.3148385609
 O,0,13.1171740453,16.899147582,18.3867114239
 H,0,12.9263095947,17.6862264017,18.9259024602
 H,0,15.4299310724,17.3822525851,13.8568489441
 H,0,12.6015435962,18.1511694707,14.0504392204
 H,0,13.755115564,20.1743387758,15.3336095783
 H,0,15.0295097136,19.0377797152,15.6725913686
 H,0,13.3581902788,19.3129401613,17.521212642
 H,0,12.0502694395,18.763539153,16.484710261
 H,0,14.2526478492,16.5323839395,14.765980928
 H,0,14.1120634394,16.7156153054,13.055312959
 N,0,13.2840487444,19.7301432056,12.0261993702
 C,0,11.9407750608,19.2243435686,11.7807812938
 C,0,11.9224502911,17.6698466756,11.6838450646
 O,0,12.9616479016,17.0035944028,11.610162985
 C,0,11.3926801368,19.8548754902,10.48054683
 C,0,11.2911713457,21.3949524679,10.4817735135
 C,0,10.7547396751,21.8638016751,9.1208550179
 C,0,10.4156575403,21.9167491698,11.6291585656
 H,0,13.7323872255,20.231078834,11.2658495884
 H,0,11.2858771269,19.5152050168,12.6123904973
 H,0,10.3931939588,19.4441548656,10.2928698169
 H,0,12.0235940111,19.5186345841,9.6464403021
 H,0,12.2995214447,21.8163128836,10.6051688491
 H,0,9.7355454924,21.4936522841,8.9538272311
 H,0,10.7238869241,22.9569367608,9.073328325
 H,0,11.3823131392,21.5086147575,8.2956313133
 H,0,9.4087593635,21.4816048716,11.5841902272
 H,0,10.8422703565,21.6940230771,12.614586108
 H,0,10.307215547,23.0039509825,11.5642571645
 N,0,10.6795222035,17.1523103591,11.7360821588
 C,0,10.2236002585,15.7906544273,11.3925113847
 C,0,8.8024582834,15.5921819749,11.9596877194
 O,0,8.0031537648,14.8947311298,11.3925966541
 C,0,11.1550242852,14.6159899899,11.7613624536
 C,0,11.6816197375,14.4567533292,13.1973651436
 C,0,10.6759165768,14.414904526,14.3605563325
 N,0,10.4785661172,15.7775328945,14.920944526
 C,0,9.6291666728,15.8693576184,16.0791392906
 N,0,8.3870893426,15.6177802114,16.1306293642
 N,0,10.3156194649,16.3786991339,17.2009914259
 O,0,8.5115857887,16.2623885778,13.0946964092
 H,0,9.3374397569,16.4229624238,13.6330554547
 H,0,9.9238203213,17.8275369348,11.7712013856
 H,0,10.089453409,15.7412841165,10.3062344765
 H,0,12.0216467144,14.65855355,11.0970797181
 H,0,10.5861501017,13.7204272364,11.4837152413
 H,0,12.2496853,13.5196423911,13.2078319109
 H,0,12.4149515209,15.2469160344,13.3987732151
 H,0,11.045305433,13.7385440656,15.1428673925
 H,0,9.7054467144,14.0262908763,14.0397190631
 H,0,11.3913347229,16.1624024585,15.1562935659
 H,0,7.9906435325,15.3979662904,15.2158493018
 H,0,9.6592869628,16.4635440165,17.9746374322
 H,0,11.091663802,15.7824511614,17.4839666982
 Recover connectivity data from disk.
                           ----------------------------
                           !    Current Parameters    !
                           ! (Angstroms and Degrees)  !
 --------------------------                            --------------------------
 ! Name  Definition              Value                                          !
 --------------------------------------------------------------------------------
 ! R1    R(1,2)                  1.5072                                         !
 ! R2    R(1,11)                 1.0286                                         !
 ! R3    R(1,17)                 1.0401                                         !
 ! R4    R(1,18)                 1.0389                                         !
 ! R5    R(2,3)                  1.5418                                         !
 ! R6    R(2,5)                  1.5396                                         !
 ! R7    R(2,12)                 1.0909                                         !
 ! R8    R(3,4)                  1.2253                                         !
 ! R9    R(3,19)                 1.3527                                         !
 ! R10   R(5,6)                  1.54                                           !
 ! R11   R(5,13)                 1.095                                          !
 ! R12   R(5,14)                 1.0952                                         !
 ! R13   R(6,7)                  1.5168                                         !
 ! R14   R(6,15)                 1.0959                                         !
 ! R15   R(6,16)                 1.1002                                         !
 ! R16   R(7,8)                  1.2248                                         !
 ! R17   R(7,9)                  1.3321                                         !
 ! R18   R(9,10)                 0.973                                          !
 ! R19   R(19,20)                1.4562                                         !
 ! R20   R(19,27)                1.0149                                         !
 ! R21   R(20,21)                1.5576                                         !
 ! R22   R(20,23)                1.5455                                         !
 ! R23   R(20,28)                1.0978                                         !
 ! R24   R(21,22)                1.2366                                         !
 ! R25   R(21,38)                1.3474                                         !
 ! R26   R(23,24)                1.5434                                         !
 ! R27   R(23,29)                1.0968                                         !
 ! R28   R(23,30)                1.0986                                         !
 ! R29   R(24,25)                1.5361                                         !
 ! R30   R(24,26)                1.5347                                         !
 ! R31   R(24,31)                1.0998                                         !
 ! R32   R(25,32)                1.0971                                         !
 ! R33   R(25,33)                1.0946                                         !
 ! R34   R(25,34)                1.0959                                         !
 ! R35   R(26,35)                1.0978                                         !
 ! R36   R(26,36)                1.0967                                         !
 ! R37   R(26,37)                1.0945                                         !
 ! R38   R(38,39)                1.4765                                         !
 ! R39   R(38,51)                1.014                                          !
 ! R40   R(39,40)                1.543                                          !
 ! R41   R(39,42)                1.5438                                         !
 ! R42   R(39,52)                1.0956                                         !
 ! R43   R(40,41)                1.2029                                         !
 ! R44   R(40,49)                1.3498                                         !
 ! R45   R(42,43)                1.5378                                         !
 ! R46   R(42,53)                1.0928                                         !
 ! R47   R(42,54)                1.0967                                         !
 ! R48   R(43,44)                1.5382                                         !
 ! R49   R(43,55)                1.0959                                         !
 ! R50   R(43,56)                1.0967                                         !
 ! R51   R(44,45)                1.4865                                         !
 ! R52   R(44,57)                1.0981                                         !
 ! R53   R(44,58)                1.0935                                         !
 ! R54   R(45,46)                1.4392                                         !
 ! R55   R(45,59)                1.0182                                         !
 ! R56   R(46,47)                1.2683                                         !
 ! R57   R(46,48)                1.4104                                         !
 ! R58   R(47,60)                1.0209                                         !
 ! R59   R(48,61)                1.0181                                         !
 ! R60   R(48,62)                1.0187                                         !
 ! R61   R(49,50)                0.9988                                         !
 ! A1    A(2,1,11)             108.3228                                         !
 ! A2    A(2,1,17)             108.6289                                         !
 ! A3    A(2,1,18)             106.8942                                         !
 ! A4    A(11,1,17)            111.8121                                         !
 ! A5    A(11,1,18)            108.7347                                         !
 ! A6    A(17,1,18)            112.2581                                         !
 ! A7    A(1,2,3)              102.7202                                         !
 ! A8    A(1,2,5)              112.1                                            !
 ! A9    A(1,2,12)             106.1669                                         !
 ! A10   A(3,2,5)              110.3085                                         !
 ! A11   A(3,2,12)             114.4672                                         !
 ! A12   A(5,2,12)             110.7857                                         !
 ! A13   A(2,3,4)              116.6862                                         !
 ! A14   A(2,3,19)             118.9172                                         !
 ! A15   A(4,3,19)             124.3965                                         !
 ! A16   A(2,5,6)              116.954                                          !
 ! A17   A(2,5,13)             106.8473                                         !
 ! A18   A(2,5,14)             109.1692                                         !
 ! A19   A(6,5,13)             106.6654                                         !
 ! A20   A(6,5,14)             111.1586                                         !
 ! A21   A(13,5,14)            105.2871                                         !
 ! A22   A(5,6,7)              116.493                                          !
 ! A23   A(5,6,15)             108.1061                                         !
 ! A24   A(5,6,16)             110.8096                                         !
 ! A25   A(7,6,15)             110.241                                          !
 ! A26   A(7,6,16)             104.4595                                         !
 ! A27   A(15,6,16)            106.2636                                         !
 ! A28   A(6,7,8)              123.8653                                         !
 ! A29   A(6,7,9)              117.9728                                         !
 ! A30   A(8,7,9)              118.0445                                         !
 ! A31   A(7,9,10)             112.1941                                         !
 ! A32   A(3,19,20)            127.283                                          !
 ! A33   A(3,19,27)            112.6025                                         !
 ! A34   A(20,19,27)           116.9153                                         !
 ! A35   A(19,20,21)           111.5918                                         !
 ! A36   A(19,20,23)           109.1002                                         !
 ! A37   A(19,20,28)           109.3062                                         !
 ! A38   A(21,20,23)           110.5258                                         !
 ! A39   A(21,20,28)           107.7314                                         !
 ! A40   A(23,20,28)           108.5217                                         !
 ! A41   A(20,21,22)           122.1072                                         !
 ! A42   A(20,21,38)           113.0649                                         !
 ! A43   A(22,21,38)           124.7898                                         !
 ! A44   A(20,23,24)           115.4517                                         !
 ! A45   A(20,23,29)           108.3225                                         !
 ! A46   A(20,23,30)           108.0732                                         !
 ! A47   A(24,23,29)           108.2929                                         !
 ! A48   A(24,23,30)           110.1077                                         !
 ! A49   A(29,23,30)           106.1901                                         !
 ! A50   A(23,24,25)           109.0757                                         !
 ! A51   A(23,24,26)           112.1714                                         !
 ! A52   A(23,24,31)           108.7892                                         !
 ! A53   A(25,24,26)           111.0613                                         !
 ! A54   A(25,24,31)           107.6163                                         !
 ! A55   A(26,24,31)           107.9931                                         !
 ! A56   A(24,25,32)           110.8739                                         !
 ! A57   A(24,25,33)           110.678                                          !
 ! A58   A(24,25,34)           111.6061                                         !
 ! A59   A(32,25,33)           107.7062                                         !
 ! A60   A(32,25,34)           107.9384                                         !
 ! A61   A(33,25,34)           107.8855                                         !
 ! A62   A(24,26,35)           110.9677                                         !
 ! A63   A(24,26,36)           112.3846                                         !
 ! A64   A(24,26,37)           110.4822                                         !
 ! A65   A(35,26,36)           108.2459                                         !
 ! A66   A(35,26,37)           107.4828                                         !
 ! A67   A(36,26,37)           107.0712                                         !
 ! A68   A(21,38,39)           129.0545                                         !
 ! A69   A(21,38,51)           115.661                                          !
 ! A70   A(39,38,51)           113.0811                                         !
 ! A71   A(38,39,40)           108.5118                                         !
 ! A72   A(38,39,42)           117.3745                                         !
 ! A73   A(38,39,52)           108.0634                                         !
 ! A74   A(40,39,42)           111.7149                                         !
 ! A75   A(40,39,52)           104.2339                                         !
 ! A76   A(42,39,52)           106.049                                          !
 ! A77   A(39,40,41)           120.8849                                         !
 ! A78   A(39,40,49)           116.3401                                         !
 ! A79   A(41,40,49)           122.7595                                         !
 ! A80   A(39,42,43)           120.5635                                         !
 ! A81   A(39,42,53)           107.6735                                         !
 ! A82   A(39,42,54)           104.3529                                         !
 ! A83   A(43,42,53)           107.4649                                         !
 ! A84   A(43,42,54)           109.2373                                         !
 ! A85   A(53,42,54)           106.815                                          !
 ! A86   A(42,43,44)           119.0167                                         !
 ! A87   A(42,43,55)           105.9603                                         !
 ! A88   A(42,43,56)           109.0185                                         !
 ! A89   A(44,43,55)           107.9638                                         !
 ! A90   A(44,43,56)           108.5367                                         !
 ! A91   A(55,43,56)           105.5299                                         !
 ! A92   A(43,44,45)           110.2993                                         !
 ! A93   A(43,44,57)           109.6049                                         !
 ! A94   A(43,44,58)           111.5946                                         !
 ! A95   A(45,44,57)           109.9183                                         !
 ! A96   A(45,44,58)           108.5751                                         !
 ! A97   A(57,44,58)           106.7777                                         !
 ! A98   A(44,45,46)           116.1173                                         !
 ! A99   A(44,45,59)           108.3379                                         !
 ! A100  A(46,45,59)           108.5998                                         !
 ! A101  A(45,46,47)           126.7251                                         !
 ! A102  A(45,46,48)           112.08                                           !
 ! A103  A(47,46,48)           121.0625                                         !
 ! A104  A(46,47,60)           112.7434                                         !
 ! A105  A(46,48,61)           108.7094                                         !
 ! A106  A(46,48,62)           112.3547                                         !
 ! A107  A(61,48,62)           109.1953                                         !
 ! A108  A(40,49,50)           110.7851                                         !
 ! D1    D(11,1,2,3)            50.7579                                         !
 ! D2    D(11,1,2,5)           -67.6459                                         !
 ! D3    D(11,1,2,12)          171.2563                                         !
 ! D4    D(17,1,2,3)           172.4047                                         !
 ! D5    D(17,1,2,5)            54.0009                                         !
 ! D6    D(17,1,2,12)          -67.0969                                         !
 ! D7    D(18,1,2,3)           -66.2541                                         !
 ! D8    D(18,1,2,5)           175.3421                                         !
 ! D9    D(18,1,2,12)           54.2442                                         !
 ! D10   D(1,2,3,4)            -60.0312                                         !
 ! D11   D(1,2,3,19)           119.8229                                         !
 ! D12   D(5,2,3,4)             59.6249                                         !
 ! D13   D(5,2,3,19)          -120.5209                                         !
 ! D14   D(12,2,3,4)          -174.6336                                         !
 ! D15   D(12,2,3,19)            5.2205                                         !
 ! D16   D(1,2,5,6)            -86.2673                                         !
 ! D17   D(1,2,5,13)           154.3824                                         !
 ! D18   D(1,2,5,14)            40.9966                                         !
 ! D19   D(3,2,5,6)            159.9244                                         !
 ! D20   D(3,2,5,13)            40.5742                                         !
 ! D21   D(3,2,5,14)           -72.8117                                         !
 ! D22   D(12,2,5,6)            32.129                                          !
 ! D23   D(12,2,5,13)          -87.2213                                         !
 ! D24   D(12,2,5,14)          159.3929                                         !
 ! D25   D(2,3,19,20)          -16.5681                                         !
 ! D26   D(2,3,19,27)         -175.5096                                         !
 ! D27   D(4,3,19,20)          163.2739                                         !
 ! D28   D(4,3,19,27)            4.3324                                         !
 ! D29   D(2,5,6,7)             62.8693                                         !
 ! D30   D(2,5,6,15)          -172.4033                                         !
 ! D31   D(2,5,6,16)           -56.3329                                         !
 ! D32   D(13,5,6,7)          -177.6832                                         !
 ! D33   D(13,5,6,15)          -52.9559                                         !
 ! D34   D(13,5,6,16)           63.1146                                         !
 ! D35   D(14,5,6,7)           -63.417                                          !
 ! D36   D(14,5,6,15)           61.3103                                         !
 ! D37   D(14,5,6,16)          177.3807                                         !
 ! D38   D(5,6,7,8)            -33.7231                                         !
 ! D39   D(5,6,7,9)            150.3017                                         !
 ! D40   D(15,6,7,8)          -157.3572                                         !
 ! D41   D(15,6,7,9)            26.6676                                         !
 ! D42   D(16,6,7,8)            88.8556                                         !
 ! D43   D(16,6,7,9)           -87.1195                                         !
 ! D44   D(6,7,9,10)            -1.2577                                         !
 ! D45   D(8,7,9,10)          -177.4715                                         !
 ! D46   D(3,19,20,21)         -48.0861                                         !
 ! D47   D(3,19,20,23)        -170.505                                          !
 ! D48   D(3,19,20,28)          70.9721                                         !
 ! D49   D(27,19,20,21)        110.0736                                         !
 ! D50   D(27,19,20,23)        -12.3454                                         !
 ! D51   D(27,19,20,28)       -130.8683                                         !
 ! D52   D(19,20,21,22)        -10.8254                                         !
 ! D53   D(19,20,21,38)        167.0279                                         !
 ! D54   D(23,20,21,22)        110.7718                                         !
 ! D55   D(23,20,21,38)        -71.3749                                         !
 ! D56   D(28,20,21,22)       -130.815                                          !
 ! D57   D(28,20,21,38)         47.0383                                         !
 ! D58   D(19,20,23,24)        -59.995                                          !
 ! D59   D(19,20,23,29)        178.4185                                         !
 ! D60   D(19,20,23,30)         63.7716                                         !
 ! D61   D(21,20,23,24)        176.9476                                         !
 ! D62   D(21,20,23,29)         55.3612                                         !
 ! D63   D(21,20,23,30)        -59.2858                                         !
 ! D64   D(28,20,23,24)         59.0175                                         !
 ! D65   D(28,20,23,29)        -62.569                                          !
 ! D66   D(28,20,23,30)       -177.2159                                         !
 ! D67   D(20,21,38,39)        165.4795                                         !
 ! D68   D(20,21,38,51)          3.6955                                         !
 ! D69   D(22,21,38,39)        -16.7347                                         !
 ! D70   D(22,21,38,51)       -178.5187                                         !
 ! D71   D(20,23,24,25)        179.0974                                         !
 ! D72   D(20,23,24,26)        -57.4307                                         !
 ! D73   D(20,23,24,31)         61.9745                                         !
 ! D74   D(29,23,24,25)        -59.3002                                         !
 ! D75   D(29,23,24,26)         64.1717                                         !
 ! D76   D(29,23,24,31)       -176.4231                                         !
 ! D77   D(30,23,24,25)         56.4057                                         !
 ! D78   D(30,23,24,26)        179.8776                                         !
 ! D79   D(30,23,24,31)        -60.7172                                         !
 ! D80   D(23,24,25,32)         63.6372                                         !
 ! D81   D(23,24,25,33)       -176.9011                                         !
 ! D82   D(23,24,25,34)        -56.732                                          !
 ! D83   D(26,24,25,32)        -60.4917                                         !
 ! D84   D(26,24,25,33)         58.97                                           !
 ! D85   D(26,24,25,34)        179.139                                          !
 ! D86   D(31,24,25,32)       -178.4988                                         !
 ! D87   D(31,24,25,33)        -59.0371                                         !
 ! D88   D(31,24,25,34)         61.132                                          !
 ! D89   D(23,24,26,35)        -57.0557                                         !
 ! D90   D(23,24,26,36)         64.307                                          !
 ! D91   D(23,24,26,37)       -176.1716                                         !
 ! D92   D(25,24,26,35)         65.2953                                         !
 ! D93   D(25,24,26,36)       -173.342                                          !
 ! D94   D(25,24,26,37)        -53.8206                                         !
 ! D95   D(31,24,26,35)       -176.9262                                         !
 ! D96   D(31,24,26,36)        -55.5635                                         !
 ! D97   D(31,24,26,37)         63.9579                                         !
 ! D98   D(21,38,39,40)        165.6087                                         !
 ! D99   D(21,38,39,42)         37.8203                                         !
 ! D100  D(21,38,39,52)        -81.9374                                         !
 ! D101  D(51,38,39,40)        -32.227                                          !
 ! D102  D(51,38,39,42)       -160.0153                                         !
 ! D103  D(51,38,39,52)         80.227                                          !
 ! D104  D(38,39,40,41)        147.5378                                         !
 ! D105  D(38,39,40,49)        -31.0694                                         !
 ! D106  D(42,39,40,41)        -81.5215                                         !
 ! D107  D(42,39,40,49)         99.8712                                         !
 ! D108  D(52,39,40,41)         32.5593                                         !
 ! D109  D(52,39,40,49)       -146.048                                          !
 ! D110  D(38,39,42,43)         52.8899                                         !
 ! D111  D(38,39,42,53)        -70.7504                                         !
 ! D112  D(38,39,42,54)        175.9883                                         !
 ! D113  D(40,39,42,43)        -73.3421                                         !
 ! D114  D(40,39,42,53)        163.0177                                         !
 ! D115  D(40,39,42,54)         49.7564                                         !
 ! D116  D(52,39,42,43)        173.7058                                         !
 ! D117  D(52,39,42,53)         50.0656                                         !
 ! D118  D(52,39,42,54)        -63.1957                                         !
 ! D119  D(39,40,49,50)        -27.7406                                         !
 ! D120  D(41,40,49,50)        153.6807                                         !
 ! D121  D(39,42,43,44)         54.2684                                         !
 ! D122  D(39,42,43,55)        175.9679                                         !
 ! D123  D(39,42,43,56)        -70.8825                                         !
 ! D124  D(53,42,43,44)        178.0078                                         !
 ! D125  D(53,42,43,55)        -60.2927                                         !
 ! D126  D(53,42,43,56)         52.8569                                         !
 ! D127  D(54,42,43,44)        -66.4618                                         !
 ! D128  D(54,42,43,55)         55.2377                                         !
 ! D129  D(54,42,43,56)        168.3873                                         !
 ! D130  D(42,43,44,45)        -93.031                                          !
 ! D131  D(42,43,44,57)        145.8148                                         !
 ! D132  D(42,43,44,58)         27.7456                                         !
 ! D133  D(55,43,44,45)        146.2788                                         !
 ! D134  D(55,43,44,57)         25.1246                                         !
 ! D135  D(55,43,44,58)        -92.9446                                         !
 ! D136  D(56,43,44,45)         32.3515                                         !
 ! D137  D(56,43,44,57)        -88.8026                                         !
 ! D138  D(56,43,44,58)        153.1282                                         !
 ! D139  D(43,44,45,46)       -175.8644                                         !
 ! D140  D(43,44,45,59)        -53.4028                                         !
 ! D141  D(57,44,45,46)        -54.8971                                         !
 ! D142  D(57,44,45,59)         67.5644                                         !
 ! D143  D(58,44,45,46)         61.5691                                         !
 ! D144  D(58,44,45,59)       -175.9694                                         !
 ! D145  D(44,45,46,47)        -65.3866                                         !
 ! D146  D(44,45,46,48)        118.7972                                         !
 ! D147  D(59,45,46,47)        172.2898                                         !
 ! D148  D(59,45,46,48)         -3.5265                                         !
 ! D149  D(45,46,47,60)         -4.6049                                         !
 ! D150  D(48,46,47,60)        170.8685                                         !
 ! D151  D(45,46,48,61)        177.3328                                         !
 ! D152  D(45,46,48,62)        -61.6954                                         !
 ! D153  D(47,46,48,61)          1.2471                                         !
 ! D154  D(47,46,48,62)        122.2188                                         !
 --------------------------------------------------------------------------------
 Symmetry turned off by external request.
 Stoichiometry    C17H33N6O6(1+)
 Framework group  C1[X(C17H33N6O6)]
 Deg. of freedom   180
 Full point group                 C1      NOp   1
                          Input orientation:                          
 ---------------------------------------------------------------------
 Center     Atomic      Atomic             Coordinates (Angstroms)
 Number     Number       Type             X           Y           Z
 ---------------------------------------------------------------------
      1          7           0       14.432963   17.145192   13.945131
      2          6           0       13.655367   18.424492   14.119326
      3          6           0       14.167023   19.294190   12.953567
      4          8           0       15.367241   19.540350   12.936181
      5          6           0       13.956047   19.106208   15.466595
      6          6           0       13.126741   18.648642   16.680886
      7          6           0       13.282843   17.199146   17.099400
      8          8           0       13.481782   16.279836   16.314839
      9          8           0       13.117174   16.899148   18.386711
     10          1           0       12.926310   17.686226   18.925902
     11          1           0       15.429931   17.382253   13.856849
     12          1           0       12.601544   18.151169   14.050439
     13          1           0       13.755116   20.174339   15.333610
     14          1           0       15.029510   19.037780   15.672591
     15          1           0       13.358190   19.312940   17.521213
     16          1           0       12.050269   18.763539   16.484710
     17          1           0       14.252648   16.532384   14.765981
     18          1           0       14.112063   16.715615   13.055313
     19          7           0       13.284049   19.730143   12.026199
     20          6           0       11.940775   19.224344   11.780781
     21          6           0       11.922450   17.669847   11.683845
     22          8           0       12.961648   17.003594   11.610163
     23          6           0       11.392680   19.854875   10.480547
     24          6           0       11.291171   21.394952   10.481774
     25          6           0       10.754740   21.863802    9.120855
     26          6           0       10.415658   21.916749   11.629159
     27          1           0       13.732387   20.231079   11.265850
     28          1           0       11.285877   19.515205   12.612390
     29          1           0       10.393194   19.444155   10.292870
     30          1           0       12.023594   19.518635    9.646440
     31          1           0       12.299521   21.816313   10.605169
     32          1           0        9.735545   21.493652    8.953827
     33          1           0       10.723887   22.956937    9.073328
     34          1           0       11.382313   21.508615    8.295631
     35          1           0        9.408759   21.481605   11.584190
     36          1           0       10.842270   21.694023   12.614586
     37          1           0       10.307216   23.003951   11.564257
     38          7           0       10.679522   17.152310   11.736082
     39          6           0       10.223600   15.790654   11.392511
     40          6           0        8.802458   15.592182   11.959688
     41          8           0        8.003154   14.894731   11.392597
     42          6           0       11.155024   14.615990   11.761362
     43          6           0       11.681620   14.456753   13.197365
     44          6           0       10.675917   14.414905   14.360556
     45          7           0       10.478566   15.777533   14.920945
     46          6           0        9.629167   15.869358   16.079139
     47          7           0        8.387089   15.617780   16.130629
     48          7           0       10.315619   16.378699   17.200991
     49          8           0        8.511586   16.262389   13.094696
     50          1           0        9.337440   16.422962   13.633055
     51          1           0        9.923820   17.827537   11.771201
     52          1           0       10.089453   15.741284   10.306234
     53          1           0       12.021647   14.658554   11.097080
     54          1           0       10.586150   13.720427   11.483715
     55          1           0       12.249685   13.519642   13.207832
     56          1           0       12.414952   15.246916   13.398773
     57          1           0       11.045305   13.738544   15.142867
     58          1           0        9.705447   14.026291   14.039719
     59          1           0       11.391335   16.162402   15.156294
     60          1           0        7.990644   15.397966   15.215849
     61          1           0        9.659287   16.463544   17.974637
     62          1           0       11.091664   15.782451   17.483967
 ---------------------------------------------------------------------
 Rotational constants (GHZ):           0.1691837           0.1357673           0.0962891
 Standard basis: 6-31G(d) (6D, 7F)
   501 basis functions,   944 primitive gaussians,   501 cartesian basis functions
   112 alpha electrons      112 beta electrons
       nuclear repulsion energy      3225.4644602659 Hartrees.
 NAtoms=   62 NActive=   62 NUniq=   62 SFac= 1.00D+00 NAtFMM=   60 NAOKFM=T Big=T
 Integral buffers will be    131072 words long.
 Raffenetti 2 integral format.
 Two-electron integral symmetry is turned off.
 Nuclear repulsion after empirical dispersion term =     3225.3758387097 Hartrees.
 One-electron integrals computed using PRISM.
 NBasis=   501 RedAO= T EigKep=  1.71D-03  NBF=   501
 NBsUse=   501 1.00D-06 EigRej= -1.00D+00 NBFU=   501
 Initial guess from the checkpoint file:  "conf-731.chk"
 B after Tr=     0.000000    0.000000    0.000000
         Rot=    1.000000    0.000000    0.000000    0.000000 Ang=   0.00 deg.
 Requested convergence on RMS density matrix=1.00D-08 within 128 cycles.
 Requested convergence on MAX density matrix=1.00D-06.
 Requested convergence on             energy=1.00D-06.
 No special actions if energy rises.
 SCF Done:  E(RB3LYP) =  -1447.45150031     A.U. after    3 cycles
            NFock=  3  Conv=0.69D-09     -V/T= 2.0093

 **********************************************************************

            Population analysis using the SCF Density.

 **********************************************************************

 Alpha  occ. eigenvalues --  -19.35189 -19.30136 -19.28202 -19.26849 -19.26040
 Alpha  occ. eigenvalues --  -19.23198 -14.58325 -14.50728 -14.50422 -14.46952
 Alpha  occ. eigenvalues --  -14.44922 -14.39409 -10.48588 -10.43745 -10.43734
 Alpha  occ. eigenvalues --  -10.41696 -10.41064 -10.38413 -10.38037 -10.36237
 Alpha  occ. eigenvalues --  -10.36011 -10.36009 -10.33506 -10.31943 -10.30959
 Alpha  occ. eigenvalues --  -10.30726 -10.30443 -10.27927 -10.27020  -1.26329
 Alpha  occ. eigenvalues --   -1.19438  -1.19054  -1.17960  -1.17789  -1.13363
 Alpha  occ. eigenvalues --   -1.11437  -1.08058  -1.07205  -1.06827  -0.99709
 Alpha  occ. eigenvalues --   -0.96319  -0.95045  -0.93573  -0.91540  -0.89018
 Alpha  occ. eigenvalues --   -0.87795  -0.85057  -0.81088  -0.79463  -0.78750
 Alpha  occ. eigenvalues --   -0.77469  -0.77159  -0.74694  -0.73802  -0.72698
 Alpha  occ. eigenvalues --   -0.72014  -0.71012  -0.69309  -0.68672  -0.68149
 Alpha  occ. eigenvalues --   -0.66966  -0.66711  -0.65310  -0.64275  -0.64066
 Alpha  occ. eigenvalues --   -0.63652  -0.62944  -0.61511  -0.61196  -0.60506
 Alpha  occ. eigenvalues --   -0.59769  -0.58627  -0.58238  -0.57552  -0.57087
 Alpha  occ. eigenvalues --   -0.56542  -0.55989  -0.55700  -0.55228  -0.54665
 Alpha  occ. eigenvalues --   -0.54169  -0.53996  -0.53290  -0.53225  -0.52738
 Alpha  occ. eigenvalues --   -0.52075  -0.51887  -0.51462  -0.50964  -0.50444
 Alpha  occ. eigenvalues --   -0.50243  -0.49584  -0.48501  -0.47552  -0.47357
 Alpha  occ. eigenvalues --   -0.46705  -0.46305  -0.45306  -0.44599  -0.44306
 Alpha  occ. eigenvalues --   -0.43986  -0.43756  -0.43563  -0.41371  -0.40990
 Alpha  occ. eigenvalues --   -0.40268  -0.39976  -0.39180  -0.38867  -0.36603
 Alpha  occ. eigenvalues --   -0.35898  -0.34707
 Alpha virt. eigenvalues --   -0.15708  -0.13302  -0.13156  -0.09625  -0.09124
 Alpha virt. eigenvalues --   -0.07777  -0.06945  -0.06205  -0.05062  -0.04137
 Alpha virt. eigenvalues --   -0.03093  -0.02741  -0.02376  -0.01132  -0.00709
 Alpha virt. eigenvalues --   -0.00209   0.00309   0.01399   0.01482   0.01747
 Alpha virt. eigenvalues --    0.02383   0.02663   0.03627   0.03855   0.04100
 Alpha virt. eigenvalues --    0.04264   0.04495   0.04906   0.05417   0.05595
 Alpha virt. eigenvalues --    0.06027   0.06430   0.06861   0.07054   0.07345
 Alpha virt. eigenvalues --    0.08293   0.08538   0.08634   0.08817   0.09514
 Alpha virt. eigenvalues --    0.09629   0.10004   0.10696   0.10834   0.11147
 Alpha virt. eigenvalues --    0.11478   0.12075   0.12319   0.12617   0.13645
 Alpha virt. eigenvalues --    0.14293   0.14732   0.15865   0.16619   0.17305
 Alpha virt. eigenvalues --    0.18927   0.20282   0.21147   0.22208   0.23239
 Alpha virt. eigenvalues --    0.25185   0.25412   0.25858   0.28279   0.30229
 Alpha virt. eigenvalues --    0.32898   0.34619   0.35646   0.37372   0.38120
 Alpha virt. eigenvalues --    0.38512   0.39167   0.39549   0.39921   0.40234
 Alpha virt. eigenvalues --    0.41173   0.41390   0.41840   0.42656   0.42851
 Alpha virt. eigenvalues --    0.44228   0.44883   0.45927   0.46278   0.46922
 Alpha virt. eigenvalues --    0.47539   0.48182   0.48629   0.49507   0.50095
 Alpha virt. eigenvalues --    0.50362   0.50702   0.51031   0.51410   0.51943
 Alpha virt. eigenvalues --    0.52997   0.53481   0.54344   0.54835   0.55960
 Alpha virt. eigenvalues --    0.56459   0.57161   0.57826   0.58232   0.58585
 Alpha virt. eigenvalues --    0.59771   0.59957   0.61147   0.61376   0.62031
 Alpha virt. eigenvalues --    0.62469   0.63009   0.63500   0.64492   0.65366
 Alpha virt. eigenvalues --    0.65758   0.66185   0.66784   0.67206   0.67725
 Alpha virt. eigenvalues --    0.68479   0.69662   0.70015   0.70519   0.71341
 Alpha virt. eigenvalues --    0.71508   0.72073   0.73271   0.73809   0.74229
 Alpha virt. eigenvalues --    0.74336   0.74498   0.74897   0.75268   0.75875
 Alpha virt. eigenvalues --    0.76804   0.77012   0.77280   0.78136   0.78415
 Alpha virt. eigenvalues --    0.79269   0.79728   0.79948   0.80274   0.81091
 Alpha virt. eigenvalues --    0.81515   0.82107   0.82251   0.82344   0.82893
 Alpha virt. eigenvalues --    0.83391   0.83740   0.84018   0.84471   0.84699
 Alpha virt. eigenvalues --    0.85282   0.86058   0.86522   0.86945   0.87081
 Alpha virt. eigenvalues --    0.88564   0.89120   0.89431   0.90127   0.90445
 Alpha virt. eigenvalues --    0.91662   0.92000   0.92527   0.92972   0.93743
 Alpha virt. eigenvalues --    0.94946   0.95655   0.97359   0.98728   0.99738
 Alpha virt. eigenvalues --    1.00322   1.01212   1.03028   1.03770   1.04466
 Alpha virt. eigenvalues --    1.05695   1.06501   1.08002   1.08827   1.08947
 Alpha virt. eigenvalues --    1.11617   1.12454   1.13104   1.13337   1.14182
 Alpha virt. eigenvalues --    1.15747   1.18575   1.20066   1.21193   1.21637
 Alpha virt. eigenvalues --    1.22581   1.24194   1.24745   1.25763   1.26889
 Alpha virt. eigenvalues --    1.27868   1.29014   1.30525   1.31459   1.32348
 Alpha virt. eigenvalues --    1.33275   1.33569   1.35237   1.35725   1.36536
 Alpha virt. eigenvalues --    1.37296   1.39622   1.40029   1.41730   1.42383
 Alpha virt. eigenvalues --    1.43992   1.45211   1.47249   1.49206   1.50464
 Alpha virt. eigenvalues --    1.51120   1.52501   1.54171   1.55187   1.55751
 Alpha virt. eigenvalues --    1.55962   1.56967   1.57437   1.58713   1.59152
 Alpha virt. eigenvalues --    1.59806   1.60518   1.60740   1.62122   1.62843
 Alpha virt. eigenvalues --    1.64310   1.65146   1.65429   1.65934   1.66200
 Alpha virt. eigenvalues --    1.67222   1.68431   1.68830   1.69391   1.69833
 Alpha virt. eigenvalues --    1.70785   1.72435   1.72717   1.73156   1.73735
 Alpha virt. eigenvalues --    1.74767   1.74923   1.75418   1.75953   1.77318
 Alpha virt. eigenvalues --    1.77896   1.78641   1.78865   1.79809   1.80456
 Alpha virt. eigenvalues --    1.80623   1.80942   1.81387   1.82624   1.83322
 Alpha virt. eigenvalues --    1.83952   1.85045   1.86544   1.87257   1.88435
 Alpha virt. eigenvalues --    1.89400   1.90137   1.90918   1.91087   1.91464
 Alpha virt. eigenvalues --    1.92539   1.94427   1.95216   1.96371   1.96635
 Alpha virt. eigenvalues --    1.99415   1.99602   1.99867   2.00283   2.01632
 Alpha virt. eigenvalues --    2.03598   2.04025   2.05612   2.06966   2.09075
 Alpha virt. eigenvalues --    2.10263   2.10798   2.13157   2.13930   2.15010
 Alpha virt. eigenvalues --    2.15267   2.15431   2.16418   2.17136   2.19048
 Alpha virt. eigenvalues --    2.19986   2.20788   2.22187   2.23149   2.24174
 Alpha virt. eigenvalues --    2.24584   2.26138   2.26378   2.27787   2.28263
 Alpha virt. eigenvalues --    2.30087   2.31036   2.31934   2.32957   2.33008
 Alpha virt. eigenvalues --    2.33693   2.36647   2.38916   2.39899   2.40410
 Alpha virt. eigenvalues --    2.40985   2.41435   2.41797   2.42330   2.44257
 Alpha virt. eigenvalues --    2.46250   2.48030   2.50385   2.50877   2.51322
 Alpha virt. eigenvalues --    2.52354   2.52948   2.54478   2.55368   2.55757
 Alpha virt. eigenvalues --    2.57437   2.58477   2.60445   2.61001   2.62253
 Alpha virt. eigenvalues --    2.62899   2.64917   2.66379   2.69317   2.69448
 Alpha virt. eigenvalues --    2.73466   2.74292   2.75071   2.78059   2.83302
 Alpha virt. eigenvalues --    2.84049   2.86844   2.88278   2.89367   2.90442
 Alpha virt. eigenvalues --    2.91571   2.93335   3.00106   3.01403   3.07293
 Alpha virt. eigenvalues --    3.69014   3.71401   3.77842   3.80363   3.85356
 Alpha virt. eigenvalues --    3.87917   3.91114   3.96933   4.00410   4.02363
 Alpha virt. eigenvalues --    4.04926   4.07984   4.10684   4.13893   4.15162
 Alpha virt. eigenvalues --    4.18214   4.18922   4.19919   4.23819   4.26979
 Alpha virt. eigenvalues --    4.28195   4.33018   4.35520   4.40317   4.43373
 Alpha virt. eigenvalues --    4.48550   4.52700   4.58335   4.62488
          Condensed to atoms (all electrons):
 Mulliken charges:
               1
     1  N   -0.780101
     2  C   -0.114166
     3  C    0.627440
     4  O   -0.499202
     5  C   -0.290543
     6  C   -0.415642
     7  C    0.659630
     8  O   -0.509992
     9  O   -0.530245
    10  H    0.444065
    11  H    0.411354
    12  H    0.191690
    13  H    0.209439
    14  H    0.200195
    15  H    0.190926
    16  H    0.228045
    17  H    0.443587
    18  H    0.450526
    19  N   -0.594236
    20  C   -0.067769
    21  C    0.632545
    22  O   -0.567480
    23  C   -0.307347
    24  C   -0.082226
    25  C   -0.448638
    26  C   -0.455380
    27  H    0.365803
    28  H    0.174709
    29  H    0.157456
    30  H    0.172095
    31  H    0.136291
    32  H    0.156525
    33  H    0.170450
    34  H    0.157288
    35  H    0.151885
    36  H    0.135608
    37  H    0.177532
    38  N   -0.627516
    39  C   -0.036033
    40  C    0.570474
    41  O   -0.420022
    42  C   -0.286890
    43  C   -0.283512
    44  C   -0.158252
    45  N   -0.693110
    46  C    0.538382
    47  N   -0.579934
    48  N   -0.778414
    49  O   -0.606437
    50  H    0.454065
    51  H    0.355973
    52  H    0.210595
    53  H    0.184922
    54  H    0.192389
    55  H    0.178647
    56  H    0.099421
    57  H    0.172994
    58  H    0.194657
    59  H    0.324620
    60  H    0.318469
    61  H    0.350240
    62  H    0.342156
 Sum of Mulliken charges =   1.00000
 Mulliken charges with hydrogens summed into heavy atoms:
               1
     1  N    0.525367
     2  C    0.077524
     3  C    0.627440
     4  O   -0.499202
     5  C    0.119092
     6  C    0.003329
     7  C    0.659630
     8  O   -0.509992
     9  O   -0.086180
    19  N   -0.228433
    20  C    0.106941
    21  C    0.632545
    22  O   -0.567480
    23  C    0.022203
    24  C    0.054064
    25  C    0.035624
    26  C    0.009646
    38  N   -0.271542
    39  C    0.174562
    40  C    0.570474
    41  O   -0.420022
    42  C    0.090420
    43  C   -0.005444
    44  C    0.209399
    45  N   -0.368490
    46  C    0.538382
    47  N   -0.261465
    48  N   -0.086019
    49  O   -0.152372
 Electronic spatial extent (au):  <R**2>=         511033.0307
 Charge=              1.0000 electrons
 Dipole moment (field-independent basis, Debye):
    X=             63.5131    Y=             88.5908    Z=             68.9697  Tot=            128.9925
 Quadrupole moment (field-independent basis, Debye-Ang):
   XX=            645.4827   YY=           1481.7647   ZZ=            865.8015
   XY=           1152.0106   XZ=            921.4996   YZ=           1264.1446
 Traceless Quadrupole moment (field-independent basis, Debye-Ang):
   XX=           -352.2003   YY=            484.0817   ZZ=           -131.8815
   XY=           1152.0106   XZ=            921.4996   YZ=           1264.1446
 Octapole moment (field-independent basis, Debye-Ang**2):
  XXX=           4433.6787  YYY=          22134.0210  ZZZ=           9371.7618  XYY=          19162.2168
  XXY=          11641.1496  XXZ=           9686.9801  XZZ=          11957.4853  YZZ=          15954.0937
  YYZ=          21103.8515  XYZ=          16662.1790
 Hexadecapole moment (field-independent basis, Debye-Ang**3):
 XXXX=         -10113.7901 YYYY=         270380.9277 ZZZZ=          73785.5676 XXXY=          79218.9416
 XXXZ=          73931.8093 YYYX=         287082.8512 YYYZ=         316888.0309 ZZZX=         138724.8773
 ZZZY=         177496.6041 XXYY=         188346.0198 XXZZ=         127186.7874 YYZZ=         263937.0581
 XXYZ=         174816.8958 YYXZ=         277487.5524 ZZXY=         217117.7550
 N-N= 3.225375838710D+03 E-N=-9.796869176065D+03  KE= 1.434101640323D+03
 Unable to Open any file for archive entry.
 1\1\GINC-SKL-159\SP\RB3LYP\6-31G(d)\C17H33N6O6(1+)\KENGMITH\24-May-202
 2\0\\# B3LYP/6-31G* empiricaldispersion=gd3 guess=read geom=check nosy
 mm integral(ultrafinegrid)\\Candidate Structure: Conf:731 Charge calc 
 in gas phase\\1,1\N,0,14.4329625407,17.1451924965,13.9451310855\C,0,13
 .6553667845,18.4244919175,14.119325514\C,0,14.1670225571,19.294190198,
 12.9535669128\O,0,15.3672410706,19.5403503435,12.9361809512\C,0,13.956
 0466366,19.1062081034,15.466595369\C,0,13.1267408642,18.648642314,16.6
 808862534\C,0,13.2828428176,17.1991456069,17.0993999656\O,0,13.4817820
 627,16.2798358993,16.3148385609\O,0,13.1171740453,16.899147582,18.3867
 114239\H,0,12.9263095947,17.6862264017,18.9259024602\H,0,15.4299310724
 ,17.3822525851,13.8568489441\H,0,12.6015435962,18.1511694707,14.050439
 2204\H,0,13.755115564,20.1743387758,15.3336095783\H,0,15.0295097136,19
 .0377797152,15.6725913686\H,0,13.3581902788,19.3129401613,17.521212642
 \H,0,12.0502694395,18.763539153,16.484710261\H,0,14.2526478492,16.5323
 839395,14.765980928\H,0,14.1120634394,16.7156153054,13.055312959\N,0,1
 3.2840487444,19.7301432056,12.0261993702\C,0,11.9407750608,19.22434356
 86,11.7807812938\C,0,11.9224502911,17.6698466756,11.6838450646\O,0,12.
 9616479016,17.0035944028,11.610162985\C,0,11.3926801368,19.8548754902,
 10.48054683\C,0,11.2911713457,21.3949524679,10.4817735135\C,0,10.75473
 96751,21.8638016751,9.1208550179\C,0,10.4156575403,21.9167491698,11.62
 91585656\H,0,13.7323872255,20.231078834,11.2658495884\H,0,11.285877126
 9,19.5152050168,12.6123904973\H,0,10.3931939588,19.4441548656,10.29286
 98169\H,0,12.0235940111,19.5186345841,9.6464403021\H,0,12.2995214447,2
 1.8163128836,10.6051688491\H,0,9.7355454924,21.4936522841,8.9538272311
 \H,0,10.7238869241,22.9569367608,9.073328325\H,0,11.3823131392,21.5086
 147575,8.2956313133\H,0,9.4087593635,21.4816048716,11.5841902272\H,0,1
 0.8422703565,21.6940230771,12.614586108\H,0,10.307215547,23.0039509825
 ,11.5642571645\N,0,10.6795222035,17.1523103591,11.7360821588\C,0,10.22
 36002585,15.7906544273,11.3925113847\C,0,8.8024582834,15.5921819749,11
 .9596877194\O,0,8.0031537648,14.8947311298,11.3925966541\C,0,11.155024
 2852,14.6159899899,11.7613624536\C,0,11.6816197375,14.4567533292,13.19
 73651436\C,0,10.6759165768,14.414904526,14.3605563325\N,0,10.478566117
 2,15.7775328945,14.920944526\C,0,9.6291666728,15.8693576184,16.0791392
 906\N,0,8.3870893426,15.6177802114,16.1306293642\N,0,10.3156194649,16.
 3786991339,17.2009914259\O,0,8.5115857887,16.2623885778,13.0946964092\
 H,0,9.3374397569,16.4229624238,13.6330554547\H,0,9.9238203213,17.82753
 69348,11.7712013856\H,0,10.089453409,15.7412841165,10.3062344765\H,0,1
 2.0216467144,14.65855355,11.0970797181\H,0,10.5861501017,13.7204272364
 ,11.4837152413\H,0,12.2496853,13.5196423911,13.2078319109\H,0,12.41495
 15209,15.2469160344,13.3987732151\H,0,11.045305433,13.7385440656,15.14
 28673925\H,0,9.7054467144,14.0262908763,14.0397190631\H,0,11.391334722
 9,16.1624024585,15.1562935659\H,0,7.9906435325,15.3979662904,15.215849
 3018\H,0,9.6592869628,16.4635440165,17.9746374322\H,0,11.091663802,15.
 7824511614,17.4839666982\\Version=ES64L-G16RevC.01\HF=-1447.4515003\RM
 SD=6.898e-10\Dipole=3.0152149,1.7059465,1.6934303\Quadrupole=-261.8522
 681,359.9028961,-98.050628,856.4916791,685.1123914,939.860492\PG=C01 [
 X(C17H33N6O6)]\\@
 The archive entry for this job was punched.


 DEFINE YOUR TERMS, YOU WILL PERMIT ME AGAIN TO SAY, 
 OR WE SHALL NEVER UNDERSTAND ONE ANOTHER.

                                    -- VOLTAIRE
 Job cpu time:       0 days  0 hours  2 minutes 33.9 seconds.
 Elapsed time:       0 days  0 hours  0 minutes 38.9 seconds.
 File lengths (MBytes):  RWF=    248 Int=      0 D2E=      0 Chk=     32 Scr=     16
 Normal termination of Gaussian 16 at Tue May 24 03:34:32 2022.
