 Entering Gaussian System, Link 0=/opt/software/Gaussian/g16-AVX2-C.01/g16/g16
 Input=charge-conf-49.com
 Output=charge-conf-49.log
 Initial command:
 /opt/software/Gaussian/g16-AVX2-C.01/g16/l1.exe "/mnt/gs18/scratch/users/kengmith/Gau-11194.inp" -scrdir="/mnt/gs18/scratch/users/kengmith/"
 Entering Link 1 = /opt/software/Gaussian/g16-AVX2-C.01/g16/l1.exe PID=     11204.
  
 Copyright (c) 1988-2019, Gaussian, Inc.  All Rights Reserved.
  
 This is part of the Gaussian(R) 16 program.  It is based on
 the Gaussian(R) 09 system (copyright 2009, Gaussian, Inc.),
 the Gaussian(R) 03 system (copyright 2003, Gaussian, Inc.),
 the Gaussian(R) 98 system (copyright 1998, Gaussian, Inc.),
 the Gaussian(R) 94 system (copyright 1995, Gaussian, Inc.),
 the Gaussian 92(TM) system (copyright 1992, Gaussian, Inc.),
 the Gaussian 90(TM) system (copyright 1990, Gaussian, Inc.),
 the Gaussian 88(TM) system (copyright 1988, Gaussian, Inc.),
 the Gaussian 86(TM) system (copyright 1986, Carnegie Mellon
 University), and the Gaussian 82(TM) system (copyright 1983,
 Carnegie Mellon University). Gaussian is a federally registered
 trademark of Gaussian, Inc.
  
 This software contains proprietary and confidential information,
 including trade secrets, belonging to Gaussian, Inc.
  
 This software is provided under written license and may be
 used, copied, transmitted, or stored only in accord with that
 written license.
  
 The following legend is applicable only to US Government
 contracts under FAR:
  
                    RESTRICTED RIGHTS LEGEND
  
 Use, reproduction and disclosure by the US Government is
 subject to restrictions as set forth in subparagraphs (a)
 and (c) of the Commercial Computer Software - Restricted
 Rights clause in FAR 52.227-19.
  
 Gaussian, Inc.
 340 Quinnipiac St., Bldg. 40, Wallingford CT 06492
  
  
 ---------------------------------------------------------------
 Warning -- This program may not be used in any manner that
 competes with the business of Gaussian, Inc. or will provide
 assistance to any competitor of Gaussian, Inc.  The licensee
 of this program is prohibited from giving any competitor of
 Gaussian, Inc. access to this program.  By using this program,
 the user acknowledges that Gaussian, Inc. is engaged in the
 business of creating and licensing software in the field of
 computational chemistry and represents and warrants to the
 licensee that it is not a competitor of Gaussian, Inc. and that
 it will not use this program in any manner prohibited above.
 ---------------------------------------------------------------
  

 Cite this work as:
 Gaussian 16, Revision C.01,
 M. J. Frisch, G. W. Trucks, H. B. Schlegel, G. E. Scuseria, 
 M. A. Robb, J. R. Cheeseman, G. Scalmani, V. Barone, 
 G. A. Petersson, H. Nakatsuji, X. Li, M. Caricato, A. V. Marenich, 
 J. Bloino, B. G. Janesko, R. Gomperts, B. Mennucci, H. P. Hratchian, 
 J. V. Ortiz, A. F. Izmaylov, J. L. Sonnenberg, D. Williams-Young, 
 F. Ding, F. Lipparini, F. Egidi, J. Goings, B. Peng, A. Petrone, 
 T. Henderson, D. Ranasinghe, V. G. Zakrzewski, J. Gao, N. Rega, 
 G. Zheng, W. Liang, M. Hada, M. Ehara, K. Toyota, R. Fukuda, 
 J. Hasegawa, M. Ishida, T. Nakajima, Y. Honda, O. Kitao, H. Nakai, 
 T. Vreven, K. Throssell, J. A. Montgomery, Jr., J. E. Peralta, 
 F. Ogliaro, M. J. Bearpark, J. J. Heyd, E. N. Brothers, K. N. Kudin, 
 V. N. Staroverov, T. A. Keith, R. Kobayashi, J. Normand, 
 K. Raghavachari, A. P. Rendell, J. C. Burant, S. S. Iyengar, 
 J. Tomasi, M. Cossi, J. M. Millam, M. Klene, C. Adamo, R. Cammi, 
 J. W. Ochterski, R. L. Martin, K. Morokuma, O. Farkas, 
 J. B. Foresman, and D. J. Fox, Gaussian, Inc., Wallingford CT, 2019.
 
 ******************************************
 Gaussian 16:  ES64L-G16RevC.01  3-Jul-2019
                24-May-2022 
 ******************************************
 %mem=8gb
 %nproc=4
 Will use up to    4 processors via shared memory.
 %chk=conf-49.chk
 ----------------------------------------------------------------------
 # B3LYP/6-31G* empiricaldispersion=gd3 guess=read geom=check nosymm in
 tegral(ultrafinegrid)
 ----------------------------------------------------------------------
 1/29=2,38=1,172=1/1;
 2/12=2,15=1,40=1/2;
 3/5=1,6=6,7=1,11=2,14=-4,25=1,30=1,74=-5,75=-5,116=-2,124=31/1,2,3;
 4/5=1/1;
 5/5=2,38=6/2;
 6/7=2,8=2,9=2,10=2,28=1/1;
 99/5=1,9=1/99;
 -----------------------------------------------------
 Candidate Structure: Conf:49 Charge calc in gas phase
 -----------------------------------------------------
 Structure from the checkpoint file:  "conf-49.chk"
 Charge =  1 Multiplicity = 1
 Redundant internal coordinates found in file.  (old form).
 N,0,12.2947837178,20.8997049138,13.27030333
 C,0,11.3291631954,20.1268397377,14.1379911011
 C,0,9.969203021,20.3567818535,13.4544166814
 O,0,9.5869414466,21.5157256701,13.3406056747
 C,0,11.3266017095,20.5968638231,15.5964876379
 C,0,12.7277398638,20.6361552046,16.2742078877
 C,0,13.5921542643,19.5124367472,15.7450396935
 O,0,14.2368643441,19.6303047019,14.7026677759
 O,0,13.4884901993,18.3757353316,16.4108767145
 H,0,13.8817981908,17.6308393922,15.8553295983
 H,0,13.2581758163,20.7955557987,13.6497285593
 H,0,11.6696257657,19.0964644215,14.0805920896
 H,0,10.6806543429,19.8957441537,16.1360537468
 H,0,10.8561863733,21.5825802261,15.6604270243
 H,0,13.2362239057,21.5778856008,16.0487916529
 H,0,12.6067821878,20.5629503845,17.3570979222
 H,0,12.2458556413,20.4445308798,12.3384167407
 H,0,11.9899876475,21.8771563532,13.1969904511
 N,0,9.2873351115,19.2780447031,13.0021786757
 C,0,9.7950686692,17.9215751276,12.8382201487
 C,0,10.9314457749,17.890914321,11.7745787654
 O,0,11.5932833213,18.9035246546,11.5005709826
 C,0,8.6351119949,16.9414399041,12.591863978
 C,0,7.5283809144,16.9741891579,13.6682888038
 C,0,6.4959561367,15.8800763467,13.3597333035
 C,0,8.1000810021,16.8140363496,15.0851851365
 H,0,8.4385310607,19.5206635609,12.5009653546
 H,0,10.2701421905,17.6073433537,13.7745295489
 H,0,9.0457301174,15.9244118823,12.5832162736
 H,0,8.2023272639,17.1232848327,11.5986880707
 H,0,7.016185446,17.9452092254,13.6123041431
 H,0,5.6587378767,15.9282445875,14.0635042821
 H,0,6.0895374064,15.9818985805,12.3466574627
 H,0,6.9469730365,14.8834711361,13.4442065863
 H,0,7.2901581213,16.6929513788,15.811880384
 H,0,8.7595628943,15.9405053247,15.1500087273
 H,0,8.6808173936,17.6929339082,15.3911708073
 N,0,11.2375281125,16.6853662557,11.2647976423
 C,0,12.3090124791,16.4506898104,10.2971350329
 C,0,12.089740972,15.0294210948,9.7815602205
 O,0,11.2700166186,14.262667497,10.2422455893
 C,0,13.7412866017,16.6207646412,10.8657138794
 C,0,14.0043870819,15.8517122352,12.1826945243
 C,0,13.9799255397,16.8134104186,13.3839299787
 N,0,13.8943356304,16.2064312266,14.7220412664
 C,0,12.660602358,15.6034562366,15.1160573729
 N,0,11.5574749541,15.6091585553,14.4590388845
 N,0,12.7534085538,15.0012436582,16.3489475247
 O,0,12.9248596535,14.7368519748,8.7772485376
 H,0,12.7461878943,13.818687061,8.4952388078
 H,0,10.6251384655,15.8876760649,11.4092005588
 H,0,12.194571656,17.1417076634,9.4538930969
 H,0,13.9070034877,17.692745082,11.0133254453
 H,0,14.4307008776,16.3020961126,10.0794583053
 H,0,13.265685858,15.0528931858,12.3179158058
 H,0,14.9811101012,15.3571361395,12.1417313045
 H,0,13.1367054968,17.5025720326,13.2941440828
 H,0,14.8694461121,17.4482515276,13.3764143699
 H,0,14.6881596722,15.6049086575,14.9361708935
 H,0,11.7080805623,15.9036020988,13.4985035556
 H,0,11.8733872154,14.63691161,16.691876924
 H,0,13.3223809901,15.4484265005,17.0569582895
 Recover connectivity data from disk.
                           ----------------------------
                           !    Current Parameters    !
                           ! (Angstroms and Degrees)  !
 --------------------------                            --------------------------
 ! Name  Definition              Value                                          !
 --------------------------------------------------------------------------------
 ! R1    R(1,2)                  1.5108                                         !
 ! R2    R(1,11)                 1.0406                                         !
 ! R3    R(1,17)                 1.0383                                         !
 ! R4    R(1,18)                 1.0265                                         !
 ! R5    R(2,3)                  1.5394                                         !
 ! R6    R(2,5)                  1.5324                                         !
 ! R7    R(2,12)                 1.0867                                         !
 ! R8    R(3,4)                  1.2257                                         !
 ! R9    R(3,19)                 1.3539                                         !
 ! R10   R(5,6)                  1.5569                                         !
 ! R11   R(5,13)                 1.0954                                         !
 ! R12   R(5,14)                 1.0941                                         !
 ! R13   R(6,7)                  1.5133                                         !
 ! R14   R(6,15)                 1.0937                                         !
 ! R15   R(6,16)                 1.0921                                         !
 ! R16   R(7,8)                  1.2313                                         !
 ! R17   R(7,9)                  1.3214                                         !
 ! R18   R(9,10)                 1.0091                                         !
 ! R19   R(19,20)                1.4576                                         !
 ! R20   R(19,27)                1.0152                                         !
 ! R21   R(20,21)                1.5568                                         !
 ! R22   R(20,23)                1.5385                                         !
 ! R23   R(20,28)                1.096                                          !
 ! R24   R(21,22)                1.2404                                         !
 ! R25   R(21,38)                1.3442                                         !
 ! R26   R(23,24)                1.5442                                         !
 ! R27   R(23,29)                1.0968                                         !
 ! R28   R(23,30)                1.0985                                         !
 ! R29   R(24,25)                1.5356                                         !
 ! R30   R(24,26)                1.5363                                         !
 ! R31   R(24,31)                1.0993                                         !
 ! R32   R(25,32)                1.0948                                         !
 ! R33   R(25,33)                1.0963                                         !
 ! R34   R(25,34)                1.0972                                         !
 ! R35   R(26,35)                1.0949                                         !
 ! R36   R(26,36)                1.0964                                         !
 ! R37   R(26,37)                1.097                                          !
 ! R38   R(38,39)                1.4627                                         !
 ! R39   R(38,51)                1.016                                          !
 ! R40   R(39,40)                1.5277                                         !
 ! R41   R(39,42)                1.5504                                         !
 ! R42   R(39,52)                1.0962                                         !
 ! R43   R(40,41)                1.2133                                         !
 ! R44   R(40,49)                1.3385                                         !
 ! R45   R(42,43)                1.5476                                         !
 ! R46   R(42,53)                1.0947                                         !
 ! R47   R(42,54)                1.0932                                         !
 ! R48   R(43,44)                1.539                                          !
 ! R49   R(43,55)                1.0964                                         !
 ! R50   R(43,56)                1.0956                                         !
 ! R51   R(44,45)                1.4718                                         !
 ! R52   R(44,57)                1.0927                                         !
 ! R53   R(44,58)                1.0929                                         !
 ! R54   R(45,46)                1.4286                                         !
 ! R55   R(45,59)                1.0187                                         !
 ! R56   R(46,47)                1.284                                          !
 ! R57   R(46,48)                1.3752                                         !
 ! R58   R(47,60)                1.0159                                         !
 ! R59   R(48,61)                1.0123                                         !
 ! R60   R(48,62)                1.0124                                         !
 ! R61   R(49,50)                0.977                                          !
 ! A1    A(2,1,11)             109.3351                                         !
 ! A2    A(2,1,17)             105.1346                                         !
 ! A3    A(2,1,18)             109.7764                                         !
 ! A4    A(11,1,17)            109.0869                                         !
 ! A5    A(11,1,18)            113.3426                                         !
 ! A6    A(17,1,18)            109.8378                                         !
 ! A7    A(1,2,3)              103.4856                                         !
 ! A8    A(1,2,5)              113.0034                                         !
 ! A9    A(1,2,12)             104.7418                                         !
 ! A10   A(3,2,5)              112.0467                                         !
 ! A11   A(3,2,12)             113.2641                                         !
 ! A12   A(5,2,12)             109.9765                                         !
 ! A13   A(2,3,4)              117.2591                                         !
 ! A14   A(2,3,19)             118.3097                                         !
 ! A15   A(4,3,19)             124.4225                                         !
 ! A16   A(2,5,6)              114.869                                          !
 ! A17   A(2,5,13)             105.8717                                         !
 ! A18   A(2,5,14)             109.4323                                         !
 ! A19   A(6,5,13)             109.4155                                         !
 ! A20   A(6,5,14)             109.8016                                         !
 ! A21   A(13,5,14)            107.117                                          !
 ! A22   A(5,6,7)              110.0664                                         !
 ! A23   A(5,6,15)             110.5122                                         !
 ! A24   A(5,6,16)             109.2846                                         !
 ! A25   A(7,6,15)             107.5625                                         !
 ! A26   A(7,6,16)             111.1146                                         !
 ! A27   A(15,6,16)            108.2749                                         !
 ! A28   A(6,7,8)              121.6039                                         !
 ! A29   A(6,7,9)              114.6932                                         !
 ! A30   A(8,7,9)              123.366                                          !
 ! A31   A(7,9,10)             109.0881                                         !
 ! A32   A(3,19,20)            127.1278                                         !
 ! A33   A(3,19,27)            113.3026                                         !
 ! A34   A(20,19,27)           117.2659                                         !
 ! A35   A(19,20,21)           110.453                                          !
 ! A36   A(19,20,23)           110.3807                                         !
 ! A37   A(19,20,28)           108.7668                                         !
 ! A38   A(21,20,23)           115.3664                                         !
 ! A39   A(21,20,28)           105.1672                                         !
 ! A40   A(23,20,28)           106.3182                                         !
 ! A41   A(20,21,22)           121.6238                                         !
 ! A42   A(20,21,38)           116.2942                                         !
 ! A43   A(22,21,38)           121.7957                                         !
 ! A44   A(20,23,24)           114.534                                          !
 ! A45   A(20,23,29)           108.0433                                         !
 ! A46   A(20,23,30)           109.6549                                         !
 ! A47   A(24,23,29)           107.0657                                         !
 ! A48   A(24,23,30)           110.1422                                         !
 ! A49   A(29,23,30)           107.0887                                         !
 ! A50   A(23,24,25)           109.0666                                         !
 ! A51   A(23,24,26)           111.9618                                         !
 ! A52   A(23,24,31)           108.4921                                         !
 ! A53   A(25,24,26)           111.1761                                         !
 ! A54   A(25,24,31)           107.8106                                         !
 ! A55   A(26,24,31)           108.2074                                         !
 ! A56   A(24,25,32)           110.7092                                         !
 ! A57   A(24,25,33)           111.638                                          !
 ! A58   A(24,25,34)           110.8142                                         !
 ! A59   A(32,25,33)           107.8456                                         !
 ! A60   A(32,25,34)           107.7482                                         !
 ! A61   A(33,25,34)           107.9331                                         !
 ! A62   A(24,26,35)           110.3897                                         !
 ! A63   A(24,26,36)           111.1872                                         !
 ! A64   A(24,26,37)           111.7619                                         !
 ! A65   A(35,26,36)           108.5173                                         !
 ! A66   A(35,26,37)           107.1631                                         !
 ! A67   A(36,26,37)           107.6623                                         !
 ! A68   A(21,38,39)           124.165                                          !
 ! A69   A(21,38,51)           120.8643                                         !
 ! A70   A(39,38,51)           114.1801                                         !
 ! A71   A(38,39,40)           105.5086                                         !
 ! A72   A(38,39,42)           114.6151                                         !
 ! A73   A(38,39,52)           109.3466                                         !
 ! A74   A(40,39,42)           111.0033                                         !
 ! A75   A(40,39,52)           108.1717                                         !
 ! A76   A(42,39,52)           108.0233                                         !
 ! A77   A(39,40,41)           123.8318                                         !
 ! A78   A(39,40,49)           111.5315                                         !
 ! A79   A(41,40,49)           124.6305                                         !
 ! A80   A(39,42,43)           114.496                                          !
 ! A81   A(39,42,53)           107.2609                                         !
 ! A82   A(39,42,54)           106.6704                                         !
 ! A83   A(43,42,53)           110.2507                                         !
 ! A84   A(43,42,54)           111.0992                                         !
 ! A85   A(53,42,54)           106.6765                                         !
 ! A86   A(42,43,44)           110.5481                                         !
 ! A87   A(42,43,55)           110.6384                                         !
 ! A88   A(42,43,56)           110.1253                                         !
 ! A89   A(44,43,55)           110.3844                                         !
 ! A90   A(44,43,56)           108.9931                                         !
 ! A91   A(55,43,56)           106.0437                                         !
 ! A92   A(43,44,45)           116.9266                                         !
 ! A93   A(43,44,57)           110.0137                                         !
 ! A94   A(43,44,58)           110.1634                                         !
 ! A95   A(45,44,57)           106.8533                                         !
 ! A96   A(45,44,58)           107.0465                                         !
 ! A97   A(57,44,58)           105.1393                                         !
 ! A98   A(44,45,46)           118.3611                                         !
 ! A99   A(44,45,59)           112.9099                                         !
 ! A100  A(46,45,59)           111.4532                                         !
 ! A101  A(45,46,47)           126.7946                                         !
 ! A102  A(45,46,48)           111.9502                                         !
 ! A103  A(47,46,48)           121.2426                                         !
 ! A104  A(46,47,60)           110.9619                                         !
 ! A105  A(46,48,61)           113.7426                                         !
 ! A106  A(46,48,62)           118.1284                                         !
 ! A107  A(61,48,62)           114.2436                                         !
 ! A108  A(40,49,50)           107.9326                                         !
 ! D1    D(11,1,2,3)          -179.3459                                         !
 ! D2    D(11,1,2,5)            59.2439                                         !
 ! D3    D(11,1,2,12)          -60.4582                                         !
 ! D4    D(17,1,2,3)           -62.3516                                         !
 ! D5    D(17,1,2,5)           176.2382                                         !
 ! D6    D(17,1,2,12)           56.5361                                         !
 ! D7    D(18,1,2,3)            55.7369                                         !
 ! D8    D(18,1,2,5)           -65.6734                                         !
 ! D9    D(18,1,2,12)          174.6246                                         !
 ! D10   D(1,2,3,4)            -59.0547                                         !
 ! D11   D(1,2,3,19)           119.9202                                         !
 ! D12   D(5,2,3,4)             62.9972                                         !
 ! D13   D(5,2,3,19)          -118.0279                                         !
 ! D14   D(12,2,3,4)          -171.881                                          !
 ! D15   D(12,2,3,19)            7.0938                                         !
 ! D16   D(1,2,5,6)            -53.0134                                         !
 ! D17   D(1,2,5,13)          -173.8576                                         !
 ! D18   D(1,2,5,14)            71.0057                                         !
 ! D19   D(3,2,5,6)           -169.4536                                         !
 ! D20   D(3,2,5,13)            69.7022                                         !
 ! D21   D(3,2,5,14)           -45.4345                                         !
 ! D22   D(12,2,5,6)            63.6321                                         !
 ! D23   D(12,2,5,13)          -57.2121                                         !
 ! D24   D(12,2,5,14)         -172.3488                                         !
 ! D25   D(2,3,19,20)          -13.3239                                         !
 ! D26   D(2,3,19,27)         -175.4457                                         !
 ! D27   D(4,3,19,20)          165.5714                                         !
 ! D28   D(4,3,19,27)            3.4496                                         !
 ! D29   D(2,5,6,7)            -34.0785                                         !
 ! D30   D(2,5,6,15)            84.5844                                         !
 ! D31   D(2,5,6,16)          -156.3631                                         !
 ! D32   D(13,5,6,7)            84.8021                                         !
 ! D33   D(13,5,6,15)         -156.535                                          !
 ! D34   D(13,5,6,16)          -37.4824                                         !
 ! D35   D(14,5,6,7)          -157.9019                                         !
 ! D36   D(14,5,6,15)          -39.239                                          !
 ! D37   D(14,5,6,16)           79.8135                                         !
 ! D38   D(5,6,7,8)             84.6434                                         !
 ! D39   D(5,6,7,9)            -88.9048                                         !
 ! D40   D(15,6,7,8)           -35.8143                                         !
 ! D41   D(15,6,7,9)           150.6374                                         !
 ! D42   D(16,6,7,8)          -154.1605                                         !
 ! D43   D(16,6,7,9)            32.2912                                         !
 ! D44   D(6,7,9,10)           164.3415                                         !
 ! D45   D(8,7,9,10)            -9.0786                                         !
 ! D46   D(3,19,20,21)         -63.3876                                         !
 ! D47   D(3,19,20,23)         167.8333                                         !
 ! D48   D(3,19,20,28)          51.5507                                         !
 ! D49   D(27,19,20,21)         98.1189                                         !
 ! D50   D(27,19,20,23)        -30.6602                                         !
 ! D51   D(27,19,20,28)       -146.9428                                         !
 ! D52   D(19,20,21,22)         23.3946                                         !
 ! D53   D(19,20,21,38)       -162.6471                                         !
 ! D54   D(23,20,21,22)        149.4218                                         !
 ! D55   D(23,20,21,38)        -36.6199                                         !
 ! D56   D(28,20,21,22)        -93.7897                                         !
 ! D57   D(28,20,21,38)         80.1686                                         !
 ! D58   D(19,20,23,24)        -54.7314                                         !
 ! D59   D(19,20,23,29)       -173.9385                                         !
 ! D60   D(19,20,23,30)         69.6688                                         !
 ! D61   D(21,20,23,24)        179.2044                                         !
 ! D62   D(21,20,23,29)         59.9973                                         !
 ! D63   D(21,20,23,30)        -56.3953                                         !
 ! D64   D(28,20,23,24)         63.0678                                         !
 ! D65   D(28,20,23,29)        -56.1393                                         !
 ! D66   D(28,20,23,30)       -172.532                                          !
 ! D67   D(20,21,38,39)       -177.4719                                         !
 ! D68   D(20,21,38,51)         13.3144                                         !
 ! D69   D(22,21,38,39)         -3.5248                                         !
 ! D70   D(22,21,38,51)       -172.7385                                         !
 ! D71   D(20,23,24,25)       -175.6655                                         !
 ! D72   D(20,23,24,26)        -52.1966                                         !
 ! D73   D(20,23,24,31)         67.1513                                         !
 ! D74   D(29,23,24,25)        -55.9113                                         !
 ! D75   D(29,23,24,26)         67.5575                                         !
 ! D76   D(29,23,24,31)       -173.0945                                         !
 ! D77   D(30,23,24,25)         60.1931                                         !
 ! D78   D(30,23,24,26)       -176.338                                          !
 ! D79   D(30,23,24,31)        -56.9901                                         !
 ! D80   D(23,24,25,32)       -175.7134                                         !
 ! D81   D(23,24,25,33)        -55.5525                                         !
 ! D82   D(23,24,25,34)         64.7908                                         !
 ! D83   D(26,24,25,32)         60.3521                                         !
 ! D84   D(26,24,25,33)       -179.487                                          !
 ! D85   D(26,24,25,34)        -59.1438                                         !
 ! D86   D(31,24,25,32)        -58.0991                                         !
 ! D87   D(31,24,25,33)         62.0618                                         !
 ! D88   D(31,24,25,34)       -177.5949                                         !
 ! D89   D(23,24,26,35)       -171.6885                                         !
 ! D90   D(23,24,26,36)        -51.1939                                         !
 ! D91   D(23,24,26,37)         69.1447                                         !
 ! D92   D(25,24,26,35)        -49.4157                                         !
 ! D93   D(25,24,26,36)         71.0789                                         !
 ! D94   D(25,24,26,37)       -168.5825                                         !
 ! D95   D(31,24,26,35)         68.7962                                         !
 ! D96   D(31,24,26,36)       -170.7092                                         !
 ! D97   D(31,24,26,37)        -50.3706                                         !
 ! D98   D(21,38,39,40)       -167.8726                                         !
 ! D99   D(21,38,39,42)         69.6969                                         !
 ! D100  D(21,38,39,52)        -51.7402                                         !
 ! D101  D(51,38,39,40)          1.9851                                         !
 ! D102  D(51,38,39,42)       -120.4455                                         !
 ! D103  D(51,38,39,52)        118.1175                                         !
 ! D104  D(38,39,40,41)         -7.5022                                         !
 ! D105  D(38,39,40,49)        173.3622                                         !
 ! D106  D(42,39,40,41)        117.2172                                         !
 ! D107  D(42,39,40,49)        -61.9184                                         !
 ! D108  D(52,39,40,41)       -124.4338                                         !
 ! D109  D(52,39,40,49)         56.4305                                         !
 ! D110  D(38,39,42,43)         50.0333                                         !
 ! D111  D(38,39,42,53)        -72.6421                                         !
 ! D112  D(38,39,42,54)        173.3583                                         !
 ! D113  D(40,39,42,43)        -69.3692                                         !
 ! D114  D(40,39,42,53)        167.9554                                         !
 ! D115  D(40,39,42,54)         53.9559                                         !
 ! D116  D(52,39,42,43)        172.1922                                         !
 ! D117  D(52,39,42,53)         49.5168                                         !
 ! D118  D(52,39,42,54)        -64.4828                                         !
 ! D119  D(39,40,49,50)        179.4613                                         !
 ! D120  D(41,40,49,50)          0.3339                                         !
 ! D121  D(39,42,43,44)       -103.2011                                         !
 ! D122  D(39,42,43,55)         19.3923                                         !
 ! D123  D(39,42,43,56)        136.2995                                         !
 ! D124  D(53,42,43,44)         17.8404                                         !
 ! D125  D(53,42,43,55)        140.4338                                         !
 ! D126  D(53,42,43,56)       -102.659                                          !
 ! D127  D(54,42,43,44)        135.8882                                         !
 ! D128  D(54,42,43,55)       -101.5184                                         !
 ! D129  D(54,42,43,56)         15.3888                                         !
 ! D130  D(42,43,44,45)        165.9143                                         !
 ! D131  D(42,43,44,57)         43.8361                                         !
 ! D132  D(42,43,44,58)        -71.6219                                         !
 ! D133  D(55,43,44,45)         43.1727                                         !
 ! D134  D(55,43,44,57)        -78.9055                                         !
 ! D135  D(55,43,44,58)        165.6365                                         !
 ! D136  D(56,43,44,45)        -72.9125                                         !
 ! D137  D(56,43,44,57)        165.0093                                         !
 ! D138  D(56,43,44,58)         49.5513                                         !
 ! D139  D(43,44,45,46)        -71.4296                                         !
 ! D140  D(43,44,45,59)         61.364                                          !
 ! D141  D(57,44,45,46)         52.2777                                         !
 ! D142  D(57,44,45,59)       -174.9288                                         !
 ! D143  D(58,44,45,46)        164.5068                                         !
 ! D144  D(58,44,45,59)        -62.6997                                         !
 ! D145  D(44,45,46,47)         -5.3491                                         !
 ! D146  D(44,45,46,48)        175.9442                                         !
 ! D147  D(59,45,46,47)       -138.7771                                         !
 ! D148  D(59,45,46,48)         42.5161                                         !
 ! D149  D(45,46,47,60)         14.0523                                         !
 ! D150  D(48,46,47,60)       -167.3507                                         !
 ! D151  D(45,46,48,61)        174.8395                                         !
 ! D152  D(45,46,48,62)         36.7833                                         !
 ! D153  D(47,46,48,61)         -3.9493                                         !
 ! D154  D(47,46,48,62)       -142.0055                                         !
 --------------------------------------------------------------------------------
 Symmetry turned off by external request.
 Stoichiometry    C17H33N6O6(1+)
 Framework group  C1[X(C17H33N6O6)]
 Deg. of freedom   180
 Full point group                 C1      NOp   1
                          Input orientation:                          
 ---------------------------------------------------------------------
 Center     Atomic      Atomic             Coordinates (Angstroms)
 Number     Number       Type             X           Y           Z
 ---------------------------------------------------------------------
      1          7           0       12.294784   20.899705   13.270303
      2          6           0       11.329163   20.126840   14.137991
      3          6           0        9.969203   20.356782   13.454417
      4          8           0        9.586941   21.515726   13.340606
      5          6           0       11.326602   20.596864   15.596488
      6          6           0       12.727740   20.636155   16.274208
      7          6           0       13.592154   19.512437   15.745040
      8          8           0       14.236864   19.630305   14.702668
      9          8           0       13.488490   18.375735   16.410877
     10          1           0       13.881798   17.630839   15.855330
     11          1           0       13.258176   20.795556   13.649729
     12          1           0       11.669626   19.096464   14.080592
     13          1           0       10.680654   19.895744   16.136054
     14          1           0       10.856186   21.582580   15.660427
     15          1           0       13.236224   21.577886   16.048792
     16          1           0       12.606782   20.562950   17.357098
     17          1           0       12.245856   20.444531   12.338417
     18          1           0       11.989988   21.877156   13.196990
     19          7           0        9.287335   19.278045   13.002179
     20          6           0        9.795069   17.921575   12.838220
     21          6           0       10.931446   17.890914   11.774579
     22          8           0       11.593283   18.903525   11.500571
     23          6           0        8.635112   16.941440   12.591864
     24          6           0        7.528381   16.974189   13.668289
     25          6           0        6.495956   15.880076   13.359733
     26          6           0        8.100081   16.814036   15.085185
     27          1           0        8.438531   19.520664   12.500965
     28          1           0       10.270142   17.607343   13.774530
     29          1           0        9.045730   15.924412   12.583216
     30          1           0        8.202327   17.123285   11.598688
     31          1           0        7.016185   17.945209   13.612304
     32          1           0        5.658738   15.928245   14.063504
     33          1           0        6.089537   15.981899   12.346657
     34          1           0        6.946973   14.883471   13.444207
     35          1           0        7.290158   16.692951   15.811880
     36          1           0        8.759563   15.940505   15.150009
     37          1           0        8.680817   17.692934   15.391171
     38          7           0       11.237528   16.685366   11.264798
     39          6           0       12.309012   16.450690   10.297135
     40          6           0       12.089741   15.029421    9.781560
     41          8           0       11.270017   14.262667   10.242246
     42          6           0       13.741287   16.620765   10.865714
     43          6           0       14.004387   15.851712   12.182695
     44          6           0       13.979926   16.813410   13.383930
     45          7           0       13.894336   16.206431   14.722041
     46          6           0       12.660602   15.603456   15.116057
     47          7           0       11.557475   15.609159   14.459039
     48          7           0       12.753409   15.001244   16.348948
     49          8           0       12.924860   14.736852    8.777249
     50          1           0       12.746188   13.818687    8.495239
     51          1           0       10.625138   15.887676   11.409201
     52          1           0       12.194572   17.141708    9.453893
     53          1           0       13.907003   17.692745   11.013325
     54          1           0       14.430701   16.302096   10.079458
     55          1           0       13.265686   15.052893   12.317916
     56          1           0       14.981110   15.357136   12.141731
     57          1           0       13.136705   17.502572   13.294144
     58          1           0       14.869446   17.448252   13.376414
     59          1           0       14.688160   15.604909   14.936171
     60          1           0       11.708081   15.903602   13.498504
     61          1           0       11.873387   14.636912   16.691877
     62          1           0       13.322381   15.448427   17.056958
 ---------------------------------------------------------------------
 Rotational constants (GHZ):           0.1728595           0.1376048           0.1149735
 Standard basis: 6-31G(d) (6D, 7F)
   501 basis functions,   944 primitive gaussians,   501 cartesian basis functions
   112 alpha electrons      112 beta electrons
       nuclear repulsion energy      3284.4882479101 Hartrees.
 NAtoms=   62 NActive=   62 NUniq=   62 SFac= 1.00D+00 NAtFMM=   60 NAOKFM=T Big=T
 Integral buffers will be    131072 words long.
 Raffenetti 2 integral format.
 Two-electron integral symmetry is turned off.
 Nuclear repulsion after empirical dispersion term =     3284.3963463614 Hartrees.
 One-electron integrals computed using PRISM.
 NBasis=   501 RedAO= T EigKep=  1.63D-03  NBF=   501
 NBsUse=   501 1.00D-06 EigRej= -1.00D+00 NBFU=   501
 Initial guess from the checkpoint file:  "conf-49.chk"
 B after Tr=     0.000000    0.000000    0.000000
         Rot=    1.000000    0.000000    0.000000    0.000000 Ang=   0.00 deg.
 Requested convergence on RMS density matrix=1.00D-08 within 128 cycles.
 Requested convergence on MAX density matrix=1.00D-06.
 Requested convergence on             energy=1.00D-06.
 No special actions if energy rises.
 SCF Done:  E(RB3LYP) =  -1447.49497014     A.U. after    1 cycles
            NFock=  1  Conv=0.92D-08     -V/T= 2.0093

 **********************************************************************

            Population analysis using the SCF Density.

 **********************************************************************

 Alpha  occ. eigenvalues --  -19.31413 -19.31064 -19.27043 -19.26158 -19.26004
 Alpha  occ. eigenvalues --  -19.24518 -14.57204 -14.49369 -14.49046 -14.48052
 Alpha  occ. eigenvalues --  -14.45173 -14.40231 -10.45110 -10.44107 -10.42621
 Alpha  occ. eigenvalues --  -10.42218 -10.39874 -10.39052 -10.36326 -10.36283
 Alpha  occ. eigenvalues --  -10.33812 -10.33701 -10.33019 -10.30723 -10.30358
 Alpha  occ. eigenvalues --  -10.30201 -10.28861 -10.26065 -10.25776  -1.22900
 Alpha  occ. eigenvalues --   -1.22602  -1.17825  -1.16735  -1.14073  -1.13838
 Alpha  occ. eigenvalues --   -1.11880  -1.09194  -1.05852  -1.05669  -1.00332
 Alpha  occ. eigenvalues --   -0.95801  -0.94151  -0.92659  -0.91073  -0.87250
 Alpha  occ. eigenvalues --   -0.86915  -0.84816  -0.79161  -0.78820  -0.77463
 Alpha  occ. eigenvalues --   -0.76541  -0.74290  -0.73689  -0.73319  -0.72882
 Alpha  occ. eigenvalues --   -0.71033  -0.70289  -0.70075  -0.68952  -0.66724
 Alpha  occ. eigenvalues --   -0.66391  -0.65019  -0.63700  -0.62915  -0.62478
 Alpha  occ. eigenvalues --   -0.61741  -0.61253  -0.61010  -0.59882  -0.59632
 Alpha  occ. eigenvalues --   -0.59202  -0.58172  -0.58023  -0.57659  -0.56638
 Alpha  occ. eigenvalues --   -0.56460  -0.55675  -0.55031  -0.54771  -0.54108
 Alpha  occ. eigenvalues --   -0.53973  -0.53284  -0.52706  -0.51991  -0.51550
 Alpha  occ. eigenvalues --   -0.51373  -0.50306  -0.50018  -0.49711  -0.49499
 Alpha  occ. eigenvalues --   -0.48975  -0.48407  -0.48286  -0.47237  -0.46972
 Alpha  occ. eigenvalues --   -0.46465  -0.46011  -0.45241  -0.44170  -0.43619
 Alpha  occ. eigenvalues --   -0.43160  -0.42133  -0.41954  -0.40708  -0.40342
 Alpha  occ. eigenvalues --   -0.39572  -0.39453  -0.38751  -0.38490  -0.37701
 Alpha  occ. eigenvalues --   -0.36982  -0.34926
 Alpha virt. eigenvalues --   -0.12876  -0.12302  -0.11386  -0.10588  -0.07422
 Alpha virt. eigenvalues --   -0.06668  -0.05006  -0.03510  -0.03138  -0.02939
 Alpha virt. eigenvalues --   -0.01871  -0.01062  -0.00318  -0.00082   0.00395
 Alpha virt. eigenvalues --    0.00452   0.01144   0.01579   0.02298   0.02812
 Alpha virt. eigenvalues --    0.03278   0.03613   0.03822   0.04131   0.04952
 Alpha virt. eigenvalues --    0.05440   0.05593   0.05754   0.06035   0.06647
 Alpha virt. eigenvalues --    0.06838   0.07180   0.07890   0.08296   0.08400
 Alpha virt. eigenvalues --    0.08940   0.09314   0.09710   0.10449   0.10795
 Alpha virt. eigenvalues --    0.11145   0.11626   0.12043   0.12477   0.12818
 Alpha virt. eigenvalues --    0.13435   0.14333   0.14620   0.14869   0.15286
 Alpha virt. eigenvalues --    0.15648   0.16057   0.16751   0.17632   0.18698
 Alpha virt. eigenvalues --    0.19603   0.21133   0.21977   0.23303   0.23858
 Alpha virt. eigenvalues --    0.25266   0.25670   0.28550   0.29486   0.30854
 Alpha virt. eigenvalues --    0.31899   0.36545   0.37072   0.38185   0.38896
 Alpha virt. eigenvalues --    0.40226   0.40455   0.41358   0.41619   0.42158
 Alpha virt. eigenvalues --    0.42754   0.43206   0.44039   0.44693   0.45301
 Alpha virt. eigenvalues --    0.45795   0.45952   0.46406   0.47149   0.47801
 Alpha virt. eigenvalues --    0.48095   0.49106   0.49802   0.50050   0.50614
 Alpha virt. eigenvalues --    0.50861   0.51724   0.52325   0.52493   0.53498
 Alpha virt. eigenvalues --    0.54274   0.54498   0.55590   0.55661   0.56312
 Alpha virt. eigenvalues --    0.57489   0.57995   0.58447   0.58682   0.59570
 Alpha virt. eigenvalues --    0.60043   0.61398   0.62211   0.63085   0.63610
 Alpha virt. eigenvalues --    0.63638   0.64096   0.65635   0.65657   0.65990
 Alpha virt. eigenvalues --    0.66754   0.67379   0.67829   0.68273   0.68489
 Alpha virt. eigenvalues --    0.68978   0.69627   0.70927   0.71329   0.71655
 Alpha virt. eigenvalues --    0.72257   0.72842   0.73750   0.73964   0.74096
 Alpha virt. eigenvalues --    0.75172   0.75351   0.75623   0.75999   0.76830
 Alpha virt. eigenvalues --    0.77311   0.77682   0.78313   0.78480   0.79005
 Alpha virt. eigenvalues --    0.79678   0.80066   0.80408   0.80841   0.81387
 Alpha virt. eigenvalues --    0.81853   0.82180   0.82631   0.83324   0.83966
 Alpha virt. eigenvalues --    0.84979   0.85192   0.85633   0.86157   0.86305
 Alpha virt. eigenvalues --    0.86975   0.87562   0.88618   0.89135   0.89651
 Alpha virt. eigenvalues --    0.89738   0.90800   0.91382   0.91941   0.93643
 Alpha virt. eigenvalues --    0.93681   0.94223   0.95481   0.95965   0.97034
 Alpha virt. eigenvalues --    0.97899   0.98457   0.99266   1.00017   1.00584
 Alpha virt. eigenvalues --    1.01445   1.01681   1.02666   1.03983   1.05657
 Alpha virt. eigenvalues --    1.06684   1.08048   1.08507   1.09869   1.10614
 Alpha virt. eigenvalues --    1.11774   1.13110   1.15342   1.15926   1.16670
 Alpha virt. eigenvalues --    1.17977   1.19001   1.21208   1.23240   1.23664
 Alpha virt. eigenvalues --    1.25067   1.25837   1.26687   1.26965   1.27948
 Alpha virt. eigenvalues --    1.28815   1.29063   1.30252   1.30731   1.31524
 Alpha virt. eigenvalues --    1.33202   1.34555   1.36090   1.37255   1.37910
 Alpha virt. eigenvalues --    1.39363   1.41797   1.44571   1.44798   1.46186
 Alpha virt. eigenvalues --    1.46451   1.47211   1.48264   1.49999   1.51487
 Alpha virt. eigenvalues --    1.52216   1.53587   1.54294   1.55283   1.56904
 Alpha virt. eigenvalues --    1.57415   1.58171   1.59463   1.59889   1.61029
 Alpha virt. eigenvalues --    1.61218   1.62924   1.63589   1.64528   1.65159
 Alpha virt. eigenvalues --    1.65499   1.66295   1.66901   1.67488   1.67954
 Alpha virt. eigenvalues --    1.68726   1.69263   1.70026   1.70196   1.71138
 Alpha virt. eigenvalues --    1.72067   1.72541   1.73641   1.74012   1.74851
 Alpha virt. eigenvalues --    1.75718   1.75898   1.76749   1.77811   1.78391
 Alpha virt. eigenvalues --    1.79052   1.79824   1.80960   1.81806   1.81882
 Alpha virt. eigenvalues --    1.82643   1.83625   1.84000   1.84430   1.85626
 Alpha virt. eigenvalues --    1.86682   1.87450   1.88403   1.89213   1.89756
 Alpha virt. eigenvalues --    1.91228   1.91638   1.92467   1.94052   1.95115
 Alpha virt. eigenvalues --    1.95558   1.96557   1.97390   1.97618   1.98459
 Alpha virt. eigenvalues --    1.98712   1.99121   2.01080   2.01470   2.04067
 Alpha virt. eigenvalues --    2.04183   2.05823   2.06744   2.07486   2.08914
 Alpha virt. eigenvalues --    2.09094   2.09428   2.12558   2.13782   2.15074
 Alpha virt. eigenvalues --    2.16368   2.16596   2.17006   2.17880   2.18599
 Alpha virt. eigenvalues --    2.19521   2.21079   2.21847   2.22769   2.23164
 Alpha virt. eigenvalues --    2.25380   2.26641   2.27898   2.28735   2.28829
 Alpha virt. eigenvalues --    2.30005   2.30263   2.30991   2.33937   2.35477
 Alpha virt. eigenvalues --    2.36918   2.38744   2.39956   2.41257   2.41598
 Alpha virt. eigenvalues --    2.42003   2.42503   2.43309   2.45323   2.47040
 Alpha virt. eigenvalues --    2.48012   2.49722   2.50523   2.51536   2.52766
 Alpha virt. eigenvalues --    2.54124   2.54761   2.55663   2.55876   2.58205
 Alpha virt. eigenvalues --    2.59342   2.59675   2.60298   2.62453   2.62859
 Alpha virt. eigenvalues --    2.64071   2.65303   2.67157   2.67795   2.70280
 Alpha virt. eigenvalues --    2.73336   2.75064   2.76648   2.82444   2.85278
 Alpha virt. eigenvalues --    2.86556   2.86901   2.88580   2.89315   2.93534
 Alpha virt. eigenvalues --    2.94071   2.96038   2.99747   3.04135   3.08749
 Alpha virt. eigenvalues --    3.69582   3.71195   3.76935   3.82224   3.89112
 Alpha virt. eigenvalues --    3.91754   3.95223   3.98435   4.00956   4.04673
 Alpha virt. eigenvalues --    4.05669   4.09322   4.11262   4.13333   4.14973
 Alpha virt. eigenvalues --    4.20515   4.21748   4.22904   4.23889   4.25725
 Alpha virt. eigenvalues --    4.30467   4.33694   4.38572   4.42747   4.46273
 Alpha virt. eigenvalues --    4.46975   4.54431   4.60240   4.64594
          Condensed to atoms (all electrons):
 Mulliken charges:
               1
     1  N   -0.761075
     2  C   -0.122406
     3  C    0.622788
     4  O   -0.504253
     5  C   -0.296490
     6  C   -0.361890
     7  C    0.593529
     8  O   -0.511499
     9  O   -0.568031
    10  H    0.454841
    11  H    0.426072
    12  H    0.199139
    13  H    0.203226
    14  H    0.209307
    15  H    0.187171
    16  H    0.212314
    17  H    0.440933
    18  H    0.407251
    19  N   -0.580041
    20  C   -0.102747
    21  C    0.652172
    22  O   -0.582220
    23  C   -0.321144
    24  C   -0.074249
    25  C   -0.450167
    26  C   -0.463080
    27  H    0.359804
    28  H    0.219498
    29  H    0.172211
    30  H    0.158786
    31  H    0.133627
    32  H    0.164968
    33  H    0.151596
    34  H    0.156064
    35  H    0.163110
    36  H    0.177185
    37  H    0.125346
    38  N   -0.634258
    39  C   -0.029217
    40  C    0.594049
    41  O   -0.458127
    42  C   -0.296563
    43  C   -0.290819
    44  C   -0.171747
    45  N   -0.670865
    46  C    0.589488
    47  N   -0.663418
    48  N   -0.736843
    49  O   -0.554274
    50  H    0.437760
    51  H    0.386492
    52  H    0.209674
    53  H    0.174144
    54  H    0.193193
    55  H    0.170346
    56  H    0.167568
    57  H    0.152445
    58  H    0.190817
    59  H    0.351320
    60  H    0.297637
    61  H    0.358956
    62  H    0.340595
 Sum of Mulliken charges =   1.00000
 Mulliken charges with hydrogens summed into heavy atoms:
               1
     1  N    0.513182
     2  C    0.076732
     3  C    0.622788
     4  O   -0.504253
     5  C    0.116044
     6  C    0.037596
     7  C    0.593529
     8  O   -0.511499
     9  O   -0.113189
    19  N   -0.220237
    20  C    0.116751
    21  C    0.652172
    22  O   -0.582220
    23  C    0.009852
    24  C    0.059377
    25  C    0.022461
    26  C    0.002562
    38  N   -0.247766
    39  C    0.180457
    40  C    0.594049
    41  O   -0.458127
    42  C    0.070773
    43  C    0.047095
    44  C    0.171515
    45  N   -0.319545
    46  C    0.589488
    47  N   -0.365781
    48  N   -0.037292
    49  O   -0.116514
 Electronic spatial extent (au):  <R**2>=         505569.8170
 Charge=              1.0000 electrons
 Dipole moment (field-independent basis, Debye):
    X=             59.0799    Y=             86.5159    Z=             64.4408  Tot=            122.9962
 Quadrupole moment (field-independent basis, Debye-Ang):
   XX=            577.9937   YY=           1416.3681   ZZ=            733.5215
   XY=           1062.5442   XZ=            794.7197   YZ=           1175.9151
 Traceless Quadrupole moment (field-independent basis, Debye-Ang):
   XX=           -331.3007   YY=            507.0736   ZZ=           -175.7729
   XY=           1062.5442   XZ=            794.7197   YZ=           1175.9151
 Octapole moment (field-independent basis, Debye-Ang**2):
  XXX=           3810.8462  YYY=          20624.7069  ZZZ=           6362.9383  XYY=          17579.8799
  XXY=          10387.7663  XXZ=           7823.0093  XZZ=           9232.0238  YZZ=          13603.4847
  YYZ=          19550.1290  XYZ=          14486.8844
 Hexadecapole moment (field-independent basis, Debye-Ang**3):
 XXXX=         -12457.7552 YYYY=         241093.6493 ZZZZ=          12387.2441 XXXY=          68469.5795
 XXXZ=          52639.4045 YYYX=         263746.6584 YYYZ=         290959.1519 ZZZX=          85466.8839
 ZZZY=         121649.8287 XXYY=         168720.8189 XXZZ=          88208.3530 YYZZ=         225523.7097
 XXYZ=         142728.8155 YYXZ=         243398.0555 ZZXY=         170894.9256
 N-N= 3.284396346361D+03 E-N=-9.916659070926D+03  KE= 1.434126546503D+03
 Unable to Open any file for archive entry.
 1\1\GINC-SKL-150\SP\RB3LYP\6-31G(d)\C17H33N6O6(1+)\KENGMITH\24-May-202
 2\0\\# B3LYP/6-31G* empiricaldispersion=gd3 guess=read geom=check nosy
 mm integral(ultrafinegrid)\\Candidate Structure: Conf:49 Charge calc i
 n gas phase\\1,1\N,0,12.2947837178,20.8997049138,13.27030333\C,0,11.32
 91631954,20.1268397377,14.1379911011\C,0,9.969203021,20.3567818535,13.
 4544166814\O,0,9.5869414466,21.5157256701,13.3406056747\C,0,11.3266017
 095,20.5968638231,15.5964876379\C,0,12.7277398638,20.6361552046,16.274
 2078877\C,0,13.5921542643,19.5124367472,15.7450396935\O,0,14.236864344
 1,19.6303047019,14.7026677759\O,0,13.4884901993,18.3757353316,16.41087
 67145\H,0,13.8817981908,17.6308393922,15.8553295983\H,0,13.2581758163,
 20.7955557987,13.6497285593\H,0,11.6696257657,19.0964644215,14.0805920
 896\H,0,10.6806543429,19.8957441537,16.1360537468\H,0,10.8561863733,21
 .5825802261,15.6604270243\H,0,13.2362239057,21.5778856008,16.048791652
 9\H,0,12.6067821878,20.5629503845,17.3570979222\H,0,12.2458556413,20.4
 445308798,12.3384167407\H,0,11.9899876475,21.8771563532,13.1969904511\
 N,0,9.2873351115,19.2780447031,13.0021786757\C,0,9.7950686692,17.92157
 51276,12.8382201487\C,0,10.9314457749,17.890914321,11.7745787654\O,0,1
 1.5932833213,18.9035246546,11.5005709826\C,0,8.6351119949,16.941439904
 1,12.591863978\C,0,7.5283809144,16.9741891579,13.6682888038\C,0,6.4959
 561367,15.8800763467,13.3597333035\C,0,8.1000810021,16.8140363496,15.0
 851851365\H,0,8.4385310607,19.5206635609,12.5009653546\H,0,10.27014219
 05,17.6073433537,13.7745295489\H,0,9.0457301174,15.9244118823,12.58321
 62736\H,0,8.2023272639,17.1232848327,11.5986880707\H,0,7.016185446,17.
 9452092254,13.6123041431\H,0,5.6587378767,15.9282445875,14.0635042821\
 H,0,6.0895374064,15.9818985805,12.3466574627\H,0,6.9469730365,14.88347
 11361,13.4442065863\H,0,7.2901581213,16.6929513788,15.811880384\H,0,8.
 7595628943,15.9405053247,15.1500087273\H,0,8.6808173936,17.6929339082,
 15.3911708073\N,0,11.2375281125,16.6853662557,11.2647976423\C,0,12.309
 0124791,16.4506898104,10.2971350329\C,0,12.089740972,15.0294210948,9.7
 815602205\O,0,11.2700166186,14.262667497,10.2422455893\C,0,13.74128660
 17,16.6207646412,10.8657138794\C,0,14.0043870819,15.8517122352,12.1826
 945243\C,0,13.9799255397,16.8134104186,13.3839299787\N,0,13.8943356304
 ,16.2064312266,14.7220412664\C,0,12.660602358,15.6034562366,15.1160573
 729\N,0,11.5574749541,15.6091585553,14.4590388845\N,0,12.7534085538,15
 .0012436582,16.3489475247\O,0,12.9248596535,14.7368519748,8.7772485376
 \H,0,12.7461878943,13.818687061,8.4952388078\H,0,10.6251384655,15.8876
 760649,11.4092005588\H,0,12.194571656,17.1417076634,9.4538930969\H,0,1
 3.9070034877,17.692745082,11.0133254453\H,0,14.4307008776,16.302096112
 6,10.0794583053\H,0,13.265685858,15.0528931858,12.3179158058\H,0,14.98
 11101012,15.3571361395,12.1417313045\H,0,13.1367054968,17.5025720326,1
 3.2941440828\H,0,14.8694461121,17.4482515276,13.3764143699\H,0,14.6881
 596722,15.6049086575,14.9361708935\H,0,11.7080805623,15.9036020988,13.
 4985035556\H,0,11.8733872154,14.63691161,16.691876924\H,0,13.322380990
 1,15.4484265005,17.0569582895\\Version=ES64L-G16RevC.01\HF=-1447.49497
 01\RMSD=9.188e-09\Dipole=1.5258542,0.7638201,0.2696043\Quadrupole=-246
 .3139509,376.9968013,-130.6828504,789.9755856,590.854598,874.2640244\P
 G=C01 [X(C17H33N6O6)]\\@
 The archive entry for this job was punched.


 IMAGINATION WILL OFTEN CARRY US TO WORLDS THAT NEVER WERE.
 BUT WITHOUT IT, WE GO NOWHERE. -- CARL SAGAN (COSMOS)
 Job cpu time:       0 days  0 hours  1 minutes 11.8 seconds.
 Elapsed time:       0 days  0 hours  0 minutes 18.5 seconds.
 File lengths (MBytes):  RWF=    248 Int=      0 D2E=      0 Chk=     32 Scr=     16
 Normal termination of Gaussian 16 at Tue May 24 03:34:11 2022.
