 Entering Gaussian System, Link 0=/opt/software/Gaussian/g16-AVX2-C.01/g16/g16
 Input=charge-conf-304.com
 Output=charge-conf-304.log
 Initial command:
 /opt/software/Gaussian/g16-AVX2-C.01/g16/l1.exe "/mnt/gs18/scratch/users/kengmith/Gau-14185.inp" -scrdir="/mnt/gs18/scratch/users/kengmith/"
 Entering Link 1 = /opt/software/Gaussian/g16-AVX2-C.01/g16/l1.exe PID=     14195.
  
 Copyright (c) 1988-2019, Gaussian, Inc.  All Rights Reserved.
  
 This is part of the Gaussian(R) 16 program.  It is based on
 the Gaussian(R) 09 system (copyright 2009, Gaussian, Inc.),
 the Gaussian(R) 03 system (copyright 2003, Gaussian, Inc.),
 the Gaussian(R) 98 system (copyright 1998, Gaussian, Inc.),
 the Gaussian(R) 94 system (copyright 1995, Gaussian, Inc.),
 the Gaussian 92(TM) system (copyright 1992, Gaussian, Inc.),
 the Gaussian 90(TM) system (copyright 1990, Gaussian, Inc.),
 the Gaussian 88(TM) system (copyright 1988, Gaussian, Inc.),
 the Gaussian 86(TM) system (copyright 1986, Carnegie Mellon
 University), and the Gaussian 82(TM) system (copyright 1983,
 Carnegie Mellon University). Gaussian is a federally registered
 trademark of Gaussian, Inc.
  
 This software contains proprietary and confidential information,
 including trade secrets, belonging to Gaussian, Inc.
  
 This software is provided under written license and may be
 used, copied, transmitted, or stored only in accord with that
 written license.
  
 The following legend is applicable only to US Government
 contracts under FAR:
  
                    RESTRICTED RIGHTS LEGEND
  
 Use, reproduction and disclosure by the US Government is
 subject to restrictions as set forth in subparagraphs (a)
 and (c) of the Commercial Computer Software - Restricted
 Rights clause in FAR 52.227-19.
  
 Gaussian, Inc.
 340 Quinnipiac St., Bldg. 40, Wallingford CT 06492
  
  
 ---------------------------------------------------------------
 Warning -- This program may not be used in any manner that
 competes with the business of Gaussian, Inc. or will provide
 assistance to any competitor of Gaussian, Inc.  The licensee
 of this program is prohibited from giving any competitor of
 Gaussian, Inc. access to this program.  By using this program,
 the user acknowledges that Gaussian, Inc. is engaged in the
 business of creating and licensing software in the field of
 computational chemistry and represents and warrants to the
 licensee that it is not a competitor of Gaussian, Inc. and that
 it will not use this program in any manner prohibited above.
 ---------------------------------------------------------------
  

 Cite this work as:
 Gaussian 16, Revision C.01,
 M. J. Frisch, G. W. Trucks, H. B. Schlegel, G. E. Scuseria, 
 M. A. Robb, J. R. Cheeseman, G. Scalmani, V. Barone, 
 G. A. Petersson, H. Nakatsuji, X. Li, M. Caricato, A. V. Marenich, 
 J. Bloino, B. G. Janesko, R. Gomperts, B. Mennucci, H. P. Hratchian, 
 J. V. Ortiz, A. F. Izmaylov, J. L. Sonnenberg, D. Williams-Young, 
 F. Ding, F. Lipparini, F. Egidi, J. Goings, B. Peng, A. Petrone, 
 T. Henderson, D. Ranasinghe, V. G. Zakrzewski, J. Gao, N. Rega, 
 G. Zheng, W. Liang, M. Hada, M. Ehara, K. Toyota, R. Fukuda, 
 J. Hasegawa, M. Ishida, T. Nakajima, Y. Honda, O. Kitao, H. Nakai, 
 T. Vreven, K. Throssell, J. A. Montgomery, Jr., J. E. Peralta, 
 F. Ogliaro, M. J. Bearpark, J. J. Heyd, E. N. Brothers, K. N. Kudin, 
 V. N. Staroverov, T. A. Keith, R. Kobayashi, J. Normand, 
 K. Raghavachari, A. P. Rendell, J. C. Burant, S. S. Iyengar, 
 J. Tomasi, M. Cossi, J. M. Millam, M. Klene, C. Adamo, R. Cammi, 
 J. W. Ochterski, R. L. Martin, K. Morokuma, O. Farkas, 
 J. B. Foresman, and D. J. Fox, Gaussian, Inc., Wallingford CT, 2019.
 
 ******************************************
 Gaussian 16:  ES64L-G16RevC.01  3-Jul-2019
                24-May-2022 
 ******************************************
 %mem=8gb
 %nproc=4
 Will use up to    4 processors via shared memory.
 %chk=conf-304.chk
 ----------------------------------------------------------------------
 # B3LYP/6-31G* empiricaldispersion=gd3 guess=read geom=check nosymm in
 tegral(ultrafinegrid)
 ----------------------------------------------------------------------
 1/29=2,38=1,172=1/1;
 2/12=2,15=1,40=1/2;
 3/5=1,6=6,7=1,11=2,14=-4,25=1,30=1,74=-5,75=-5,116=-2,124=31/1,2,3;
 4/5=1/1;
 5/5=2,38=6/2;
 6/7=2,8=2,9=2,10=2,28=1/1;
 99/5=1,9=1/99;
 ------------------------------------------------------
 Candidate Structure: Conf:304 Charge calc in gas phase
 ------------------------------------------------------
 Structure from the checkpoint file:  "conf-304.chk"
 Charge =  1 Multiplicity = 1
 Redundant internal coordinates found in file.  (old form).
 N,0,9.2792646614,14.930154689,14.2641184762
 C,0,10.7558341402,15.1743278599,14.4620822189
 C,0,11.4782064386,14.1039484118,13.6259332695
 O,0,10.9014525935,13.0372209454,13.4443698796
 C,0,11.1403539727,15.0510770418,15.9490701697
 C,0,10.2598312445,15.8500091939,16.9475039364
 C,0,9.9740669759,17.2311933966,16.3988011925
 O,0,9.1461126491,17.37133465,15.4811514322
 O,0,10.7175221349,18.1837530461,16.8795486726
 H,0,10.634508698,19.0839805792,16.3516831447
 H,0,8.7773796743,15.7041012935,14.7549855064
 H,0,10.9158011313,16.1862121498,14.0889889954
 H,0,12.1799156053,15.384856706,16.0293867098
 H,0,11.1291588031,13.9924006314,16.2316353829
 H,0,9.3028649252,15.3419925345,17.1066383944
 H,0,10.7727733222,15.909298823,17.9092629826
 H,0,9.0436979492,14.9530841897,13.2657653152
 H,0,9.0277011068,13.9913921464,14.5959548159
 N,0,12.7302468286,14.4034701766,13.213229544
 C,0,13.2786998234,15.7619257107,13.1033054176
 C,0,12.5366540783,16.5246407721,11.9853654694
 O,0,12.33532255,15.9934415769,10.9027461238
 C,0,14.7775895537,15.6852115346,12.7660499695
 C,0,15.4853069472,17.0509230205,12.6571976007
 C,0,15.4378596485,17.8483623034,13.9699774522
 C,0,16.9392986331,16.8369662499,12.2115212789
 H,0,13.1307916609,13.7049151153,12.5937090988
 H,0,13.1606696255,16.2606198273,14.0708240072
 H,0,14.8731779429,15.1542907175,11.8100917279
 H,0,15.269621892,15.0749606872,13.5346204613
 H,0,14.9792423407,17.6403321383,11.8787832938
 H,0,14.4169547107,18.1194193692,14.2700045845
 H,0,15.8863875963,17.2764434429,14.7919254083
 H,0,15.9964057752,18.7845672582,13.871198994
 H,0,16.9894994721,16.2969670068,11.2596731312
 H,0,17.4523572291,17.7955271457,12.082113281
 H,0,17.4961114851,16.2577635149,12.958569087
 N,0,12.1267543256,17.7892285269,12.2936325812
 C,0,11.6964823423,18.7034022133,11.2313662648
 C,0,11.8361106983,20.1616543004,11.6526952651
 O,0,11.2812837971,21.0725978441,11.0889183619
 C,0,10.2962894046,18.4014025164,10.6561088848
 C,0,9.1113999539,18.3336200035,11.6313883439
 C,0,8.8531055315,19.5887858766,12.4812618197
 N,0,9.7581261823,19.5983826709,13.6299057673
 C,0,10.2012152415,20.7379698073,14.2602104942
 N,0,10.1290193319,21.9710465672,13.9510680471
 N,0,10.987599222,20.3851354603,15.4360355598
 O,0,12.6903801641,20.3569881327,12.6958813153
 H,0,12.6595834894,21.3180085307,12.8825718992
 H,0,12.4680391767,18.2190290983,13.1421833484
 H,0,12.3992158878,18.5796333863,10.3933924648
 H,0,10.3764697,17.4453894035,10.1318861147
 H,0,10.0998114729,19.1712989187,9.9032381961
 H,0,8.2144371589,18.1265513411,11.0358179742
 H,0,9.2318918192,17.4732225555,12.309164689
 H,0,7.8083382465,19.6097934231,12.8206026709
 H,0,9.022278189,20.4841911789,11.879335873
 H,0,9.5871066596,18.822479134,14.2654557677
 H,0,9.5381561545,22.1433479631,13.1376758066
 H,0,11.0944140454,21.2401993108,15.9841931894
 H,0,11.9250296653,20.1295640505,15.114683545
 Recover connectivity data from disk.
                           ----------------------------
                           !    Current Parameters    !
                           ! (Angstroms and Degrees)  !
 --------------------------                            --------------------------
 ! Name  Definition              Value                                          !
 --------------------------------------------------------------------------------
 ! R1    R(1,2)                  1.5097                                         !
 ! R2    R(1,11)                 1.0449                                         !
 ! R3    R(1,17)                 1.026                                          !
 ! R4    R(1,18)                 1.027                                          !
 ! R5    R(2,3)                  1.5384                                         !
 ! R6    R(2,5)                  1.5408                                         !
 ! R7    R(2,12)                 1.0903                                         !
 ! R8    R(3,4)                  1.2262                                         !
 ! R9    R(3,19)                 1.3519                                         !
 ! R10   R(5,6)                  1.5526                                         !
 ! R11   R(5,13)                 1.0948                                         !
 ! R12   R(5,14)                 1.0958                                         !
 ! R13   R(6,7)                  1.5134                                         !
 ! R14   R(6,15)                 1.0951                                         !
 ! R15   R(6,16)                 1.0916                                         !
 ! R16   R(7,8)                  1.2439                                         !
 ! R17   R(7,9)                  1.3005                                         !
 ! R18   R(9,10)                 1.0469                                         !
 ! R19   R(19,20)                1.4691                                         !
 ! R20   R(19,27)                1.016                                          !
 ! R21   R(20,21)                1.5434                                         !
 ! R22   R(20,23)                1.5383                                         !
 ! R23   R(20,28)                1.0949                                         !
 ! R24   R(21,22)                1.2226                                         !
 ! R25   R(21,38)                1.3646                                         !
 ! R26   R(23,24)                1.542                                          !
 ! R27   R(23,29)                1.0977                                         !
 ! R28   R(23,30)                1.0978                                         !
 ! R29   R(24,25)                1.5367                                         !
 ! R30   R(24,26)                1.5357                                         !
 ! R31   R(24,31)                1.0997                                         !
 ! R32   R(25,32)                1.0981                                         !
 ! R33   R(25,33)                1.0972                                         !
 ! R34   R(25,34)                1.0946                                         !
 ! R35   R(26,35)                1.0955                                         !
 ! R36   R(26,36)                1.0949                                         !
 ! R37   R(26,37)                1.0971                                         !
 ! R38   R(38,39)                1.466                                          !
 ! R39   R(38,51)                1.0106                                         !
 ! R40   R(39,40)                1.5243                                         !
 ! R41   R(39,42)                1.5436                                         !
 ! R42   R(39,52)                1.1006                                         !
 ! R43   R(40,41)                1.2064                                         !
 ! R44   R(40,49)                1.3624                                         !
 ! R45   R(42,43)                1.5361                                         !
 ! R46   R(42,53)                1.0933                                         !
 ! R47   R(42,54)                1.0946                                         !
 ! R48   R(43,44)                1.5377                                         !
 ! R49   R(43,55)                1.0964                                         !
 ! R50   R(43,56)                1.1019                                         !
 ! R51   R(44,45)                1.4624                                         !
 ! R52   R(44,57)                1.0987                                         !
 ! R53   R(44,58)                1.0921                                         !
 ! R54   R(45,46)                1.3756                                         !
 ! R55   R(45,59)                1.0174                                         !
 ! R56   R(46,47)                1.2733                                         !
 ! R57   R(46,48)                1.4579                                         !
 ! R58   R(47,60)                1.02                                           !
 ! R59   R(48,61)                1.0213                                         !
 ! R60   R(48,62)                1.0234                                         !
 ! R61   R(49,50)                0.9795                                         !
 ! A1    A(2,1,11)             106.7614                                         !
 ! A2    A(2,1,17)             110.398                                          !
 ! A3    A(2,1,18)             110.1857                                         !
 ! A4    A(11,1,17)            109.2853                                         !
 ! A5    A(11,1,18)            114.0551                                         !
 ! A6    A(17,1,18)            106.1763                                         !
 ! A7    A(1,2,3)              105.9895                                         !
 ! A8    A(1,2,5)              110.9586                                         !
 ! A9    A(1,2,12)             104.4032                                         !
 ! A10   A(3,2,5)              110.5906                                         !
 ! A11   A(3,2,12)             113.0081                                         !
 ! A12   A(5,2,12)             111.584                                          !
 ! A13   A(2,3,4)              117.7044                                         !
 ! A14   A(2,3,19)             116.5286                                         !
 ! A15   A(4,3,19)             125.6733                                         !
 ! A16   A(2,5,6)              115.971                                          !
 ! A17   A(2,5,13)             106.4619                                         !
 ! A18   A(2,5,14)             108.8797                                         !
 ! A19   A(6,5,13)             109.54                                           !
 ! A20   A(6,5,14)             108.9979                                         !
 ! A21   A(13,5,14)            106.5791                                         !
 ! A22   A(5,6,7)              110.0938                                         !
 ! A23   A(5,6,15)             110.5082                                         !
 ! A24   A(5,6,16)             109.1499                                         !
 ! A25   A(7,6,15)             108.123                                          !
 ! A26   A(7,6,16)             111.0137                                         !
 ! A27   A(15,6,16)            107.9266                                         !
 ! A28   A(6,7,8)              119.7343                                         !
 ! A29   A(6,7,9)              115.2459                                         !
 ! A30   A(8,7,9)              124.8006                                         !
 ! A31   A(7,9,10)             113.4618                                         !
 ! A32   A(3,19,20)            124.9916                                         !
 ! A33   A(3,19,27)            113.5117                                         !
 ! A34   A(20,19,27)           116.2937                                         !
 ! A35   A(19,20,21)           109.3696                                         !
 ! A36   A(19,20,23)           109.5151                                         !
 ! A37   A(19,20,28)           108.3495                                         !
 ! A38   A(21,20,23)           109.5306                                         !
 ! A39   A(21,20,28)           111.2945                                         !
 ! A40   A(23,20,28)           108.7537                                         !
 ! A41   A(20,21,22)           120.388                                          !
 ! A42   A(20,21,38)           116.023                                          !
 ! A43   A(22,21,38)           123.5865                                         !
 ! A44   A(20,23,24)           114.7403                                         !
 ! A45   A(20,23,29)           107.4524                                         !
 ! A46   A(20,23,30)           108.1164                                         !
 ! A47   A(24,23,29)           109.0826                                         !
 ! A48   A(24,23,30)           109.6356                                         !
 ! A49   A(29,23,30)           107.5664                                         !
 ! A50   A(23,24,25)           112.6505                                         !
 ! A51   A(23,24,26)           109.3669                                         !
 ! A52   A(23,24,31)           108.2666                                         !
 ! A53   A(25,24,26)           110.4529                                         !
 ! A54   A(25,24,31)           108.2003                                         !
 ! A55   A(26,24,31)           107.7539                                         !
 ! A56   A(24,25,32)           112.9679                                         !
 ! A57   A(24,25,33)           110.9066                                         !
 ! A58   A(24,25,34)           110.5469                                         !
 ! A59   A(32,25,33)           107.7011                                         !
 ! A60   A(32,25,34)           106.7346                                         !
 ! A61   A(33,25,34)           107.7474                                         !
 ! A62   A(24,26,35)           111.3587                                         !
 ! A63   A(24,26,36)           110.8532                                         !
 ! A64   A(24,26,37)           110.8832                                         !
 ! A65   A(35,26,36)           107.9012                                         !
 ! A66   A(35,26,37)           107.9478                                         !
 ! A67   A(36,26,37)           107.7497                                         !
 ! A68   A(21,38,39)           120.1542                                         !
 ! A69   A(21,38,51)           118.84                                           !
 ! A70   A(39,38,51)           116.2525                                         !
 ! A71   A(38,39,40)           111.6775                                         !
 ! A72   A(38,39,42)           114.473                                          !
 ! A73   A(38,39,52)           107.1072                                         !
 ! A74   A(40,39,42)           111.9175                                         !
 ! A75   A(40,39,52)           105.0429                                         !
 ! A76   A(42,39,52)           105.8686                                         !
 ! A77   A(39,40,41)           123.4394                                         !
 ! A78   A(39,40,49)           113.9688                                         !
 ! A79   A(41,40,49)           122.542                                          !
 ! A80   A(39,42,43)           118.1454                                         !
 ! A81   A(39,42,53)           106.4549                                         !
 ! A82   A(39,42,54)           106.3521                                         !
 ! A83   A(43,42,53)           108.8093                                         !
 ! A84   A(43,42,54)           109.2239                                         !
 ! A85   A(53,42,54)           107.3627                                         !
 ! A86   A(42,43,44)           116.3884                                         !
 ! A87   A(42,43,55)           107.1268                                         !
 ! A88   A(42,43,56)           109.9151                                         !
 ! A89   A(44,43,55)           108.4796                                         !
 ! A90   A(44,43,56)           108.4077                                         !
 ! A91   A(55,43,56)           106.0282                                         !
 ! A92   A(43,44,45)           109.6046                                         !
 ! A93   A(43,44,57)           110.2456                                         !
 ! A94   A(43,44,58)           109.7922                                         !
 ! A95   A(45,44,57)           110.2289                                         !
 ! A96   A(45,44,58)           109.3703                                         !
 ! A97   A(57,44,58)           107.5692                                         !
 ! A98   A(44,45,46)           124.3802                                         !
 ! A99   A(44,45,59)           112.4337                                         !
 ! A100  A(46,45,59)           113.5584                                         !
 ! A101  A(45,46,47)           132.2802                                         !
 ! A102  A(45,46,48)           110.0477                                         !
 ! A103  A(47,46,48)           117.4371                                         !
 ! A104  A(46,47,60)           112.9572                                         !
 ! A105  A(46,48,61)           106.6591                                         !
 ! A106  A(46,48,62)           107.5339                                         !
 ! A107  A(61,48,62)           106.3686                                         !
 ! A108  A(40,49,50)           105.4799                                         !
 ! D1    D(11,1,2,3)          -174.8645                                         !
 ! D2    D(11,1,2,5)            65.0349                                         !
 ! D3    D(11,1,2,12)          -55.3019                                         !
 ! D4    D(17,1,2,3)           -56.1792                                         !
 ! D5    D(17,1,2,5)          -176.2797                                         !
 ! D6    D(17,1,2,12)           63.3835                                         !
 ! D7    D(18,1,2,3)            60.7826                                         !
 ! D8    D(18,1,2,5)           -59.318                                          !
 ! D9    D(18,1,2,12)         -179.6547                                         !
 ! D10   D(1,2,3,4)            -28.4604                                         !
 ! D11   D(1,2,3,19)           154.857                                          !
 ! D12   D(5,2,3,4)             91.8798                                         !
 ! D13   D(5,2,3,19)           -84.8028                                         !
 ! D14   D(12,2,3,4)          -142.2136                                         !
 ! D15   D(12,2,3,19)           41.1038                                         !
 ! D16   D(1,2,5,6)            -49.6296                                         !
 ! D17   D(1,2,5,13)          -171.7616                                         !
 ! D18   D(1,2,5,14)            73.6873                                         !
 ! D19   D(3,2,5,6)           -166.9528                                         !
 ! D20   D(3,2,5,13)            70.9152                                         !
 ! D21   D(3,2,5,14)           -43.6359                                         !
 ! D22   D(12,2,5,6)            66.3458                                         !
 ! D23   D(12,2,5,13)          -55.7862                                         !
 ! D24   D(12,2,5,14)         -170.3373                                         !
 ! D25   D(2,3,19,20)          -21.1657                                         !
 ! D26   D(2,3,19,27)         -174.5719                                         !
 ! D27   D(4,3,19,20)          162.4501                                         !
 ! D28   D(4,3,19,27)            9.0439                                         !
 ! D29   D(2,5,6,7)            -42.7022                                         !
 ! D30   D(2,5,6,15)            76.6691                                         !
 ! D31   D(2,5,6,16)          -164.7912                                         !
 ! D32   D(13,5,6,7)            77.7851                                         !
 ! D33   D(13,5,6,15)         -162.8436                                         !
 ! D34   D(13,5,6,16)          -44.3039                                         !
 ! D35   D(14,5,6,7)          -165.9574                                         !
 ! D36   D(14,5,6,15)          -46.586                                          !
 ! D37   D(14,5,6,16)           71.9536                                         !
 ! D38   D(5,6,7,8)             75.1248                                         !
 ! D39   D(5,6,7,9)            -99.7533                                         !
 ! D40   D(15,6,7,8)           -45.6893                                         !
 ! D41   D(15,6,7,9)           139.4326                                         !
 ! D42   D(16,6,7,8)          -163.8967                                         !
 ! D43   D(16,6,7,9)            21.2251                                         !
 ! D44   D(6,7,9,10)           168.4031                                         !
 ! D45   D(8,7,9,10)            -6.1798                                         !
 ! D46   D(3,19,20,21)         -66.7688                                         !
 ! D47   D(3,19,20,23)         173.1939                                         !
 ! D48   D(3,19,20,28)          54.7095                                         !
 ! D49   D(27,19,20,21)         85.9815                                         !
 ! D50   D(27,19,20,23)        -34.0558                                         !
 ! D51   D(27,19,20,28)       -152.5402                                         !
 ! D52   D(19,20,21,22)        -46.055                                          !
 ! D53   D(19,20,21,38)        133.3866                                         !
 ! D54   D(23,20,21,22)         73.9727                                         !
 ! D55   D(23,20,21,38)       -106.5856                                         !
 ! D56   D(28,20,21,22)       -165.7367                                         !
 ! D57   D(28,20,21,38)         13.705                                          !
 ! D58   D(19,20,23,24)       -178.5327                                         !
 ! D59   D(19,20,23,29)         59.9867                                         !
 ! D60   D(19,20,23,30)        -55.8453                                         !
 ! D61   D(21,20,23,24)         61.5286                                         !
 ! D62   D(21,20,23,29)        -59.9521                                         !
 ! D63   D(21,20,23,30)       -175.7841                                         !
 ! D64   D(28,20,23,24)        -60.2996                                         !
 ! D65   D(28,20,23,29)        178.2197                                         !
 ! D66   D(28,20,23,30)         62.3877                                         !
 ! D67   D(20,21,38,39)        165.9298                                         !
 ! D68   D(20,21,38,51)         11.2555                                         !
 ! D69   D(22,21,38,39)        -14.6484                                         !
 ! D70   D(22,21,38,51)       -169.3226                                         !
 ! D71   D(20,23,24,25)         61.1503                                         !
 ! D72   D(20,23,24,26)       -175.6174                                         !
 ! D73   D(20,23,24,31)        -58.4628                                         !
 ! D74   D(29,23,24,25)       -178.2634                                         !
 ! D75   D(29,23,24,26)        -55.0312                                         !
 ! D76   D(29,23,24,31)         62.1235                                         !
 ! D77   D(30,23,24,25)        -60.7146                                         !
 ! D78   D(30,23,24,26)         62.5177                                         !
 ! D79   D(30,23,24,31)        179.6723                                         !
 ! D80   D(23,24,25,32)        -63.6128                                         !
 ! D81   D(23,24,25,33)         57.4113                                         !
 ! D82   D(23,24,25,34)        176.8604                                         !
 ! D83   D(26,24,25,32)        173.7622                                         !
 ! D84   D(26,24,25,33)        -65.2136                                         !
 ! D85   D(26,24,25,34)         54.2354                                         !
 ! D86   D(31,24,25,32)         56.0387                                         !
 ! D87   D(31,24,25,33)        177.0628                                         !
 ! D88   D(31,24,25,34)        -63.4881                                         !
 ! D89   D(23,24,26,35)         57.2763                                         !
 ! D90   D(23,24,26,36)        177.4184                                         !
 ! D91   D(23,24,26,37)        -62.9449                                         !
 ! D92   D(25,24,26,35)       -178.1986                                         !
 ! D93   D(25,24,26,36)        -58.0566                                         !
 ! D94   D(25,24,26,37)         61.5802                                         !
 ! D95   D(31,24,26,35)        -60.201                                          !
 ! D96   D(31,24,26,36)         59.941                                          !
 ! D97   D(31,24,26,37)        179.5777                                         !
 ! D98   D(21,38,39,40)       -156.3256                                         !
 ! D99   D(21,38,39,42)         75.1937                                         !
 ! D100  D(21,38,39,52)        -41.8338                                         !
 ! D101  D(51,38,39,40)         -1.0216                                         !
 ! D102  D(51,38,39,42)       -129.5023                                         !
 ! D103  D(51,38,39,52)        113.4702                                         !
 ! D104  D(38,39,40,41)       -162.8227                                         !
 ! D105  D(38,39,40,49)         19.6906                                         !
 ! D106  D(42,39,40,41)        -32.9969                                         !
 ! D107  D(42,39,40,49)        149.5164                                         !
 ! D108  D(52,39,40,41)         81.4171                                         !
 ! D109  D(52,39,40,49)        -96.0696                                         !
 ! D110  D(38,39,42,43)         55.3252                                         !
 ! D111  D(38,39,42,53)        -67.3095                                         !
 ! D112  D(38,39,42,54)        178.4265                                         !
 ! D113  D(40,39,42,43)        -73.0345                                         !
 ! D114  D(40,39,42,53)        164.3308                                         !
 ! D115  D(40,39,42,54)         50.0668                                         !
 ! D116  D(52,39,42,43)        173.0605                                         !
 ! D117  D(52,39,42,53)         50.4258                                         !
 ! D118  D(52,39,42,54)        -63.8382                                         !
 ! D119  D(39,40,49,50)       -177.8925                                         !
 ! D120  D(41,40,49,50)          4.5953                                         !
 ! D121  D(39,42,43,44)         57.6236                                         !
 ! D122  D(39,42,43,55)        179.1672                                         !
 ! D123  D(39,42,43,56)        -66.0651                                         !
 ! D124  D(53,42,43,44)        179.0623                                         !
 ! D125  D(53,42,43,55)        -59.3941                                         !
 ! D126  D(53,42,43,56)         55.3736                                         !
 ! D127  D(54,42,43,44)        -64.0242                                         !
 ! D128  D(54,42,43,55)         57.5194                                         !
 ! D129  D(54,42,43,56)        172.2871                                         !
 ! D130  D(42,43,44,45)        -81.2692                                         !
 ! D131  D(42,43,44,57)        157.2247                                         !
 ! D132  D(42,43,44,58)         38.8872                                         !
 ! D133  D(55,43,44,45)        157.9051                                         !
 ! D134  D(55,43,44,57)         36.399                                          !
 ! D135  D(55,43,44,58)        -81.9385                                         !
 ! D136  D(56,43,44,45)         43.1939                                         !
 ! D137  D(56,43,44,57)        -78.3121                                         !
 ! D138  D(56,43,44,58)        163.3504                                         !
 ! D139  D(43,44,45,46)        151.9126                                         !
 ! D140  D(43,44,45,59)        -64.3403                                         !
 ! D141  D(57,44,45,46)        -86.5713                                         !
 ! D142  D(57,44,45,59)         57.1759                                         !
 ! D143  D(58,44,45,46)         31.4992                                         !
 ! D144  D(58,44,45,59)        175.2463                                         !
 ! D145  D(44,45,46,47)        -11.0314                                         !
 ! D146  D(44,45,46,48)        174.8329                                         !
 ! D147  D(59,45,46,47)       -154.4262                                         !
 ! D148  D(59,45,46,48)         31.4381                                         !
 ! D149  D(45,46,47,60)          8.1154                                         !
 ! D150  D(48,46,47,60)       -178.0931                                         !
 ! D151  D(45,46,48,61)       -166.4552                                         !
 ! D152  D(45,46,48,62)         79.7765                                         !
 ! D153  D(47,46,48,61)         18.4308                                         !
 ! D154  D(47,46,48,62)        -95.3375                                         !
 --------------------------------------------------------------------------------
 Symmetry turned off by external request.
 Stoichiometry    C17H33N6O6(1+)
 Framework group  C1[X(C17H33N6O6)]
 Deg. of freedom   180
 Full point group                 C1      NOp   1
                          Input orientation:                          
 ---------------------------------------------------------------------
 Center     Atomic      Atomic             Coordinates (Angstroms)
 Number     Number       Type             X           Y           Z
 ---------------------------------------------------------------------
      1          7           0        9.279265   14.930155   14.264118
      2          6           0       10.755834   15.174328   14.462082
      3          6           0       11.478206   14.103948   13.625933
      4          8           0       10.901453   13.037221   13.444370
      5          6           0       11.140354   15.051077   15.949070
      6          6           0       10.259831   15.850009   16.947504
      7          6           0        9.974067   17.231193   16.398801
      8          8           0        9.146113   17.371335   15.481151
      9          8           0       10.717522   18.183753   16.879549
     10          1           0       10.634509   19.083981   16.351683
     11          1           0        8.777380   15.704101   14.754986
     12          1           0       10.915801   16.186212   14.088989
     13          1           0       12.179916   15.384857   16.029387
     14          1           0       11.129159   13.992401   16.231635
     15          1           0        9.302865   15.341993   17.106638
     16          1           0       10.772773   15.909299   17.909263
     17          1           0        9.043698   14.953084   13.265765
     18          1           0        9.027701   13.991392   14.595955
     19          7           0       12.730247   14.403470   13.213230
     20          6           0       13.278700   15.761926   13.103305
     21          6           0       12.536654   16.524641   11.985365
     22          8           0       12.335323   15.993442   10.902746
     23          6           0       14.777590   15.685212   12.766050
     24          6           0       15.485307   17.050923   12.657198
     25          6           0       15.437860   17.848362   13.969977
     26          6           0       16.939299   16.836966   12.211521
     27          1           0       13.130792   13.704915   12.593709
     28          1           0       13.160670   16.260620   14.070824
     29          1           0       14.873178   15.154291   11.810092
     30          1           0       15.269622   15.074961   13.534620
     31          1           0       14.979242   17.640332   11.878783
     32          1           0       14.416955   18.119419   14.270005
     33          1           0       15.886388   17.276443   14.791925
     34          1           0       15.996406   18.784567   13.871199
     35          1           0       16.989499   16.296967   11.259673
     36          1           0       17.452357   17.795527   12.082113
     37          1           0       17.496111   16.257764   12.958569
     38          7           0       12.126754   17.789229   12.293633
     39          6           0       11.696482   18.703402   11.231366
     40          6           0       11.836111   20.161654   11.652695
     41          8           0       11.281284   21.072598   11.088918
     42          6           0       10.296289   18.401403   10.656109
     43          6           0        9.111400   18.333620   11.631388
     44          6           0        8.853106   19.588786   12.481262
     45          7           0        9.758126   19.598383   13.629906
     46          6           0       10.201215   20.737970   14.260210
     47          7           0       10.129019   21.971047   13.951068
     48          7           0       10.987599   20.385135   15.436036
     49          8           0       12.690380   20.356988   12.695881
     50          1           0       12.659583   21.318009   12.882572
     51          1           0       12.468039   18.219029   13.142183
     52          1           0       12.399216   18.579633   10.393392
     53          1           0       10.376470   17.445389   10.131886
     54          1           0       10.099811   19.171299    9.903238
     55          1           0        8.214437   18.126551   11.035818
     56          1           0        9.231892   17.473223   12.309165
     57          1           0        7.808338   19.609793   12.820603
     58          1           0        9.022278   20.484191   11.879336
     59          1           0        9.587107   18.822479   14.265456
     60          1           0        9.538156   22.143348   13.137676
     61          1           0       11.094414   21.240199   15.984193
     62          1           0       11.925030   20.129564   15.114684
 ---------------------------------------------------------------------
 Rotational constants (GHZ):           0.1754923           0.1507891           0.1153691
 Standard basis: 6-31G(d) (6D, 7F)
   501 basis functions,   944 primitive gaussians,   501 cartesian basis functions
   112 alpha electrons      112 beta electrons
       nuclear repulsion energy      3309.7711101826 Hartrees.
 NAtoms=   62 NActive=   62 NUniq=   62 SFac= 1.00D+00 NAtFMM=   60 NAOKFM=T Big=T
 Integral buffers will be    131072 words long.
 Raffenetti 2 integral format.
 Two-electron integral symmetry is turned off.
 Nuclear repulsion after empirical dispersion term =     3309.6792748241 Hartrees.
 One-electron integrals computed using PRISM.
 NBasis=   501 RedAO= T EigKep=  1.71D-03  NBF=   501
 NBsUse=   501 1.00D-06 EigRej= -1.00D+00 NBFU=   501
 Initial guess from the checkpoint file:  "conf-304.chk"
 B after Tr=     0.000000    0.000000    0.000000
         Rot=    1.000000    0.000000    0.000000    0.000000 Ang=   0.00 deg.
 Requested convergence on RMS density matrix=1.00D-08 within 128 cycles.
 Requested convergence on MAX density matrix=1.00D-06.
 Requested convergence on             energy=1.00D-06.
 No special actions if energy rises.
 SCF Done:  E(RB3LYP) =  -1447.48036804     A.U. after    1 cycles
            NFock=  1  Conv=0.50D-08     -V/T= 2.0093

 **********************************************************************

            Population analysis using the SCF Density.

 **********************************************************************

 Alpha  occ. eigenvalues --  -19.31527 -19.31513 -19.28823 -19.26288 -19.25155
 Alpha  occ. eigenvalues --  -19.23782 -14.60681 -14.49974 -14.48763 -14.47633
 Alpha  occ. eigenvalues --  -14.45804 -14.40102 -10.46653 -10.43773 -10.43618
 Alpha  occ. eigenvalues --  -10.41272 -10.40876 -10.39335 -10.36841 -10.36256
 Alpha  occ. eigenvalues --  -10.35542 -10.34726 -10.32497 -10.30508 -10.30132
 Alpha  occ. eigenvalues --  -10.29874 -10.29243 -10.28205 -10.26523  -1.23828
 Alpha  occ. eigenvalues --   -1.22064  -1.19012  -1.15997  -1.15496  -1.14301
 Alpha  occ. eigenvalues --   -1.13079  -1.08895  -1.06718  -1.04980  -1.00501
 Alpha  occ. eigenvalues --   -0.96272  -0.95765  -0.92881  -0.90618  -0.89044
 Alpha  occ. eigenvalues --   -0.86998  -0.85027  -0.80362  -0.79367  -0.78621
 Alpha  occ. eigenvalues --   -0.76527  -0.76117  -0.74143  -0.74013  -0.73157
 Alpha  occ. eigenvalues --   -0.72746  -0.70782  -0.69216  -0.68803  -0.67120
 Alpha  occ. eigenvalues --   -0.66198  -0.65463  -0.65089  -0.63683  -0.63321
 Alpha  occ. eigenvalues --   -0.62170  -0.61644  -0.61553  -0.61003  -0.60508
 Alpha  occ. eigenvalues --   -0.59590  -0.59323  -0.59136  -0.58255  -0.57462
 Alpha  occ. eigenvalues --   -0.55991  -0.55598  -0.55563  -0.54953  -0.54283
 Alpha  occ. eigenvalues --   -0.53829  -0.53569  -0.53220  -0.52528  -0.51885
 Alpha  occ. eigenvalues --   -0.51337  -0.51247  -0.50906  -0.50765  -0.50220
 Alpha  occ. eigenvalues --   -0.49649  -0.48869  -0.47978  -0.47264  -0.46786
 Alpha  occ. eigenvalues --   -0.45890  -0.45586  -0.45216  -0.44790  -0.43752
 Alpha  occ. eigenvalues --   -0.43344  -0.43182  -0.42988  -0.42779  -0.40954
 Alpha  occ. eigenvalues --   -0.40585  -0.39808  -0.38926  -0.37928  -0.37206
 Alpha  occ. eigenvalues --   -0.36853  -0.34128
 Alpha virt. eigenvalues --   -0.14329  -0.13158  -0.11079  -0.10695  -0.10509
 Alpha virt. eigenvalues --   -0.08859  -0.06591  -0.05734  -0.03999  -0.03349
 Alpha virt. eigenvalues --   -0.02572  -0.02199  -0.01504  -0.00886  -0.00481
 Alpha virt. eigenvalues --    0.00134   0.00313   0.01168   0.01395   0.01894
 Alpha virt. eigenvalues --    0.02652   0.02809   0.03788   0.03891   0.04347
 Alpha virt. eigenvalues --    0.04597   0.05187   0.05677   0.06003   0.06198
 Alpha virt. eigenvalues --    0.06501   0.07400   0.07565   0.07994   0.08136
 Alpha virt. eigenvalues --    0.08260   0.08528   0.09383   0.09769   0.09851
 Alpha virt. eigenvalues --    0.10153   0.10501   0.11144   0.11420   0.12212
 Alpha virt. eigenvalues --    0.12623   0.13095   0.13770   0.14242   0.14666
 Alpha virt. eigenvalues --    0.14943   0.15411   0.16661   0.16756   0.17087
 Alpha virt. eigenvalues --    0.19032   0.19693   0.20388   0.21816   0.22856
 Alpha virt. eigenvalues --    0.24368   0.25494   0.28143   0.29001   0.30185
 Alpha virt. eigenvalues --    0.34657   0.34795   0.35818   0.36546   0.37540
 Alpha virt. eigenvalues --    0.38934   0.40343   0.40699   0.41555   0.41726
 Alpha virt. eigenvalues --    0.42126   0.42201   0.42645   0.43329   0.44038
 Alpha virt. eigenvalues --    0.44471   0.45305   0.45420   0.46313   0.47699
 Alpha virt. eigenvalues --    0.47852   0.48129   0.48842   0.49390   0.49733
 Alpha virt. eigenvalues --    0.51215   0.51531   0.51879   0.52548   0.53244
 Alpha virt. eigenvalues --    0.53642   0.53796   0.54576   0.55065   0.55845
 Alpha virt. eigenvalues --    0.56419   0.57203   0.58059   0.58238   0.58354
 Alpha virt. eigenvalues --    0.60276   0.60875   0.61272   0.61562   0.61990
 Alpha virt. eigenvalues --    0.62838   0.63148   0.64067   0.64464   0.65513
 Alpha virt. eigenvalues --    0.66247   0.66831   0.67440   0.67904   0.68289
 Alpha virt. eigenvalues --    0.69215   0.69367   0.69670   0.70218   0.70872
 Alpha virt. eigenvalues --    0.71702   0.72060   0.72686   0.72881   0.73362
 Alpha virt. eigenvalues --    0.73892   0.74578   0.75322   0.75899   0.76249
 Alpha virt. eigenvalues --    0.76486   0.76675   0.77813   0.78249   0.78713
 Alpha virt. eigenvalues --    0.79177   0.80011   0.80097   0.80639   0.81090
 Alpha virt. eigenvalues --    0.81429   0.82097   0.82347   0.82647   0.83271
 Alpha virt. eigenvalues --    0.83664   0.84189   0.84863   0.85608   0.86224
 Alpha virt. eigenvalues --    0.86552   0.87546   0.88099   0.88812   0.89570
 Alpha virt. eigenvalues --    0.90156   0.90620   0.91078   0.91416   0.92084
 Alpha virt. eigenvalues --    0.92822   0.93317   0.94054   0.95201   0.95645
 Alpha virt. eigenvalues --    0.95769   0.96791   0.97434   0.97999   0.98574
 Alpha virt. eigenvalues --    0.99865   1.00580   1.02537   1.03085   1.03510
 Alpha virt. eigenvalues --    1.04030   1.05064   1.05909   1.07625   1.08900
 Alpha virt. eigenvalues --    1.11021   1.11654   1.14250   1.15355   1.15835
 Alpha virt. eigenvalues --    1.17251   1.18379   1.18819   1.20314   1.21539
 Alpha virt. eigenvalues --    1.22658   1.23721   1.24887   1.25427   1.27877
 Alpha virt. eigenvalues --    1.28655   1.29136   1.29591   1.30316   1.31712
 Alpha virt. eigenvalues --    1.34285   1.34896   1.35619   1.36073   1.37782
 Alpha virt. eigenvalues --    1.39015   1.40474   1.42727   1.43265   1.44769
 Alpha virt. eigenvalues --    1.45717   1.46265   1.48155   1.50394   1.50509
 Alpha virt. eigenvalues --    1.51534   1.52854   1.53674   1.55194   1.55761
 Alpha virt. eigenvalues --    1.57730   1.58570   1.58689   1.59350   1.60561
 Alpha virt. eigenvalues --    1.61667   1.62311   1.62730   1.62973   1.64326
 Alpha virt. eigenvalues --    1.64876   1.65972   1.66210   1.66489   1.67423
 Alpha virt. eigenvalues --    1.68311   1.68865   1.69324   1.70613   1.71774
 Alpha virt. eigenvalues --    1.71915   1.72393   1.72687   1.73275   1.73498
 Alpha virt. eigenvalues --    1.74392   1.75171   1.75795   1.76979   1.77211
 Alpha virt. eigenvalues --    1.77886   1.78933   1.79961   1.80443   1.82137
 Alpha virt. eigenvalues --    1.82465   1.83541   1.84531   1.85232   1.85514
 Alpha virt. eigenvalues --    1.87221   1.88010   1.88850   1.89085   1.89556
 Alpha virt. eigenvalues --    1.90768   1.91040   1.92787   1.93081   1.93396
 Alpha virt. eigenvalues --    1.94411   1.95029   1.96399   1.97442   1.97854
 Alpha virt. eigenvalues --    1.99178   1.99739   2.00562   2.02165   2.02738
 Alpha virt. eigenvalues --    2.03058   2.04147   2.04821   2.06324   2.07924
 Alpha virt. eigenvalues --    2.10086   2.10628   2.12304   2.13120   2.14305
 Alpha virt. eigenvalues --    2.15288   2.15504   2.16159   2.17932   2.18345
 Alpha virt. eigenvalues --    2.19045   2.19812   2.21208   2.23212   2.23664
 Alpha virt. eigenvalues --    2.25346   2.25992   2.27539   2.28039   2.28500
 Alpha virt. eigenvalues --    2.28743   2.30244   2.31998   2.32679   2.33963
 Alpha virt. eigenvalues --    2.35784   2.36616   2.37278   2.37665   2.39785
 Alpha virt. eigenvalues --    2.41597   2.41801   2.43658   2.44659   2.48425
 Alpha virt. eigenvalues --    2.49807   2.50181   2.51338   2.52498   2.53447
 Alpha virt. eigenvalues --    2.54055   2.54282   2.54842   2.56269   2.58316
 Alpha virt. eigenvalues --    2.59486   2.60450   2.61236   2.61751   2.63108
 Alpha virt. eigenvalues --    2.64017   2.64871   2.65519   2.67783   2.69195
 Alpha virt. eigenvalues --    2.73057   2.75013   2.76067   2.79981   2.84672
 Alpha virt. eigenvalues --    2.85645   2.87063   2.88345   2.90232   2.92745
 Alpha virt. eigenvalues --    2.94170   2.99060   3.00897   3.01477   3.05806
 Alpha virt. eigenvalues --    3.64603   3.74998   3.79414   3.85514   3.86811
 Alpha virt. eigenvalues --    3.89810   3.92729   3.97279   4.02473   4.03388
 Alpha virt. eigenvalues --    4.05950   4.08471   4.11349   4.12856   4.18937
 Alpha virt. eigenvalues --    4.20064   4.20943   4.23012   4.25694   4.29257
 Alpha virt. eigenvalues --    4.32638   4.35627   4.39132   4.41894   4.47491
 Alpha virt. eigenvalues --    4.48554   4.55587   4.58672   4.63709
          Condensed to atoms (all electrons):
 Mulliken charges:
               1
     1  N   -0.740779
     2  C   -0.136978
     3  C    0.626078
     4  O   -0.499830
     5  C   -0.305448
     6  C   -0.364470
     7  C    0.612199
     8  O   -0.537912
     9  O   -0.560267
    10  H    0.473784
    11  H    0.432539
    12  H    0.210312
    13  H    0.207642
    14  H    0.207430
    15  H    0.185133
    16  H    0.220970
    17  H    0.422462
    18  H    0.417409
    19  N   -0.583102
    20  C   -0.078840
    21  C    0.606242
    22  O   -0.502367
    23  C   -0.287483
    24  C   -0.094032
    25  C   -0.449076
    26  C   -0.448466
    27  H    0.369056
    28  H    0.141875
    29  H    0.175157
    30  H    0.164042
    31  H    0.142282
    32  H    0.104379
    33  H    0.158245
    34  H    0.173554
    35  H    0.161650
    36  H    0.163866
    37  H    0.155173
    38  N   -0.626640
    39  C   -0.029925
    40  C    0.620769
    41  O   -0.449130
    42  C   -0.283880
    43  C   -0.266198
    44  C   -0.159498
    45  N   -0.642837
    46  C    0.548396
    47  N   -0.605053
    48  N   -0.836935
    49  O   -0.611673
    50  H    0.436954
    51  H    0.355376
    52  H    0.214537
    53  H    0.184951
    54  H    0.187642
    55  H    0.168387
    56  H    0.089515
    57  H    0.166571
    58  H    0.193292
    59  H    0.374617
    60  H    0.310895
    61  H    0.369569
    62  H    0.347866
 Sum of Mulliken charges =   1.00000
 Mulliken charges with hydrogens summed into heavy atoms:
               1
     1  N    0.531631
     2  C    0.073334
     3  C    0.626078
     4  O   -0.499830
     5  C    0.109624
     6  C    0.041632
     7  C    0.612199
     8  O   -0.537912
     9  O   -0.086483
    19  N   -0.214046
    20  C    0.063035
    21  C    0.606242
    22  O   -0.502367
    23  C    0.051716
    24  C    0.048250
    25  C   -0.012898
    26  C    0.032223
    38  N   -0.271263
    39  C    0.184613
    40  C    0.620769
    41  O   -0.449130
    42  C    0.088713
    43  C   -0.008295
    44  C    0.200365
    45  N   -0.268220
    46  C    0.548396
    47  N   -0.294158
    48  N   -0.119500
    49  O   -0.174719
 Electronic spatial extent (au):  <R**2>=         509289.8519
 Charge=              1.0000 electrons
 Dipole moment (field-independent basis, Debye):
    X=             53.4199    Y=             79.4005    Z=             70.1725  Tot=            118.6689
 Quadrupole moment (field-independent basis, Debye-Ang):
   XX=            461.2073   YY=           1149.3838   ZZ=            862.0141
   XY=            893.1241   XZ=            778.0981   YZ=           1153.5934
 Traceless Quadrupole moment (field-independent basis, Debye-Ang):
   XX=           -362.9945   YY=            325.1821   ZZ=             37.8124
   XY=            893.1241   XZ=            778.0981   YZ=           1153.5934
 Octapole moment (field-independent basis, Debye-Ang**2):
  XXX=           1955.1041  YYY=          13097.5125  ZZZ=           8454.0936  XYY=          13049.6787
  XXY=           7677.0637  XXZ=           6824.2019  XZZ=           9417.9977  YZZ=          13902.3865
  YYZ=          16811.1041  XYZ=          12952.9337
 Hexadecapole moment (field-independent basis, Debye-Ang**3):
 XXXX=         -39470.9130 YYYY=          50589.0381 ZZZZ=          41695.4696 XXXY=          30603.7704
 XXXZ=          32998.7976 YYYX=         150990.7749 YYYZ=         198615.9464 ZZZX=          88946.4781
 ZZZY=         129540.6481 XXYY=         104435.3639 XXZZ=          77035.8288 YYZZ=         194101.7546
 XXYZ=         113378.4738 YYXZ=         190977.1269 ZZXY=         154450.3762
 N-N= 3.309679274824D+03 E-N=-9.966207167020D+03  KE= 1.434110784071D+03
 Unable to Open any file for archive entry.
 1\1\GINC-SKL-153\SP\RB3LYP\6-31G(d)\C17H33N6O6(1+)\KENGMITH\24-May-202
 2\0\\# B3LYP/6-31G* empiricaldispersion=gd3 guess=read geom=check nosy
 mm integral(ultrafinegrid)\\Candidate Structure: Conf:304 Charge calc 
 in gas phase\\1,1\N,0,9.2792646614,14.930154689,14.2641184762\C,0,10.7
 558341402,15.1743278599,14.4620822189\C,0,11.4782064386,14.1039484118,
 13.6259332695\O,0,10.9014525935,13.0372209454,13.4443698796\C,0,11.140
 3539727,15.0510770418,15.9490701697\C,0,10.2598312445,15.8500091939,16
 .9475039364\C,0,9.9740669759,17.2311933966,16.3988011925\O,0,9.1461126
 491,17.37133465,15.4811514322\O,0,10.7175221349,18.1837530461,16.87954
 86726\H,0,10.634508698,19.0839805792,16.3516831447\H,0,8.7773796743,15
 .7041012935,14.7549855064\H,0,10.9158011313,16.1862121498,14.088988995
 4\H,0,12.1799156053,15.384856706,16.0293867098\H,0,11.1291588031,13.99
 24006314,16.2316353829\H,0,9.3028649252,15.3419925345,17.1066383944\H,
 0,10.7727733222,15.909298823,17.9092629826\H,0,9.0436979492,14.9530841
 897,13.2657653152\H,0,9.0277011068,13.9913921464,14.5959548159\N,0,12.
 7302468286,14.4034701766,13.213229544\C,0,13.2786998234,15.7619257107,
 13.1033054176\C,0,12.5366540783,16.5246407721,11.9853654694\O,0,12.335
 32255,15.9934415769,10.9027461238\C,0,14.7775895537,15.6852115346,12.7
 660499695\C,0,15.4853069472,17.0509230205,12.6571976007\C,0,15.4378596
 485,17.8483623034,13.9699774522\C,0,16.9392986331,16.8369662499,12.211
 5212789\H,0,13.1307916609,13.7049151153,12.5937090988\H,0,13.160669625
 5,16.2606198273,14.0708240072\H,0,14.8731779429,15.1542907175,11.81009
 17279\H,0,15.269621892,15.0749606872,13.5346204613\H,0,14.9792423407,1
 7.6403321383,11.8787832938\H,0,14.4169547107,18.1194193692,14.27000458
 45\H,0,15.8863875963,17.2764434429,14.7919254083\H,0,15.9964057752,18.
 7845672582,13.871198994\H,0,16.9894994721,16.2969670068,11.2596731312\
 H,0,17.4523572291,17.7955271457,12.082113281\H,0,17.4961114851,16.2577
 635149,12.958569087\N,0,12.1267543256,17.7892285269,12.2936325812\C,0,
 11.6964823423,18.7034022133,11.2313662648\C,0,11.8361106983,20.1616543
 004,11.6526952651\O,0,11.2812837971,21.0725978441,11.0889183619\C,0,10
 .2962894046,18.4014025164,10.6561088848\C,0,9.1113999539,18.3336200035
 ,11.6313883439\C,0,8.8531055315,19.5887858766,12.4812618197\N,0,9.7581
 261823,19.5983826709,13.6299057673\C,0,10.2012152415,20.7379698073,14.
 2602104942\N,0,10.1290193319,21.9710465672,13.9510680471\N,0,10.987599
 222,20.3851354603,15.4360355598\O,0,12.6903801641,20.3569881327,12.695
 8813153\H,0,12.6595834894,21.3180085307,12.8825718992\H,0,12.468039176
 7,18.2190290983,13.1421833484\H,0,12.3992158878,18.5796333863,10.39339
 24648\H,0,10.3764697,17.4453894035,10.1318861147\H,0,10.0998114729,19.
 1712989187,9.9032381961\H,0,8.2144371589,18.1265513411,11.0358179742\H
 ,0,9.2318918192,17.4732225555,12.309164689\H,0,7.8083382465,19.6097934
 231,12.8206026709\H,0,9.022278189,20.4841911789,11.879335873\H,0,9.587
 1066596,18.822479134,14.2654557677\H,0,9.5381561545,22.1433479631,13.1
 376758066\H,0,11.0944140454,21.2401993108,15.9841931894\H,0,11.9250296
 653,20.1295640505,15.114683545\\Version=ES64L-G16RevC.01\HF=-1447.4803
 68\RMSD=4.960e-09\Dipole=-0.919477,-1.8997862,2.1945316\Quadrupole=-26
 9.8774839,241.7648853,28.1125986,664.0158723,578.4968547,857.6684018\P
 G=C01 [X(C17H33N6O6)]\\@
 The archive entry for this job was punched.


 IMAGINATION WILL OFTEN CARRY US TO WORLDS THAT NEVER WERE.
 BUT WITHOUT IT, WE GO NOWHERE. -- CARL SAGAN (COSMOS)
 Job cpu time:       0 days  0 hours  1 minutes 11.9 seconds.
 Elapsed time:       0 days  0 hours  0 minutes 18.4 seconds.
 File lengths (MBytes):  RWF=    248 Int=      0 D2E=      0 Chk=     32 Scr=     16
 Normal termination of Gaussian 16 at Tue May 24 03:34:11 2022.
