 Entering Gaussian System, Link 0=/opt/software/Gaussian/g16-AVX2-C.01/g16/g16
 Input=charge-conf-841.com
 Output=charge-conf-841.log
 Initial command:
 /opt/software/Gaussian/g16-AVX2-C.01/g16/l1.exe "/mnt/gs18/scratch/users/kengmith/Gau-60328.inp" -scrdir="/mnt/gs18/scratch/users/kengmith/"
 Entering Link 1 = /opt/software/Gaussian/g16-AVX2-C.01/g16/l1.exe PID=     60342.
  
 Copyright (c) 1988-2019, Gaussian, Inc.  All Rights Reserved.
  
 This is part of the Gaussian(R) 16 program.  It is based on
 the Gaussian(R) 09 system (copyright 2009, Gaussian, Inc.),
 the Gaussian(R) 03 system (copyright 2003, Gaussian, Inc.),
 the Gaussian(R) 98 system (copyright 1998, Gaussian, Inc.),
 the Gaussian(R) 94 system (copyright 1995, Gaussian, Inc.),
 the Gaussian 92(TM) system (copyright 1992, Gaussian, Inc.),
 the Gaussian 90(TM) system (copyright 1990, Gaussian, Inc.),
 the Gaussian 88(TM) system (copyright 1988, Gaussian, Inc.),
 the Gaussian 86(TM) system (copyright 1986, Carnegie Mellon
 University), and the Gaussian 82(TM) system (copyright 1983,
 Carnegie Mellon University). Gaussian is a federally registered
 trademark of Gaussian, Inc.
  
 This software contains proprietary and confidential information,
 including trade secrets, belonging to Gaussian, Inc.
  
 This software is provided under written license and may be
 used, copied, transmitted, or stored only in accord with that
 written license.
  
 The following legend is applicable only to US Government
 contracts under FAR:
  
                    RESTRICTED RIGHTS LEGEND
  
 Use, reproduction and disclosure by the US Government is
 subject to restrictions as set forth in subparagraphs (a)
 and (c) of the Commercial Computer Software - Restricted
 Rights clause in FAR 52.227-19.
  
 Gaussian, Inc.
 340 Quinnipiac St., Bldg. 40, Wallingford CT 06492
  
  
 ---------------------------------------------------------------
 Warning -- This program may not be used in any manner that
 competes with the business of Gaussian, Inc. or will provide
 assistance to any competitor of Gaussian, Inc.  The licensee
 of this program is prohibited from giving any competitor of
 Gaussian, Inc. access to this program.  By using this program,
 the user acknowledges that Gaussian, Inc. is engaged in the
 business of creating and licensing software in the field of
 computational chemistry and represents and warrants to the
 licensee that it is not a competitor of Gaussian, Inc. and that
 it will not use this program in any manner prohibited above.
 ---------------------------------------------------------------
  

 Cite this work as:
 Gaussian 16, Revision C.01,
 M. J. Frisch, G. W. Trucks, H. B. Schlegel, G. E. Scuseria, 
 M. A. Robb, J. R. Cheeseman, G. Scalmani, V. Barone, 
 G. A. Petersson, H. Nakatsuji, X. Li, M. Caricato, A. V. Marenich, 
 J. Bloino, B. G. Janesko, R. Gomperts, B. Mennucci, H. P. Hratchian, 
 J. V. Ortiz, A. F. Izmaylov, J. L. Sonnenberg, D. Williams-Young, 
 F. Ding, F. Lipparini, F. Egidi, J. Goings, B. Peng, A. Petrone, 
 T. Henderson, D. Ranasinghe, V. G. Zakrzewski, J. Gao, N. Rega, 
 G. Zheng, W. Liang, M. Hada, M. Ehara, K. Toyota, R. Fukuda, 
 J. Hasegawa, M. Ishida, T. Nakajima, Y. Honda, O. Kitao, H. Nakai, 
 T. Vreven, K. Throssell, J. A. Montgomery, Jr., J. E. Peralta, 
 F. Ogliaro, M. J. Bearpark, J. J. Heyd, E. N. Brothers, K. N. Kudin, 
 V. N. Staroverov, T. A. Keith, R. Kobayashi, J. Normand, 
 K. Raghavachari, A. P. Rendell, J. C. Burant, S. S. Iyengar, 
 J. Tomasi, M. Cossi, J. M. Millam, M. Klene, C. Adamo, R. Cammi, 
 J. W. Ochterski, R. L. Martin, K. Morokuma, O. Farkas, 
 J. B. Foresman, and D. J. Fox, Gaussian, Inc., Wallingford CT, 2019.
 
 ******************************************
 Gaussian 16:  ES64L-G16RevC.01  3-Jul-2019
                24-May-2022 
 ******************************************
 %mem=8gb
 %nproc=4
 Will use up to    4 processors via shared memory.
 %chk=conf-841.chk
 ----------------------------------------------------------------------
 # B3LYP/6-31G* empiricaldispersion=gd3 guess=read geom=check nosymm in
 tegral(ultrafinegrid)
 ----------------------------------------------------------------------
 1/29=2,38=1,172=1/1;
 2/12=2,15=1,40=1/2;
 3/5=1,6=6,7=1,11=2,14=-4,25=1,30=1,74=-5,75=-5,116=-2,124=31/1,2,3;
 4/5=1/1;
 5/5=2,38=6/2;
 6/7=2,8=2,9=2,10=2,28=1/1;
 99/5=1,9=1/99;
 ------------------------------------------------------
 Candidate Structure: Conf:841 Charge calc in gas phase
 ------------------------------------------------------
 Structure from the checkpoint file:  "conf-841.chk"
 Charge =  1 Multiplicity = 1
 Redundant internal coordinates found in file.  (old form).
 N,0,9.0969769508,19.6179487532,14.4490414653
 C,0,10.5945248536,19.8227556783,14.5063634021
 C,0,10.8697757234,19.8336781611,16.0258341351
 O,0,10.2311795898,20.6470281406,16.6868541436
 C,0,11.0604718345,21.1426373288,13.8708929461
 C,0,10.509080908,21.4733301482,12.4535468946
 C,0,10.2293400682,20.23130616,11.63457901
 O,0,9.1426821511,19.6534499216,11.7068733774
 O,0,11.2470775434,19.7764000247,10.9298832697
 H,0,11.0197953001,18.8697243808,10.5072645189
 H,0,8.6535691199,20.2961197754,15.0830583401
 H,0,11.0229668509,18.9747239234,13.9739589575
 H,0,12.1530796533,21.0771480731,13.8316190187
 H,0,10.8140188207,21.9666902117,14.5464903195
 H,0,9.5612330267,22.0119140768,12.5381404118
 H,0,11.2225610188,22.1209973191,11.9388653846
 H,0,8.7482921151,19.7013290104,13.4691944721
 H,0,8.9271545969,18.6621040645,14.8100840312
 N,0,11.7766530525,18.9846941715,16.5568957932
 C,0,12.3446747324,17.7745804493,15.9702804691
 C,0,11.2335957915,16.8847601766,15.3330812136
 O,0,10.0310763569,17.1366097453,15.4768724724
 C,0,13.1371996936,17.0617565644,17.0977308201
 C,0,14.0700960394,15.8920816051,16.7246656462
 C,0,15.11549499,16.2802891307,15.6660886116
 C,0,14.7651909883,15.3908764145,18.0012607593
 H,0,11.8149498349,19.0560453339,17.5691211272
 H,0,13.0406989702,18.0591488344,15.1711363412
 H,0,12.4137026391,16.7221565985,17.8508803483
 H,0,13.7539356243,17.8371943282,17.5725946171
 H,0,13.462739305,15.0615158091,16.342160743
 H,0,15.705813762,17.1413622453,16.0033442397
 H,0,15.8074373912,15.450747374,15.4899775778
 H,0,14.680749269,16.5405059425,14.6918777404
 H,0,15.409741595,16.1691201512,18.4281675045
 H,0,14.0373429264,15.0972337024,18.7658419766
 H,0,15.3923751248,14.5207563815,17.7826203766
 N,0,11.7318784933,15.8832925705,14.5845315598
 C,0,11.0179351188,14.919958181,13.7383810736
 C,0,11.9637546032,14.4035325704,12.6437029887
 O,0,11.6034905903,13.5845579483,11.8298907253
 C,0,9.8119118717,15.5267695619,12.9802503612
 C,0,10.2429793609,16.6948386007,12.0642751068
 C,0,10.0694385553,16.4503350721,10.5519755579
 N,0,11.0046302906,17.3068441226,9.7824404214
 C,0,12.3803564177,16.8567309586,9.6903428356
 N,0,12.8281954903,15.6817485782,9.9440339603
 N,0,13.2056400078,17.8590387067,9.2650499405
 O,0,13.1409615519,15.0561150949,12.6054664554
 H,0,13.4963067265,15.0110048775,11.6787355439
 H,0,12.7378518009,15.8433252303,14.4928378305
 H,0,10.6792577181,14.0692642023,14.3391543662
 H,0,9.0720441916,15.8483015829,13.7123563777
 H,0,9.3719236522,14.7089855935,12.4022248732
 H,0,9.6821307376,17.5934753834,12.3173512663
 H,0,11.2985472155,16.9306547109,12.2487029362
 H,0,9.0591430184,16.7261131939,10.2393813615
 H,0,10.2003725002,15.3899370141,10.307404873
 H,0,10.6510939885,17.5131071985,8.8477801008
 H,0,12.0863420136,14.9890259356,10.0293135065
 H,0,14.1816707754,17.6132572556,9.1665827833
 H,0,13.0044979582,18.8196721956,9.505606238
 Recover connectivity data from disk.
                           ----------------------------
                           !    Current Parameters    !
                           ! (Angstroms and Degrees)  !
 --------------------------                            --------------------------
 ! Name  Definition              Value                                          !
 --------------------------------------------------------------------------------
 ! R1    R(1,2)                  1.5126                                         !
 ! R2    R(1,11)                 1.0288                                         !
 ! R3    R(1,17)                 1.0434                                         !
 ! R4    R(1,18)                 1.0358                                         !
 ! R5    R(2,3)                  1.5442                                         !
 ! R6    R(2,5)                  1.5372                                         !
 ! R7    R(2,12)                 1.0891                                         !
 ! R8    R(3,4)                  1.2273                                         !
 ! R9    R(3,19)                 1.351                                          !
 ! R10   R(5,6)                  1.5564                                         !
 ! R11   R(5,13)                 1.0953                                         !
 ! R12   R(5,14)                 1.0937                                         !
 ! R13   R(6,7)                  1.5138                                         !
 ! R14   R(6,15)                 1.0935                                         !
 ! R15   R(6,16)                 1.0924                                         !
 ! R16   R(7,8)                  1.2329                                         !
 ! R17   R(7,9)                  1.3188                                         !
 ! R18   R(9,10)                 1.0258                                         !
 ! R19   R(19,20)                1.4598                                         !
 ! R20   R(19,27)                1.0155                                         !
 ! R21   R(20,21)                1.5596                                         !
 ! R22   R(20,23)                1.5516                                         !
 ! R23   R(20,28)                1.0973                                         !
 ! R24   R(21,22)                1.237                                          !
 ! R25   R(21,38)                1.3459                                         !
 ! R26   R(23,24)                1.542                                          !
 ! R27   R(23,29)                1.0982                                         !
 ! R28   R(23,30)                1.0987                                         !
 ! R29   R(24,25)                1.5376                                         !
 ! R30   R(24,26)                1.5375                                         !
 ! R31   R(24,31)                1.0977                                         !
 ! R32   R(25,32)                1.0971                                         !
 ! R33   R(25,33)                1.0945                                         !
 ! R34   R(25,34)                1.0981                                         !
 ! R35   R(26,35)                1.097                                          !
 ! R36   R(26,36)                1.0957                                         !
 ! R37   R(26,37)                1.0947                                         !
 ! R38   R(38,39)                1.4675                                         !
 ! R39   R(38,51)                1.0109                                         !
 ! R40   R(39,40)                1.5361                                         !
 ! R41   R(39,42)                1.5484                                         !
 ! R42   R(39,52)                1.0951                                         !
 ! R43   R(40,41)                1.2095                                         !
 ! R44   R(40,49)                1.3465                                         !
 ! R45   R(42,43)                1.5457                                         !
 ! R46   R(42,53)                1.0894                                         !
 ! R47   R(42,54)                1.0938                                         !
 ! R48   R(43,44)                1.5417                                         !
 ! R49   R(43,55)                1.0891                                         !
 ! R50   R(43,56)                1.0972                                         !
 ! R51   R(44,45)                1.4834                                         !
 ! R52   R(44,57)                1.0929                                         !
 ! R53   R(44,58)                1.0961                                         !
 ! R54   R(45,46)                1.4504                                         !
 ! R55   R(45,59)                1.0204                                         !
 ! R56   R(46,47)                1.2828                                         !
 ! R57   R(46,48)                1.3662                                         !
 ! R58   R(47,60)                1.0186                                         !
 ! R59   R(48,61)                1.0113                                         !
 ! R60   R(48,62)                1.0105                                         !
 ! R61   R(49,50)                0.9935                                         !
 ! A1    A(2,1,11)             108.306                                          !
 ! A2    A(2,1,17)             110.8325                                         !
 ! A3    A(2,1,18)             105.9067                                         !
 ! A4    A(11,1,17)            112.4588                                         !
 ! A5    A(11,1,18)            108.834                                          !
 ! A6    A(17,1,18)            110.2613                                         !
 ! A7    A(1,2,3)              102.3991                                         !
 ! A8    A(1,2,5)              113.6216                                         !
 ! A9    A(1,2,12)             105.3979                                         !
 ! A10   A(3,2,5)              110.2832                                         !
 ! A11   A(3,2,12)             114.6068                                         !
 ! A12   A(5,2,12)             110.3183                                         !
 ! A13   A(2,3,4)              116.225                                          !
 ! A14   A(2,3,19)             120.1313                                         !
 ! A15   A(4,3,19)             123.6425                                         !
 ! A16   A(2,5,6)              116.8412                                         !
 ! A17   A(2,5,13)             105.418                                          !
 ! A18   A(2,5,14)             108.8603                                         !
 ! A19   A(6,5,13)             109.4795                                         !
 ! A20   A(6,5,14)             108.8208                                         !
 ! A21   A(13,5,14)            106.9768                                         !
 ! A22   A(5,6,7)              112.5703                                         !
 ! A23   A(5,6,15)             109.9566                                         !
 ! A24   A(5,6,16)             108.8829                                         !
 ! A25   A(7,6,15)             106.6061                                         !
 ! A26   A(7,6,16)             110.624                                          !
 ! A27   A(15,6,16)            108.0936                                         !
 ! A28   A(6,7,8)              121.0452                                         !
 ! A29   A(6,7,9)              115.4342                                         !
 ! A30   A(8,7,9)              123.3558                                         !
 ! A31   A(7,9,10)             110.7335                                         !
 ! A32   A(3,19,20)            128.619                                          !
 ! A33   A(3,19,27)            111.9004                                         !
 ! A34   A(20,19,27)           116.3674                                         !
 ! A35   A(19,20,21)           111.0956                                         !
 ! A36   A(19,20,23)           106.7134                                         !
 ! A37   A(19,20,28)           108.9344                                         !
 ! A38   A(21,20,23)           113.4946                                         !
 ! A39   A(21,20,28)           107.596                                          !
 ! A40   A(23,20,28)           108.9266                                         !
 ! A41   A(20,21,22)           121.9318                                         !
 ! A42   A(20,21,38)           112.8307                                         !
 ! A43   A(22,21,38)           125.172                                          !
 ! A44   A(20,23,24)           118.7983                                         !
 ! A45   A(20,23,29)           107.6922                                         !
 ! A46   A(20,23,30)           106.0535                                         !
 ! A47   A(24,23,29)           109.265                                          !
 ! A48   A(24,23,30)           107.4777                                         !
 ! A49   A(29,23,30)           106.9568                                         !
 ! A50   A(23,24,25)           112.7303                                         !
 ! A51   A(23,24,26)           108.6573                                         !
 ! A52   A(23,24,31)           108.8753                                         !
 ! A53   A(25,24,26)           110.2768                                         !
 ! A54   A(25,24,31)           109.1055                                         !
 ! A55   A(26,24,31)           107.0255                                         !
 ! A56   A(24,25,32)           110.6312                                         !
 ! A57   A(24,25,33)           110.4415                                         !
 ! A58   A(24,25,34)           113.669                                          !
 ! A59   A(32,25,33)           107.7071                                         !
 ! A60   A(32,25,34)           107.4432                                         !
 ! A61   A(33,25,34)           106.6872                                         !
 ! A62   A(24,26,35)           110.9457                                         !
 ! A63   A(24,26,36)           111.4951                                         !
 ! A64   A(24,26,37)           110.6278                                         !
 ! A65   A(35,26,36)           107.9914                                         !
 ! A66   A(35,26,37)           107.7584                                         !
 ! A67   A(36,26,37)           107.8753                                         !
 ! A68   A(21,38,39)           128.9752                                         !
 ! A69   A(21,38,51)           116.6319                                         !
 ! A70   A(39,38,51)           113.9445                                         !
 ! A71   A(38,39,40)           109.392                                          !
 ! A72   A(38,39,42)           113.827                                          !
 ! A73   A(38,39,52)           110.1243                                         !
 ! A74   A(40,39,42)           105.2134                                         !
 ! A75   A(40,39,52)           108.6755                                         !
 ! A76   A(42,39,52)           109.3995                                         !
 ! A77   A(39,40,41)           121.5844                                         !
 ! A78   A(39,40,49)           113.3038                                         !
 ! A79   A(41,40,49)           124.7137                                         !
 ! A80   A(39,42,43)           111.6593                                         !
 ! A81   A(39,42,53)           108.398                                          !
 ! A82   A(39,42,54)           106.2034                                         !
 ! A83   A(43,42,53)           111.3834                                         !
 ! A84   A(43,42,54)           111.3462                                         !
 ! A85   A(53,42,54)           107.6141                                         !
 ! A86   A(42,43,44)           115.4703                                         !
 ! A87   A(42,43,55)           110.0118                                         !
 ! A88   A(42,43,56)           109.3359                                         !
 ! A89   A(44,43,55)           107.5071                                         !
 ! A90   A(44,43,56)           107.894                                          !
 ! A91   A(55,43,56)           106.2021                                         !
 ! A92   A(43,44,45)           110.2633                                         !
 ! A93   A(43,44,57)           110.1569                                         !
 ! A94   A(43,44,58)           111.0297                                         !
 ! A95   A(45,44,57)           106.781                                          !
 ! A96   A(45,44,58)           111.5642                                         !
 ! A97   A(57,44,58)           106.9012                                         !
 ! A98   A(44,45,46)           116.8553                                         !
 ! A99   A(44,45,59)           111.9309                                         !
 ! A100  A(46,45,59)           109.4638                                         !
 ! A101  A(45,46,47)           127.0735                                         !
 ! A102  A(45,46,48)           111.4105                                         !
 ! A103  A(47,46,48)           121.5108                                         !
 ! A104  A(46,47,60)           112.6581                                         !
 ! A105  A(46,48,61)           115.7853                                         !
 ! A106  A(46,48,62)           120.2036                                         !
 ! A107  A(61,48,62)           116.5079                                         !
 ! A108  A(40,49,50)           108.4914                                         !
 ! D1    D(11,1,2,3)            49.5449                                         !
 ! D2    D(11,1,2,5)           -69.3724                                         !
 ! D3    D(11,1,2,12)          169.7272                                         !
 ! D4    D(17,1,2,3)           173.3533                                         !
 ! D5    D(17,1,2,5)            54.436                                          !
 ! D6    D(17,1,2,12)          -66.4644                                         !
 ! D7    D(18,1,2,3)           -67.0614                                         !
 ! D8    D(18,1,2,5)           174.0213                                         !
 ! D9    D(18,1,2,12)           53.121                                          !
 ! D10   D(1,2,3,4)            -55.2106                                         !
 ! D11   D(1,2,3,19)           125.175                                          !
 ! D12   D(5,2,3,4)             66.0302                                         !
 ! D13   D(5,2,3,19)          -113.5842                                         !
 ! D14   D(12,2,3,4)          -168.7702                                         !
 ! D15   D(12,2,3,19)           11.6154                                         !
 ! D16   D(1,2,5,6)            -48.8981                                         !
 ! D17   D(1,2,5,13)          -170.7176                                         !
 ! D18   D(1,2,5,14)            74.8086                                         !
 ! D19   D(3,2,5,6)           -163.1959                                         !
 ! D20   D(3,2,5,13)            74.9846                                         !
 ! D21   D(3,2,5,14)           -39.4892                                         !
 ! D22   D(12,2,5,6)            69.199                                          !
 ! D23   D(12,2,5,13)          -52.6205                                         !
 ! D24   D(12,2,5,14)         -167.0943                                         !
 ! D25   D(2,3,19,20)          -17.2901                                         !
 ! D26   D(2,3,19,27)         -176.3222                                         !
 ! D27   D(4,3,19,20)          163.1254                                         !
 ! D28   D(4,3,19,27)            4.0933                                         !
 ! D29   D(2,5,6,7)            -30.4694                                         !
 ! D30   D(2,5,6,15)            88.2289                                         !
 ! D31   D(2,5,6,16)          -153.5156                                         !
 ! D32   D(13,5,6,7)            89.2033                                         !
 ! D33   D(13,5,6,15)         -152.0984                                         !
 ! D34   D(13,5,6,16)          -33.8429                                         !
 ! D35   D(14,5,6,7)          -154.1963                                         !
 ! D36   D(14,5,6,15)          -35.498                                          !
 ! D37   D(14,5,6,16)           82.7575                                         !
 ! D38   D(5,6,7,8)             87.1987                                         !
 ! D39   D(5,6,7,9)            -88.2874                                         !
 ! D40   D(15,6,7,8)           -33.4428                                         !
 ! D41   D(15,6,7,9)           151.0711                                         !
 ! D42   D(16,6,7,8)          -150.7344                                         !
 ! D43   D(16,6,7,9)            33.7795                                         !
 ! D44   D(6,7,9,10)           172.2855                                         !
 ! D45   D(8,7,9,10)            -3.0843                                         !
 ! D46   D(3,19,20,21)         -46.1577                                         !
 ! D47   D(3,19,20,23)        -170.3509                                         !
 ! D48   D(3,19,20,28)          72.1947                                         !
 ! D49   D(27,19,20,21)        112.0913                                         !
 ! D50   D(27,19,20,23)        -12.1019                                         !
 ! D51   D(27,19,20,28)       -129.5563                                         !
 ! D52   D(19,20,21,22)         -7.9975                                         !
 ! D53   D(19,20,21,38)        169.2009                                         !
 ! D54   D(23,20,21,22)        112.2545                                         !
 ! D55   D(23,20,21,38)        -70.5471                                         !
 ! D56   D(28,20,21,22)       -127.155                                          !
 ! D57   D(28,20,21,38)         50.0434                                         !
 ! D58   D(19,20,23,24)       -168.6529                                         !
 ! D59   D(19,20,23,29)         66.5585                                         !
 ! D60   D(19,20,23,30)        -47.6679                                         !
 ! D61   D(21,20,23,24)         68.6432                                         !
 ! D62   D(21,20,23,29)        -56.1454                                         !
 ! D63   D(21,20,23,30)       -170.3718                                         !
 ! D64   D(28,20,23,24)        -51.1933                                         !
 ! D65   D(28,20,23,29)       -175.9819                                         !
 ! D66   D(28,20,23,30)         69.7917                                         !
 ! D67   D(20,21,38,39)       -174.03                                           !
 ! D68   D(20,21,38,51)         -2.2503                                         !
 ! D69   D(22,21,38,39)          3.0611                                         !
 ! D70   D(22,21,38,51)        174.8409                                         !
 ! D71   D(20,23,24,25)         55.7302                                         !
 ! D72   D(20,23,24,26)        178.2799                                         !
 ! D73   D(20,23,24,31)        -65.4859                                         !
 ! D74   D(29,23,24,25)        179.7513                                         !
 ! D75   D(29,23,24,26)        -57.699                                          !
 ! D76   D(29,23,24,31)         58.5352                                         !
 ! D77   D(30,23,24,25)        -64.5299                                         !
 ! D78   D(30,23,24,26)         58.0198                                         !
 ! D79   D(30,23,24,31)        174.254                                          !
 ! D80   D(23,24,25,32)         56.1869                                         !
 ! D81   D(23,24,25,33)        175.3411                                         !
 ! D82   D(23,24,25,34)        -64.7937                                         !
 ! D83   D(26,24,25,32)        -65.4501                                         !
 ! D84   D(26,24,25,33)         53.7042                                         !
 ! D85   D(26,24,25,34)        173.5693                                         !
 ! D86   D(31,24,25,32)        177.2719                                         !
 ! D87   D(31,24,25,33)        -63.5739                                         !
 ! D88   D(31,24,25,34)         56.2913                                         !
 ! D89   D(23,24,26,35)        -63.7616                                         !
 ! D90   D(23,24,26,36)         56.6489                                         !
 ! D91   D(23,24,26,37)        176.6974                                         !
 ! D92   D(25,24,26,35)         60.2606                                         !
 ! D93   D(25,24,26,36)       -179.3288                                         !
 ! D94   D(25,24,26,37)        -59.2804                                         !
 ! D95   D(31,24,26,35)        178.8192                                         !
 ! D96   D(31,24,26,36)        -60.7703                                         !
 ! D97   D(31,24,26,37)         59.2782                                         !
 ! D98   D(21,38,39,40)        155.1832                                         !
 ! D99   D(21,38,39,42)         37.8241                                         !
 ! D100  D(21,38,39,52)        -85.442                                          !
 ! D101  D(51,38,39,40)        -16.778                                          !
 ! D102  D(51,38,39,42)       -134.1371                                         !
 ! D103  D(51,38,39,52)        102.5968                                         !
 ! D104  D(38,39,40,41)        179.1774                                         !
 ! D105  D(38,39,40,49)         -7.7412                                         !
 ! D106  D(42,39,40,41)        -58.1696                                         !
 ! D107  D(42,39,40,49)        114.9118                                         !
 ! D108  D(52,39,40,41)         58.9124                                         !
 ! D109  D(52,39,40,49)       -128.0062                                         !
 ! D110  D(38,39,42,43)         58.8998                                         !
 ! D111  D(38,39,42,53)        -64.1609                                         !
 ! D112  D(38,39,42,54)       -179.5493                                         !
 ! D113  D(40,39,42,43)        -60.8519                                         !
 ! D114  D(40,39,42,53)        176.0874                                         !
 ! D115  D(40,39,42,54)         60.699                                          !
 ! D116  D(52,39,42,43)       -177.4401                                         !
 ! D117  D(52,39,42,53)         59.4992                                         !
 ! D118  D(52,39,42,54)        -55.8891                                         !
 ! D119  D(39,40,49,50)       -152.8054                                         !
 ! D120  D(41,40,49,50)         20.0233                                         !
 ! D121  D(39,42,43,44)        114.4344                                         !
 ! D122  D(39,42,43,55)       -123.6881                                         !
 ! D123  D(39,42,43,56)         -7.4243                                         !
 ! D124  D(53,42,43,44)       -124.2202                                         !
 ! D125  D(53,42,43,55)         -2.3428                                         !
 ! D126  D(53,42,43,56)        113.9211                                         !
 ! D127  D(54,42,43,44)         -4.0919                                         !
 ! D128  D(54,42,43,55)        117.7855                                         !
 ! D129  D(54,42,43,56)       -125.9506                                         !
 ! D130  D(42,43,44,45)       -155.4945                                         !
 ! D131  D(42,43,44,57)         86.9014                                         !
 ! D132  D(42,43,44,58)        -31.3222                                         !
 ! D133  D(55,43,44,45)         81.2948                                         !
 ! D134  D(55,43,44,57)        -36.3092                                         !
 ! D135  D(55,43,44,58)       -154.5329                                         !
 ! D136  D(56,43,44,45)        -32.8659                                         !
 ! D137  D(56,43,44,57)       -150.4699                                         !
 ! D138  D(56,43,44,58)         91.3064                                         !
 ! D139  D(43,44,45,46)         79.5558                                         !
 ! D140  D(43,44,45,59)       -153.1077                                         !
 ! D141  D(57,44,45,46)       -160.7748                                         !
 ! D142  D(57,44,45,59)        -33.4383                                         !
 ! D143  D(58,44,45,46)        -44.3078                                         !
 ! D144  D(58,44,45,59)         83.0287                                         !
 ! D145  D(44,45,46,47)         16.1535                                         !
 ! D146  D(44,45,46,48)       -164.667                                          !
 ! D147  D(59,45,46,47)       -112.3791                                         !
 ! D148  D(59,45,46,48)         66.8005                                         !
 ! D149  D(45,46,47,60)         13.0332                                         !
 ! D150  D(48,46,47,60)       -166.0709                                         !
 ! D151  D(45,46,48,61)       -179.2995                                         !
 ! D152  D(45,46,48,62)         31.9683                                         !
 ! D153  D(47,46,48,61)         -0.0673                                         !
 ! D154  D(47,46,48,62)       -148.7996                                         !
 --------------------------------------------------------------------------------
 Symmetry turned off by external request.
 Stoichiometry    C17H33N6O6(1+)
 Framework group  C1[X(C17H33N6O6)]
 Deg. of freedom   180
 Full point group                 C1      NOp   1
                          Input orientation:                          
 ---------------------------------------------------------------------
 Center     Atomic      Atomic             Coordinates (Angstroms)
 Number     Number       Type             X           Y           Z
 ---------------------------------------------------------------------
      1          7           0        9.096977   19.617949   14.449041
      2          6           0       10.594525   19.822756   14.506363
      3          6           0       10.869776   19.833678   16.025834
      4          8           0       10.231180   20.647028   16.686854
      5          6           0       11.060472   21.142637   13.870893
      6          6           0       10.509081   21.473330   12.453547
      7          6           0       10.229340   20.231306   11.634579
      8          8           0        9.142682   19.653450   11.706873
      9          8           0       11.247078   19.776400   10.929883
     10          1           0       11.019795   18.869724   10.507265
     11          1           0        8.653569   20.296120   15.083058
     12          1           0       11.022967   18.974724   13.973959
     13          1           0       12.153080   21.077148   13.831619
     14          1           0       10.814019   21.966690   14.546490
     15          1           0        9.561233   22.011914   12.538140
     16          1           0       11.222561   22.120997   11.938865
     17          1           0        8.748292   19.701329   13.469194
     18          1           0        8.927155   18.662104   14.810084
     19          7           0       11.776653   18.984694   16.556896
     20          6           0       12.344675   17.774580   15.970280
     21          6           0       11.233596   16.884760   15.333081
     22          8           0       10.031076   17.136610   15.476872
     23          6           0       13.137200   17.061757   17.097731
     24          6           0       14.070096   15.892082   16.724666
     25          6           0       15.115495   16.280289   15.666089
     26          6           0       14.765191   15.390876   18.001261
     27          1           0       11.814950   19.056045   17.569121
     28          1           0       13.040699   18.059149   15.171136
     29          1           0       12.413703   16.722157   17.850880
     30          1           0       13.753936   17.837194   17.572595
     31          1           0       13.462739   15.061516   16.342161
     32          1           0       15.705814   17.141362   16.003344
     33          1           0       15.807437   15.450747   15.489978
     34          1           0       14.680749   16.540506   14.691878
     35          1           0       15.409742   16.169120   18.428168
     36          1           0       14.037343   15.097234   18.765842
     37          1           0       15.392375   14.520756   17.782620
     38          7           0       11.731878   15.883293   14.584532
     39          6           0       11.017935   14.919958   13.738381
     40          6           0       11.963755   14.403533   12.643703
     41          8           0       11.603491   13.584558   11.829891
     42          6           0        9.811912   15.526770   12.980250
     43          6           0       10.242979   16.694839   12.064275
     44          6           0       10.069439   16.450335   10.551976
     45          7           0       11.004630   17.306844    9.782440
     46          6           0       12.380356   16.856731    9.690343
     47          7           0       12.828195   15.681749    9.944034
     48          7           0       13.205640   17.859039    9.265050
     49          8           0       13.140962   15.056115   12.605466
     50          1           0       13.496307   15.011005   11.678736
     51          1           0       12.737852   15.843325   14.492838
     52          1           0       10.679258   14.069264   14.339154
     53          1           0        9.072044   15.848302   13.712356
     54          1           0        9.371924   14.708986   12.402225
     55          1           0        9.682131   17.593475   12.317351
     56          1           0       11.298547   16.930655   12.248703
     57          1           0        9.059143   16.726113   10.239381
     58          1           0       10.200373   15.389937   10.307405
     59          1           0       10.651094   17.513107    8.847780
     60          1           0       12.086342   14.989026   10.029314
     61          1           0       14.181671   17.613257    9.166583
     62          1           0       13.004498   18.819672    9.505606
 ---------------------------------------------------------------------
 Rotational constants (GHZ):           0.1730042           0.1505029           0.1008790
 Standard basis: 6-31G(d) (6D, 7F)
   501 basis functions,   944 primitive gaussians,   501 cartesian basis functions
   112 alpha electrons      112 beta electrons
       nuclear repulsion energy      3276.3697560211 Hartrees.
 NAtoms=   62 NActive=   62 NUniq=   62 SFac= 1.00D+00 NAtFMM=   60 NAOKFM=T Big=T
 Integral buffers will be    131072 words long.
 Raffenetti 2 integral format.
 Two-electron integral symmetry is turned off.
 Nuclear repulsion after empirical dispersion term =     3276.2780436986 Hartrees.
 One-electron integrals computed using PRISM.
 NBasis=   501 RedAO= T EigKep=  1.67D-03  NBF=   501
 NBsUse=   501 1.00D-06 EigRej= -1.00D+00 NBFU=   501
 Initial guess from the checkpoint file:  "conf-841.chk"
 B after Tr=     0.000000    0.000000    0.000000
         Rot=    1.000000    0.000000    0.000000    0.000000 Ang=   0.00 deg.
 Requested convergence on RMS density matrix=1.00D-08 within 128 cycles.
 Requested convergence on MAX density matrix=1.00D-06.
 Requested convergence on             energy=1.00D-06.
 No special actions if energy rises.
 SCF Done:  E(RB3LYP) =  -1447.48093483     A.U. after    2 cycles
            NFock=  2  Conv=0.93D-08     -V/T= 2.0093

 **********************************************************************

            Population analysis using the SCF Density.

 **********************************************************************

 Alpha  occ. eigenvalues --  -19.31442 -19.30075 -19.27501 -19.25593 -19.25220
 Alpha  occ. eigenvalues --  -19.24762 -14.57807 -14.49549 -14.49274 -14.48335
 Alpha  occ. eigenvalues --  -14.45934 -14.40786 -10.45676 -10.43258 -10.42929
 Alpha  occ. eigenvalues --  -10.42594 -10.40478 -10.39955 -10.37157 -10.36039
 Alpha  occ. eigenvalues --  -10.34445 -10.33697 -10.33479 -10.31208 -10.30304
 Alpha  occ. eigenvalues --  -10.30207 -10.30131 -10.27967 -10.26774  -1.23230
 Alpha  occ. eigenvalues --   -1.21204  -1.18139  -1.16803  -1.14475  -1.12519
 Alpha  occ. eigenvalues --   -1.12347  -1.09274  -1.06170  -1.05962  -1.00677
 Alpha  occ. eigenvalues --   -0.96133  -0.94607  -0.93149  -0.91375  -0.87811
 Alpha  occ. eigenvalues --   -0.87184  -0.85087  -0.79493  -0.79242  -0.78653
 Alpha  occ. eigenvalues --   -0.76819  -0.74680  -0.73859  -0.73193  -0.72476
 Alpha  occ. eigenvalues --   -0.71381  -0.70398  -0.69851  -0.68951  -0.67244
 Alpha  occ. eigenvalues --   -0.66698  -0.65747  -0.63822  -0.63221  -0.62757
 Alpha  occ. eigenvalues --   -0.62448  -0.62314  -0.61864  -0.60386  -0.59780
 Alpha  occ. eigenvalues --   -0.59008  -0.58946  -0.58338  -0.57510  -0.57455
 Alpha  occ. eigenvalues --   -0.57145  -0.56000  -0.55482  -0.54828  -0.54232
 Alpha  occ. eigenvalues --   -0.53891  -0.53466  -0.53333  -0.52848  -0.52038
 Alpha  occ. eigenvalues --   -0.50767  -0.50421  -0.49996  -0.49850  -0.49701
 Alpha  occ. eigenvalues --   -0.49151  -0.48963  -0.48449  -0.48139  -0.46971
 Alpha  occ. eigenvalues --   -0.46526  -0.46499  -0.45871  -0.44398  -0.44006
 Alpha  occ. eigenvalues --   -0.43479  -0.43399  -0.42530  -0.41219  -0.40046
 Alpha  occ. eigenvalues --   -0.39674  -0.39554  -0.39075  -0.38466  -0.37683
 Alpha  occ. eigenvalues --   -0.37556  -0.35337
 Alpha virt. eigenvalues --   -0.13666  -0.12355  -0.11845  -0.10830  -0.08467
 Alpha virt. eigenvalues --   -0.07128  -0.05098  -0.03641  -0.02855  -0.02299
 Alpha virt. eigenvalues --   -0.01535  -0.00621  -0.00446   0.00080   0.00157
 Alpha virt. eigenvalues --    0.00338   0.01184   0.01631   0.02195   0.02362
 Alpha virt. eigenvalues --    0.02786   0.02843   0.03413   0.03517   0.04387
 Alpha virt. eigenvalues --    0.04462   0.04987   0.05301   0.05512   0.06012
 Alpha virt. eigenvalues --    0.06315   0.06614   0.06802   0.07283   0.07651
 Alpha virt. eigenvalues --    0.08778   0.09070   0.09544   0.09851   0.10338
 Alpha virt. eigenvalues --    0.11234   0.11444   0.11660   0.12170   0.12556
 Alpha virt. eigenvalues --    0.12868   0.13171   0.13613   0.14273   0.15048
 Alpha virt. eigenvalues --    0.15204   0.16285   0.16518   0.16756   0.18286
 Alpha virt. eigenvalues --    0.18629   0.20612   0.21176   0.23415   0.24404
 Alpha virt. eigenvalues --    0.24641   0.24965   0.27498   0.30231   0.30520
 Alpha virt. eigenvalues --    0.33655   0.35370   0.36135   0.37265   0.38436
 Alpha virt. eigenvalues --    0.39714   0.40172   0.40622   0.41040   0.41881
 Alpha virt. eigenvalues --    0.42446   0.42579   0.43080   0.44123   0.45368
 Alpha virt. eigenvalues --    0.45639   0.46466   0.46774   0.47447   0.47587
 Alpha virt. eigenvalues --    0.48388   0.48781   0.49201   0.49588   0.50065
 Alpha virt. eigenvalues --    0.50683   0.50886   0.52108   0.52387   0.53024
 Alpha virt. eigenvalues --    0.53927   0.54350   0.54780   0.55041   0.56010
 Alpha virt. eigenvalues --    0.56914   0.57439   0.57890   0.58350   0.58906
 Alpha virt. eigenvalues --    0.60213   0.61211   0.61562   0.61777   0.62418
 Alpha virt. eigenvalues --    0.63123   0.63738   0.64111   0.64695   0.65010
 Alpha virt. eigenvalues --    0.65975   0.66306   0.67145   0.68347   0.68998
 Alpha virt. eigenvalues --    0.69322   0.69752   0.70259   0.70665   0.71428
 Alpha virt. eigenvalues --    0.71793   0.72672   0.73080   0.73208   0.73605
 Alpha virt. eigenvalues --    0.74593   0.75548   0.75736   0.76026   0.76654
 Alpha virt. eigenvalues --    0.76921   0.77281   0.78025   0.78710   0.78847
 Alpha virt. eigenvalues --    0.79820   0.80007   0.80768   0.81021   0.81325
 Alpha virt. eigenvalues --    0.81611   0.82252   0.82365   0.82520   0.83547
 Alpha virt. eigenvalues --    0.84037   0.84449   0.85270   0.85488   0.86825
 Alpha virt. eigenvalues --    0.87412   0.87837   0.88653   0.89226   0.89382
 Alpha virt. eigenvalues --    0.89760   0.91076   0.91506   0.92478   0.93153
 Alpha virt. eigenvalues --    0.93338   0.93634   0.94618   0.95786   0.96843
 Alpha virt. eigenvalues --    0.97451   0.98320   0.98432   0.99809   1.00649
 Alpha virt. eigenvalues --    1.01424   1.01951   1.02688   1.02967   1.04147
 Alpha virt. eigenvalues --    1.06018   1.07074   1.08248   1.08489   1.10124
 Alpha virt. eigenvalues --    1.11088   1.12978   1.14643   1.15788   1.16549
 Alpha virt. eigenvalues --    1.18031   1.18860   1.19841   1.20576   1.21528
 Alpha virt. eigenvalues --    1.22264   1.24866   1.25571   1.26985   1.27714
 Alpha virt. eigenvalues --    1.28954   1.29107   1.30501   1.31366   1.32422
 Alpha virt. eigenvalues --    1.32621   1.34313   1.35229   1.36519   1.37077
 Alpha virt. eigenvalues --    1.38658   1.39614   1.41024   1.43823   1.45068
 Alpha virt. eigenvalues --    1.46459   1.47445   1.48792   1.49948   1.51047
 Alpha virt. eigenvalues --    1.51537   1.53201   1.55506   1.55832   1.56375
 Alpha virt. eigenvalues --    1.57748   1.58520   1.59006   1.59654   1.60943
 Alpha virt. eigenvalues --    1.62628   1.63048   1.63882   1.64007   1.64280
 Alpha virt. eigenvalues --    1.65345   1.65952   1.66951   1.67024   1.67897
 Alpha virt. eigenvalues --    1.68935   1.70231   1.70652   1.71163   1.71532
 Alpha virt. eigenvalues --    1.72248   1.72468   1.72990   1.73271   1.73743
 Alpha virt. eigenvalues --    1.74733   1.75361   1.76261   1.76700   1.77797
 Alpha virt. eigenvalues --    1.78125   1.79979   1.80324   1.81198   1.82096
 Alpha virt. eigenvalues --    1.82526   1.83032   1.84122   1.84502   1.85013
 Alpha virt. eigenvalues --    1.86008   1.86333   1.87513   1.88009   1.88843
 Alpha virt. eigenvalues --    1.89979   1.90961   1.91399   1.92263   1.93274
 Alpha virt. eigenvalues --    1.94619   1.95176   1.96331   1.97330   1.98149
 Alpha virt. eigenvalues --    2.00008   2.00442   2.01563   2.02097   2.02886
 Alpha virt. eigenvalues --    2.04110   2.06032   2.06629   2.07326   2.08192
 Alpha virt. eigenvalues --    2.10018   2.10424   2.12326   2.13974   2.14427
 Alpha virt. eigenvalues --    2.15501   2.15875   2.16848   2.17468   2.18312
 Alpha virt. eigenvalues --    2.19234   2.20926   2.21049   2.22067   2.23323
 Alpha virt. eigenvalues --    2.24105   2.25458   2.27351   2.28323   2.29712
 Alpha virt. eigenvalues --    2.30527   2.30888   2.31365   2.32923   2.33716
 Alpha virt. eigenvalues --    2.35240   2.35918   2.37917   2.38577   2.40357
 Alpha virt. eigenvalues --    2.41564   2.42038   2.43350   2.44333   2.46620
 Alpha virt. eigenvalues --    2.48606   2.49567   2.50283   2.51340   2.52679
 Alpha virt. eigenvalues --    2.52965   2.54308   2.54769   2.56565   2.57390
 Alpha virt. eigenvalues --    2.59424   2.60440   2.61086   2.62363   2.63676
 Alpha virt. eigenvalues --    2.64378   2.65386   2.65659   2.68004   2.68635
 Alpha virt. eigenvalues --    2.73553   2.74962   2.77144   2.79327   2.84198
 Alpha virt. eigenvalues --    2.86064   2.86610   2.87259   2.89974   2.92303
 Alpha virt. eigenvalues --    2.94713   2.95561   3.00069   3.02600   3.10277
 Alpha virt. eigenvalues --    3.69728   3.70802   3.81856   3.85225   3.86706
 Alpha virt. eigenvalues --    3.92022   3.94934   3.99432   4.00876   4.03102
 Alpha virt. eigenvalues --    4.06188   4.08514   4.11348   4.14430   4.16273
 Alpha virt. eigenvalues --    4.17978   4.19621   4.20272   4.22415   4.25547
 Alpha virt. eigenvalues --    4.30104   4.33557   4.38514   4.42039   4.46342
 Alpha virt. eigenvalues --    4.49968   4.53273   4.58124   4.61479
          Condensed to atoms (all electrons):
 Mulliken charges:
               1
     1  N   -0.772762
     2  C   -0.116900
     3  C    0.629217
     4  O   -0.505555
     5  C   -0.294501
     6  C   -0.363882
     7  C    0.594188
     8  O   -0.505416
     9  O   -0.592316
    10  H    0.467225
    11  H    0.411809
    12  H    0.198476
    13  H    0.194842
    14  H    0.213489
    15  H    0.194815
    16  H    0.209737
    17  H    0.432569
    18  H    0.439049
    19  N   -0.602519
    20  C   -0.061523
    21  C    0.628006
    22  O   -0.566541
    23  C   -0.301968
    24  C   -0.102922
    25  C   -0.468950
    26  C   -0.450336
    27  H    0.363452
    28  H    0.177202
    29  H    0.170569
    30  H    0.168759
    31  H    0.140827
    32  H    0.159642
    33  H    0.178114
    34  H    0.138185
    35  H    0.156733
    36  H    0.158796
    37  H    0.167850
    38  N   -0.631259
    39  C   -0.031874
    40  C    0.598616
    41  O   -0.453144
    42  C   -0.297532
    43  C   -0.318571
    44  C   -0.158116
    45  N   -0.692339
    46  C    0.606289
    47  N   -0.683365
    48  N   -0.739140
    49  O   -0.605387
    50  H    0.454136
    51  H    0.392302
    52  H    0.210527
    53  H    0.184891
    54  H    0.192556
    55  H    0.159725
    56  H    0.149601
    57  H    0.180572
    58  H    0.182662
    59  H    0.365866
    60  H    0.332159
    61  H    0.361959
    62  H    0.351403
 Sum of Mulliken charges =   1.00000
 Mulliken charges with hydrogens summed into heavy atoms:
               1
     1  N    0.510664
     2  C    0.081575
     3  C    0.629217
     4  O   -0.505555
     5  C    0.113830
     6  C    0.040670
     7  C    0.594188
     8  O   -0.505416
     9  O   -0.125090
    19  N   -0.239067
    20  C    0.115680
    21  C    0.628006
    22  O   -0.566541
    23  C    0.037360
    24  C    0.037905
    25  C    0.006993
    26  C    0.033043
    38  N   -0.238957
    39  C    0.178654
    40  C    0.598616
    41  O   -0.453144
    42  C    0.079915
    43  C   -0.009245
    44  C    0.205118
    45  N   -0.326473
    46  C    0.606289
    47  N   -0.351207
    48  N   -0.025778
    49  O   -0.151251
 Electronic spatial extent (au):  <R**2>=         510041.8516
 Charge=              1.0000 electrons
 Dipole moment (field-independent basis, Debye):
    X=             54.7591    Y=             89.4470    Z=             64.8235  Tot=            123.2940
 Quadrupole moment (field-independent basis, Debye-Ang):
   XX=            476.9655   YY=           1507.2538   ZZ=            736.7182
   XY=           1013.4348   XZ=            749.8636   YZ=           1193.1412
 Traceless Quadrupole moment (field-independent basis, Debye-Ang):
   XX=           -430.0137   YY=            600.2746   ZZ=           -170.2609
   XY=           1013.4348   XZ=            749.8636   YZ=           1193.1412
 Octapole moment (field-independent basis, Debye-Ang**2):
  XXX=           1991.1638  YYY=          22795.2872  ZZZ=           6134.7066  XYY=          16909.8292
  XXY=           8918.5227  XXZ=           6685.7208  XZZ=           8704.6438  YZZ=          13487.0801
  YYZ=          19841.9858  XYZ=          13678.0877
 Hexadecapole moment (field-independent basis, Debye-Ang**3):
 XXXX=         -40419.1565 YYYY=         288380.0028 ZZZZ=          -2010.3423 XXXY=          41563.2210
 XXXZ=          30501.5892 YYYX=         252014.5751 YYYZ=         293896.4765 ZZZX=          76047.2701
 ZZZY=         112302.7225 XXYY=         143870.9788 XXZZ=          74477.0054 YYZZ=         216383.8916
 XXYZ=         122184.1839 YYXZ=         224685.3539 ZZXY=         157523.2029
 N-N= 3.276278043699D+03 E-N=-9.899703956076D+03  KE= 1.434077645532D+03
 Unable to Open any file for archive entry.
 1\1\GINC-SKL-140\SP\RB3LYP\6-31G(d)\C17H33N6O6(1+)\KENGMITH\24-May-202
 2\0\\# B3LYP/6-31G* empiricaldispersion=gd3 guess=read geom=check nosy
 mm integral(ultrafinegrid)\\Candidate Structure: Conf:841 Charge calc 
 in gas phase\\1,1\N,0,9.0969769508,19.6179487532,14.4490414653\C,0,10.
 5945248536,19.8227556783,14.5063634021\C,0,10.8697757234,19.8336781611
 ,16.0258341351\O,0,10.2311795898,20.6470281406,16.6868541436\C,0,11.06
 04718345,21.1426373288,13.8708929461\C,0,10.509080908,21.4733301482,12
 .4535468946\C,0,10.2293400682,20.23130616,11.63457901\O,0,9.1426821511
 ,19.6534499216,11.7068733774\O,0,11.2470775434,19.7764000247,10.929883
 2697\H,0,11.0197953001,18.8697243808,10.5072645189\H,0,8.6535691199,20
 .2961197754,15.0830583401\H,0,11.0229668509,18.9747239234,13.973958957
 5\H,0,12.1530796533,21.0771480731,13.8316190187\H,0,10.8140188207,21.9
 666902117,14.5464903195\H,0,9.5612330267,22.0119140768,12.5381404118\H
 ,0,11.2225610188,22.1209973191,11.9388653846\H,0,8.7482921151,19.70132
 90104,13.4691944721\H,0,8.9271545969,18.6621040645,14.8100840312\N,0,1
 1.7766530525,18.9846941715,16.5568957932\C,0,12.3446747324,17.77458044
 93,15.9702804691\C,0,11.2335957915,16.8847601766,15.3330812136\O,0,10.
 0310763569,17.1366097453,15.4768724724\C,0,13.1371996936,17.0617565644
 ,17.0977308201\C,0,14.0700960394,15.8920816051,16.7246656462\C,0,15.11
 549499,16.2802891307,15.6660886116\C,0,14.7651909883,15.3908764145,18.
 0012607593\H,0,11.8149498349,19.0560453339,17.5691211272\H,0,13.040698
 9702,18.0591488344,15.1711363412\H,0,12.4137026391,16.7221565985,17.85
 08803483\H,0,13.7539356243,17.8371943282,17.5725946171\H,0,13.46273930
 5,15.0615158091,16.342160743\H,0,15.705813762,17.1413622453,16.0033442
 397\H,0,15.8074373912,15.450747374,15.4899775778\H,0,14.680749269,16.5
 405059425,14.6918777404\H,0,15.409741595,16.1691201512,18.4281675045\H
 ,0,14.0373429264,15.0972337024,18.7658419766\H,0,15.3923751248,14.5207
 563815,17.7826203766\N,0,11.7318784933,15.8832925705,14.5845315598\C,0
 ,11.0179351188,14.919958181,13.7383810736\C,0,11.9637546032,14.4035325
 704,12.6437029887\O,0,11.6034905903,13.5845579483,11.8298907253\C,0,9.
 8119118717,15.5267695619,12.9802503612\C,0,10.2429793609,16.6948386007
 ,12.0642751068\C,0,10.0694385553,16.4503350721,10.5519755579\N,0,11.00
 46302906,17.3068441226,9.7824404214\C,0,12.3803564177,16.8567309586,9.
 6903428356\N,0,12.8281954903,15.6817485782,9.9440339603\N,0,13.2056400
 078,17.8590387067,9.2650499405\O,0,13.1409615519,15.0561150949,12.6054
 664554\H,0,13.4963067265,15.0110048775,11.6787355439\H,0,12.7378518009
 ,15.8433252303,14.4928378305\H,0,10.6792577181,14.0692642023,14.339154
 3662\H,0,9.0720441916,15.8483015829,13.7123563777\H,0,9.3719236522,14.
 7089855935,12.4022248732\H,0,9.6821307376,17.5934753834,12.3173512663\
 H,0,11.2985472155,16.9306547109,12.2487029362\H,0,9.0591430184,16.7261
 131939,10.2393813615\H,0,10.2003725002,15.3899370141,10.307404873\H,0,
 10.6510939885,17.5131071985,8.8477801008\H,0,12.0863420136,14.98902593
 56,10.0293135065\H,0,14.1816707754,17.6132572556,9.1665827833\H,0,13.0
 044979582,18.8196721956,9.505606238\\Version=ES64L-G16RevC.01\HF=-1447
 .4809348\RMSD=9.259e-09\Dipole=-0.2957866,2.096588,-0.0735544\Quadrupo
 le=-319.7046352,446.2894714,-126.5848362,753.4639454,557.5052133,887.0
 712092\PG=C01 [X(C17H33N6O6)]\\@
 The archive entry for this job was punched.


 Everywhere is walking distance if you have the time.
                                    -- Steven Wright
 Job cpu time:       0 days  0 hours  2 minutes 19.4 seconds.
 Elapsed time:       0 days  0 hours  0 minutes 35.5 seconds.
 File lengths (MBytes):  RWF=    248 Int=      0 D2E=      0 Chk=     32 Scr=     16
 Normal termination of Gaussian 16 at Tue May 24 03:34:10 2022.
