 Entering Gaussian System, Link 0=/opt/software/Gaussian/g16-AVX2-C.01/g16/g16
 Input=charge-conf-796.com
 Output=charge-conf-796.log
 Initial command:
 /opt/software/Gaussian/g16-AVX2-C.01/g16/l1.exe "/mnt/gs18/scratch/users/kengmith/Gau-14609.inp" -scrdir="/mnt/gs18/scratch/users/kengmith/"
 Entering Link 1 = /opt/software/Gaussian/g16-AVX2-C.01/g16/l1.exe PID=     14620.
  
 Copyright (c) 1988-2019, Gaussian, Inc.  All Rights Reserved.
  
 This is part of the Gaussian(R) 16 program.  It is based on
 the Gaussian(R) 09 system (copyright 2009, Gaussian, Inc.),
 the Gaussian(R) 03 system (copyright 2003, Gaussian, Inc.),
 the Gaussian(R) 98 system (copyright 1998, Gaussian, Inc.),
 the Gaussian(R) 94 system (copyright 1995, Gaussian, Inc.),
 the Gaussian 92(TM) system (copyright 1992, Gaussian, Inc.),
 the Gaussian 90(TM) system (copyright 1990, Gaussian, Inc.),
 the Gaussian 88(TM) system (copyright 1988, Gaussian, Inc.),
 the Gaussian 86(TM) system (copyright 1986, Carnegie Mellon
 University), and the Gaussian 82(TM) system (copyright 1983,
 Carnegie Mellon University). Gaussian is a federally registered
 trademark of Gaussian, Inc.
  
 This software contains proprietary and confidential information,
 including trade secrets, belonging to Gaussian, Inc.
  
 This software is provided under written license and may be
 used, copied, transmitted, or stored only in accord with that
 written license.
  
 The following legend is applicable only to US Government
 contracts under FAR:
  
                    RESTRICTED RIGHTS LEGEND
  
 Use, reproduction and disclosure by the US Government is
 subject to restrictions as set forth in subparagraphs (a)
 and (c) of the Commercial Computer Software - Restricted
 Rights clause in FAR 52.227-19.
  
 Gaussian, Inc.
 340 Quinnipiac St., Bldg. 40, Wallingford CT 06492
  
  
 ---------------------------------------------------------------
 Warning -- This program may not be used in any manner that
 competes with the business of Gaussian, Inc. or will provide
 assistance to any competitor of Gaussian, Inc.  The licensee
 of this program is prohibited from giving any competitor of
 Gaussian, Inc. access to this program.  By using this program,
 the user acknowledges that Gaussian, Inc. is engaged in the
 business of creating and licensing software in the field of
 computational chemistry and represents and warrants to the
 licensee that it is not a competitor of Gaussian, Inc. and that
 it will not use this program in any manner prohibited above.
 ---------------------------------------------------------------
  

 Cite this work as:
 Gaussian 16, Revision C.01,
 M. J. Frisch, G. W. Trucks, H. B. Schlegel, G. E. Scuseria, 
 M. A. Robb, J. R. Cheeseman, G. Scalmani, V. Barone, 
 G. A. Petersson, H. Nakatsuji, X. Li, M. Caricato, A. V. Marenich, 
 J. Bloino, B. G. Janesko, R. Gomperts, B. Mennucci, H. P. Hratchian, 
 J. V. Ortiz, A. F. Izmaylov, J. L. Sonnenberg, D. Williams-Young, 
 F. Ding, F. Lipparini, F. Egidi, J. Goings, B. Peng, A. Petrone, 
 T. Henderson, D. Ranasinghe, V. G. Zakrzewski, J. Gao, N. Rega, 
 G. Zheng, W. Liang, M. Hada, M. Ehara, K. Toyota, R. Fukuda, 
 J. Hasegawa, M. Ishida, T. Nakajima, Y. Honda, O. Kitao, H. Nakai, 
 T. Vreven, K. Throssell, J. A. Montgomery, Jr., J. E. Peralta, 
 F. Ogliaro, M. J. Bearpark, J. J. Heyd, E. N. Brothers, K. N. Kudin, 
 V. N. Staroverov, T. A. Keith, R. Kobayashi, J. Normand, 
 K. Raghavachari, A. P. Rendell, J. C. Burant, S. S. Iyengar, 
 J. Tomasi, M. Cossi, J. M. Millam, M. Klene, C. Adamo, R. Cammi, 
 J. W. Ochterski, R. L. Martin, K. Morokuma, O. Farkas, 
 J. B. Foresman, and D. J. Fox, Gaussian, Inc., Wallingford CT, 2019.
 
 ******************************************
 Gaussian 16:  ES64L-G16RevC.01  3-Jul-2019
                24-May-2022 
 ******************************************
 %mem=8gb
 %nproc=4
 Will use up to    4 processors via shared memory.
 %chk=conf-796.chk
 ----------------------------------------------------------------------
 # B3LYP/6-31G* empiricaldispersion=gd3 guess=read geom=check nosymm in
 tegral(ultrafinegrid)
 ----------------------------------------------------------------------
 1/29=2,38=1,172=1/1;
 2/12=2,15=1,40=1/2;
 3/5=1,6=6,7=1,11=2,14=-4,25=1,30=1,74=-5,75=-5,116=-2,124=31/1,2,3;
 4/5=1/1;
 5/5=2,38=6/2;
 6/7=2,8=2,9=2,10=2,28=1/1;
 99/5=1,9=1/99;
 ------------------------------------------------------
 Candidate Structure: Conf:796 Charge calc in gas phase
 ------------------------------------------------------
 Structure from the checkpoint file:  "conf-796.chk"
 Charge =  1 Multiplicity = 1
 Redundant internal coordinates found in file.  (old form).
 N,0,8.7957978353,17.8780340407,12.1206756193
 C,0,10.0037646152,17.4138790009,11.3411395859
 C,0,10.4655907057,18.6771925852,10.5962815299
 O,0,9.6688593166,19.2016222886,9.8287850756
 C,0,9.6837552423,16.2759076091,10.3627443682
 C,0,8.9709695756,15.0392415332,10.9807069114
 C,0,9.4921040094,14.7815437097,12.3771132484
 O,0,9.0663839387,15.4564126552,13.3283228046
 O,0,10.4656630598,13.9163456159,12.4674505956
 H,0,10.9136771881,13.9297450161,13.3991836993
 H,0,8.0980173225,18.2730488284,11.4792765477
 H,0,10.706387736,17.073400527,12.0996184323
 H,0,10.6449331692,15.9660796851,9.9379187851
 H,0,9.0849205341,16.6729719621,9.5376030726
 H,0,7.8942110045,15.2182276017,11.0569013386
 H,0,9.1287289595,14.1726207468,10.3357349131
 H,0,8.4360613021,17.0763637627,12.6777886879
 H,0,9.1340668935,18.6222134352,12.7625625623
 N,0,11.7162132345,19.1401209723,10.8363593889
 C,0,12.5841887859,18.7922940783,11.9524829088
 C,0,11.8461910119,18.9395561595,13.3210038195
 O,0,10.7211930096,19.4468530233,13.3987099834
 C,0,13.8412136378,19.6896181578,11.9079804211
 C,0,14.6890441358,19.5794855321,10.6230461158
 C,0,15.8824685399,20.5412334862,10.7234991101
 C,0,15.1593945365,18.1422183568,10.3616004719
 H,0,11.9029428685,20.0206674456,10.3676704662
 H,0,12.9017468952,17.7461546427,11.85219394
 H,0,14.4790940962,19.4360286619,12.7632956701
 H,0,13.5236627646,20.7301977766,12.0616218475
 H,0,14.0763078012,19.8961780573,9.76699438
 H,0,15.5555945852,21.5731102561,10.8951362615
 H,0,16.5468182463,20.2557023859,11.5488008646
 H,0,16.4716298146,20.5245945129,9.8011038608
 H,0,15.7300504169,17.7543680299,11.2158407077
 H,0,14.3238882047,17.4592444373,10.166842521
 H,0,15.8143029549,18.1065145184,9.4853528353
 N,0,12.546594083,18.4326741103,14.3548383922
 C,0,12.3787626095,18.6547224757,15.8021457908
 C,0,12.9879904686,17.4931399817,16.5944601304
 O,0,12.8089660258,17.3428647457,17.7783209445
 C,0,10.9744884353,19.0196873368,16.3282603772
 C,0,9.8000136295,18.0421142484,16.1589145056
 C,0,9.9967109989,16.6059431091,16.66992919
 N,0,10.7337591755,15.8405252838,15.6675212119
 C,0,11.582307904,14.7935771877,15.9187670258
 N,0,12.1037982009,14.3500643741,16.9966231389
 N,0,12.0098551867,14.1924138814,14.6668850259
 O,0,13.795452259,16.691765222,15.8576149112
 H,0,14.041729124,15.9429667305,16.4418493534
 H,0,13.4478934944,18.0307445943,14.1259943713
 H,0,13.0162617645,19.5150930842,16.0610557574
 H,0,10.6927151337,19.9738664865,15.8776573929
 H,0,11.1287494448,19.1994683331,17.3971776538
 H,0,8.9494706806,18.4855749797,16.6904702983
 H,0,9.5100929894,18.000824515,15.1018686334
 H,0,9.0191926216,16.1402578261,16.8552230921
 H,0,10.5440460227,16.6056479346,17.6139457321
 H,0,10.209951612,15.7374846232,14.8014593589
 H,0,11.7175558609,14.7925630454,17.8307319566
 H,0,12.5301459619,13.3478633534,14.9075518602
 H,0,12.6696603147,14.8330296927,14.219620293
 Recover connectivity data from disk.
                           ----------------------------
                           !    Current Parameters    !
                           ! (Angstroms and Degrees)  !
 --------------------------                            --------------------------
 ! Name  Definition              Value                                          !
 --------------------------------------------------------------------------------
 ! R1    R(1,2)                  1.5107                                         !
 ! R2    R(1,11)                 1.0268                                         !
 ! R3    R(1,17)                 1.0404                                         !
 ! R4    R(1,18)                 1.0393                                         !
 ! R5    R(2,3)                  1.5375                                         !
 ! R6    R(2,5)                  1.5345                                         !
 ! R7    R(2,12)                 1.0885                                         !
 ! R8    R(3,4)                  1.2243                                         !
 ! R9    R(3,19)                 1.355                                          !
 ! R10   R(5,6)                  1.5554                                         !
 ! R11   R(5,13)                 1.0956                                         !
 ! R12   R(5,14)                 1.0941                                         !
 ! R13   R(6,7)                  1.5126                                         !
 ! R14   R(6,15)                 1.0942                                         !
 ! R15   R(6,16)                 1.0917                                         !
 ! R16   R(7,8)                  1.2416                                         !
 ! R17   R(7,9)                  1.3056                                         !
 ! R18   R(9,10)                 1.0339                                         !
 ! R19   R(19,20)                1.4561                                         !
 ! R20   R(19,27)                1.0148                                         !
 ! R21   R(20,21)                1.5618                                         !
 ! R22   R(20,23)                1.5451                                         !
 ! R23   R(20,28)                1.0979                                         !
 ! R24   R(21,22)                1.2365                                         !
 ! R25   R(21,38)                1.3477                                         !
 ! R26   R(23,24)                1.5434                                         !
 ! R27   R(23,29)                1.0967                                         !
 ! R28   R(23,30)                1.0987                                         !
 ! R29   R(24,25)                1.536                                          !
 ! R30   R(24,26)                1.5347                                         !
 ! R31   R(24,31)                1.0993                                         !
 ! R32   R(25,32)                1.0959                                         !
 ! R33   R(25,33)                1.0973                                         !
 ! R34   R(25,34)                1.0946                                         !
 ! R35   R(26,35)                1.0981                                         !
 ! R36   R(26,36)                1.0966                                         !
 ! R37   R(26,37)                1.0945                                         !
 ! R38   R(38,39)                1.4738                                         !
 ! R39   R(38,51)                1.013                                          !
 ! R40   R(39,40)                1.5324                                         !
 ! R41   R(39,42)                1.5434                                         !
 ! R42   R(39,52)                1.1017                                         !
 ! R43   R(40,41)                1.2067                                         !
 ! R44   R(40,49)                1.3554                                         !
 ! R45   R(42,43)                1.5374                                         !
 ! R46   R(42,53)                1.0922                                         !
 ! R47   R(42,54)                1.0949                                         !
 ! R48   R(43,44)                1.537                                          !
 ! R49   R(43,55)                1.0966                                         !
 ! R50   R(43,56)                1.0969                                         !
 ! R51   R(44,45)                1.4608                                         !
 ! R52   R(44,57)                1.0985                                         !
 ! R53   R(44,58)                1.0912                                         !
 ! R54   R(45,46)                1.3709                                         !
 ! R55   R(45,59)                1.0174                                         !
 ! R56   R(46,47)                1.2769                                         !
 ! R57   R(46,48)                1.4531                                         !
 ! R58   R(47,60)                1.0202                                         !
 ! R59   R(48,61)                1.0207                                         !
 ! R60   R(48,62)                1.0226                                         !
 ! R61   R(49,50)                0.9812                                         !
 ! A1    A(2,1,11)             109.8311                                         !
 ! A2    A(2,1,17)             108.4234                                         !
 ! A3    A(2,1,18)             106.166                                          !
 ! A4    A(11,1,17)            113.3248                                         !
 ! A5    A(11,1,18)            109.3599                                         !
 ! A6    A(17,1,18)            109.4836                                         !
 ! A7    A(1,2,3)              103.751                                          !
 ! A8    A(1,2,5)              112.9608                                         !
 ! A9    A(1,2,12)             104.6359                                         !
 ! A10   A(3,2,5)              111.2896                                         !
 ! A11   A(3,2,12)             113.6205                                         !
 ! A12   A(5,2,12)             110.2995                                         !
 ! A13   A(2,3,4)              117.3989                                         !
 ! A14   A(2,3,19)             118.1711                                         !
 ! A15   A(4,3,19)             124.4285                                         !
 ! A16   A(2,5,6)              115.5867                                         !
 ! A17   A(2,5,13)             105.9022                                         !
 ! A18   A(2,5,14)             109.0178                                         !
 ! A19   A(6,5,13)             109.3448                                         !
 ! A20   A(6,5,14)             109.7153                                         !
 ! A21   A(13,5,14)            106.8798                                         !
 ! A22   A(5,6,7)              110.1423                                         !
 ! A23   A(5,6,15)             110.4                                            !
 ! A24   A(5,6,16)             109.2805                                         !
 ! A25   A(7,6,15)             107.6153                                         !
 ! A26   A(7,6,16)             111.1229                                         !
 ! A27   A(15,6,16)            108.2514                                         !
 ! A28   A(6,7,8)              119.7717                                         !
 ! A29   A(6,7,9)              115.7021                                         !
 ! A30   A(8,7,9)              124.256                                          !
 ! A31   A(7,9,10)             112.1405                                         !
 ! A32   A(3,19,20)            127.1858                                         !
 ! A33   A(3,19,27)            112.6087                                         !
 ! A34   A(20,19,27)           116.8465                                         !
 ! A35   A(19,20,21)           111.5599                                         !
 ! A36   A(19,20,23)           108.915                                          !
 ! A37   A(19,20,28)           109.2707                                         !
 ! A38   A(21,20,23)           110.7882                                         !
 ! A39   A(21,20,28)           107.8529                                         !
 ! A40   A(23,20,28)           108.3876                                         !
 ! A41   A(20,21,22)           121.5782                                         !
 ! A42   A(20,21,38)           113.0255                                         !
 ! A43   A(22,21,38)           125.3746                                         !
 ! A44   A(20,23,24)           115.4331                                         !
 ! A45   A(20,23,29)           108.448                                          !
 ! A46   A(20,23,30)           108.1109                                         !
 ! A47   A(24,23,29)           108.2575                                         !
 ! A48   A(24,23,30)           110.0453                                         !
 ! A49   A(29,23,30)           106.1427                                         !
 ! A50   A(23,24,25)           109.1285                                         !
 ! A51   A(23,24,26)           112.1489                                         !
 ! A52   A(23,24,31)           108.7574                                         !
 ! A53   A(25,24,26)           111.0635                                         !
 ! A54   A(25,24,31)           107.6743                                         !
 ! A55   A(26,24,31)           107.9356                                         !
 ! A56   A(24,25,32)           111.5949                                         !
 ! A57   A(24,25,33)           110.8961                                         !
 ! A58   A(24,25,34)           110.7053                                         !
 ! A59   A(32,25,33)           107.9265                                         !
 ! A60   A(32,25,34)           107.8675                                         !
 ! A61   A(33,25,34)           107.696                                          !
 ! A62   A(24,26,35)           110.9482                                         !
 ! A63   A(24,26,36)           112.3355                                         !
 ! A64   A(24,26,37)           110.5063                                         !
 ! A65   A(35,26,36)           108.3089                                         !
 ! A66   A(35,26,37)           107.4768                                         !
 ! A67   A(36,26,37)           107.0613                                         !
 ! A68   A(21,38,39)           129.6025                                         !
 ! A69   A(21,38,51)           115.9961                                         !
 ! A70   A(39,38,51)           112.5148                                         !
 ! A71   A(38,39,40)           110.3813                                         !
 ! A72   A(38,39,42)           118.2938                                         !
 ! A73   A(38,39,52)           106.4126                                         !
 ! A74   A(40,39,42)           111.3914                                         !
 ! A75   A(40,39,52)           103.9113                                         !
 ! A76   A(42,39,52)           105.1723                                         !
 ! A77   A(39,40,41)           122.8657                                         !
 ! A78   A(39,40,49)           113.8245                                         !
 ! A79   A(41,40,49)           123.236                                          !
 ! A80   A(39,42,43)           120.4749                                         !
 ! A81   A(39,42,53)           107.499                                          !
 ! A82   A(39,42,54)           104.0899                                         !
 ! A83   A(43,42,53)           108.2383                                         !
 ! A84   A(43,42,54)           108.6376                                         !
 ! A85   A(53,42,54)           107.1987                                         !
 ! A86   A(42,43,44)           117.3707                                         !
 ! A87   A(42,43,55)           106.3778                                         !
 ! A88   A(42,43,56)           109.3904                                         !
 ! A89   A(44,43,55)           108.4182                                         !
 ! A90   A(44,43,56)           108.6058                                         !
 ! A91   A(55,43,56)           106.1013                                         !
 ! A92   A(43,44,45)           109.0274                                         !
 ! A93   A(43,44,57)           109.774                                          !
 ! A94   A(43,44,58)           110.6138                                         !
 ! A95   A(45,44,57)           110.0354                                         !
 ! A96   A(45,44,58)           109.9028                                         !
 ! A97   A(57,44,58)           107.4755                                         !
 ! A98   A(44,45,46)           125.9242                                         !
 ! A99   A(44,45,59)           112.1753                                         !
 ! A100  A(46,45,59)           113.4133                                         !
 ! A101  A(45,46,47)           132.2819                                         !
 ! A102  A(45,46,48)           109.8887                                         !
 ! A103  A(47,46,48)           117.6058                                         !
 ! A104  A(46,47,60)           112.6372                                         !
 ! A105  A(46,48,61)           106.8075                                         !
 ! A106  A(46,48,62)           107.9076                                         !
 ! A107  A(61,48,62)           107.0113                                         !
 ! A108  A(40,49,50)           106.084                                          !
 ! D1    D(11,1,2,3)            57.1818                                         !
 ! D2    D(11,1,2,5)           -63.458                                          !
 ! D3    D(11,1,2,12)          176.5383                                         !
 ! D4    D(17,1,2,3)          -178.5011                                         !
 ! D5    D(17,1,2,5)            60.8591                                         !
 ! D6    D(17,1,2,12)          -59.1446                                         !
 ! D7    D(18,1,2,3)           -60.9467                                         !
 ! D8    D(18,1,2,5)           178.4135                                         !
 ! D9    D(18,1,2,12)           58.4098                                         !
 ! D10   D(1,2,3,4)            -59.4859                                         !
 ! D11   D(1,2,3,19)           120.0969                                         !
 ! D12   D(5,2,3,4)             62.2758                                         !
 ! D13   D(5,2,3,19)          -118.1414                                         !
 ! D14   D(12,2,3,4)          -172.4988                                         !
 ! D15   D(12,2,3,19)            7.084                                          !
 ! D16   D(1,2,5,6)            -53.3589                                         !
 ! D17   D(1,2,5,13)          -174.5774                                         !
 ! D18   D(1,2,5,14)            70.7427                                         !
 ! D19   D(3,2,5,6)           -169.6005                                         !
 ! D20   D(3,2,5,13)            69.181                                          !
 ! D21   D(3,2,5,14)           -45.4988                                         !
 ! D22   D(12,2,5,6)            63.3402                                         !
 ! D23   D(12,2,5,13)          -57.8783                                         !
 ! D24   D(12,2,5,14)         -172.5582                                         !
 ! D25   D(2,3,19,20)          -16.3479                                         !
 ! D26   D(2,3,19,27)         -174.7788                                         !
 ! D27   D(4,3,19,20)          163.203                                          !
 ! D28   D(4,3,19,27)            4.7722                                         !
 ! D29   D(2,5,6,7)            -36.2526                                         !
 ! D30   D(2,5,6,15)            82.4532                                         !
 ! D31   D(2,5,6,16)          -158.5938                                         !
 ! D32   D(13,5,6,7)            83.0927                                         !
 ! D33   D(13,5,6,15)         -158.2015                                         !
 ! D34   D(13,5,6,16)          -39.2485                                         !
 ! D35   D(14,5,6,7)          -159.9897                                         !
 ! D36   D(14,5,6,15)          -41.2838                                         !
 ! D37   D(14,5,6,16)           77.6692                                         !
 ! D38   D(5,6,7,8)             79.9907                                         !
 ! D39   D(5,6,7,9)            -94.2923                                         !
 ! D40   D(15,6,7,8)           -40.4073                                         !
 ! D41   D(15,6,7,9)           145.3097                                         !
 ! D42   D(16,6,7,8)          -158.7619                                         !
 ! D43   D(16,6,7,9)            26.9551                                         !
 ! D44   D(6,7,9,10)           167.7327                                         !
 ! D45   D(8,7,9,10)            -6.2623                                         !
 ! D46   D(3,19,20,21)         -50.5526                                         !
 ! D47   D(3,19,20,23)        -173.1542                                         !
 ! D48   D(3,19,20,28)          68.6136                                         !
 ! D49   D(27,19,20,21)        107.0908                                         !
 ! D50   D(27,19,20,23)        -15.5108                                         !
 ! D51   D(27,19,20,28)       -133.743                                          !
 ! D52   D(19,20,21,22)         -7.9994                                         !
 ! D53   D(19,20,21,38)        170.3914                                         !
 ! D54   D(23,20,21,22)        113.5224                                         !
 ! D55   D(23,20,21,38)        -68.0868                                         !
 ! D56   D(28,20,21,22)       -128.0042                                         !
 ! D57   D(28,20,21,38)         50.3866                                         !
 ! D58   D(19,20,23,24)        -59.5558                                         !
 ! D59   D(19,20,23,29)        178.8206                                         !
 ! D60   D(19,20,23,30)         64.1454                                         !
 ! D61   D(21,20,23,24)        177.3794                                         !
 ! D62   D(21,20,23,29)         55.7558                                         !
 ! D63   D(21,20,23,30)        -58.9194                                         !
 ! D64   D(28,20,23,24)         59.2308                                         !
 ! D65   D(28,20,23,29)        -62.3928                                         !
 ! D66   D(28,20,23,30)       -177.068                                          !
 ! D67   D(20,21,38,39)        163.2922                                         !
 ! D68   D(20,21,38,51)          0.2765                                         !
 ! D69   D(22,21,38,39)        -18.3892                                         !
 ! D70   D(22,21,38,51)        178.5952                                         !
 ! D71   D(20,23,24,25)        179.1764                                         !
 ! D72   D(20,23,24,26)        -57.3265                                         !
 ! D73   D(20,23,24,31)         61.9725                                         !
 ! D74   D(29,23,24,25)        -59.0975                                         !
 ! D75   D(29,23,24,26)         64.3996                                         !
 ! D76   D(29,23,24,31)       -176.3015                                         !
 ! D77   D(30,23,24,25)         56.498                                          !
 ! D78   D(30,23,24,26)        179.9951                                         !
 ! D79   D(30,23,24,31)        -60.7059                                         !
 ! D80   D(23,24,25,32)        -56.7217                                         !
 ! D81   D(23,24,25,33)         63.64                                           !
 ! D82   D(23,24,25,34)       -176.8788                                         !
 ! D83   D(26,24,25,32)        179.1394                                         !
 ! D84   D(26,24,25,33)        -60.4988                                         !
 ! D85   D(26,24,25,34)         58.9823                                         !
 ! D86   D(31,24,25,32)         61.1656                                         !
 ! D87   D(31,24,25,33)       -178.4726                                         !
 ! D88   D(31,24,25,34)        -58.9915                                         !
 ! D89   D(23,24,26,35)        -56.9471                                         !
 ! D90   D(23,24,26,36)         64.4484                                         !
 ! D91   D(23,24,26,37)       -176.0586                                         !
 ! D92   D(25,24,26,35)         65.4578                                         !
 ! D93   D(25,24,26,36)       -173.1467                                         !
 ! D94   D(25,24,26,37)        -53.6538                                         !
 ! D95   D(31,24,26,35)       -176.727                                          !
 ! D96   D(31,24,26,36)        -55.3314                                         !
 ! D97   D(31,24,26,37)         64.1615                                         !
 ! D98   D(21,38,39,40)        157.3081                                         !
 ! D99   D(21,38,39,42)         27.3759                                         !
 ! D100  D(21,38,39,52)        -90.5559                                         !
 ! D101  D(51,38,39,40)        -39.2041                                         !
 ! D102  D(51,38,39,42)       -169.1363                                         !
 ! D103  D(51,38,39,52)         72.9319                                         !
 ! D104  D(38,39,40,41)       -168.8675                                         !
 ! D105  D(38,39,40,49)         14.1656                                         !
 ! D106  D(42,39,40,41)        -35.3487                                         !
 ! D107  D(42,39,40,49)        147.6844                                         !
 ! D108  D(52,39,40,41)         77.3946                                         !
 ! D109  D(52,39,40,49)        -99.5723                                         !
 ! D110  D(38,39,42,43)         61.9069                                         !
 ! D111  D(38,39,42,53)        -62.5848                                         !
 ! D112  D(38,39,42,54)       -176.087                                          !
 ! D113  D(40,39,42,43)        -67.5611                                         !
 ! D114  D(40,39,42,53)        167.9473                                         !
 ! D115  D(40,39,42,54)         54.445                                          !
 ! D116  D(52,39,42,43)       -179.5086                                         !
 ! D117  D(52,39,42,53)         55.9997                                         !
 ! D118  D(52,39,42,54)        -57.5025                                         !
 ! D119  D(39,40,49,50)       -174.0625                                         !
 ! D120  D(41,40,49,50)          8.9834                                         !
 ! D121  D(39,42,43,44)         53.3163                                         !
 ! D122  D(39,42,43,55)        174.8484                                         !
 ! D123  D(39,42,43,56)        -70.9537                                         !
 ! D124  D(53,42,43,44)        177.4588                                         !
 ! D125  D(53,42,43,55)        -61.0091                                         !
 ! D126  D(53,42,43,56)         53.1888                                         !
 ! D127  D(54,42,43,44)        -66.4568                                         !
 ! D128  D(54,42,43,55)         55.0753                                         !
 ! D129  D(54,42,43,56)        169.2732                                         !
 ! D130  D(42,43,44,45)        -81.3287                                         !
 ! D131  D(42,43,44,57)        158.068                                          !
 ! D132  D(42,43,44,58)         39.6322                                         !
 ! D133  D(55,43,44,45)        158.2033                                         !
 ! D134  D(55,43,44,57)         37.6                                            !
 ! D135  D(55,43,44,58)        -80.8358                                         !
 ! D136  D(56,43,44,45)         43.3348                                         !
 ! D137  D(56,43,44,57)        -77.2685                                         !
 ! D138  D(56,43,44,58)        164.2957                                         !
 ! D139  D(43,44,45,46)        149.9239                                         !
 ! D140  D(43,44,45,59)        -64.4678                                         !
 ! D141  D(57,44,45,46)        -89.6333                                         !
 ! D142  D(57,44,45,59)         55.975                                          !
 ! D143  D(58,44,45,46)         28.5294                                         !
 ! D144  D(58,44,45,59)        174.1376                                         !
 ! D145  D(44,45,46,47)        -12.0516                                         !
 ! D146  D(44,45,46,48)        173.6604                                         !
 ! D147  D(59,45,46,47)       -157.3014                                         !
 ! D148  D(59,45,46,48)         28.4106                                         !
 ! D149  D(45,46,47,60)          8.8488                                         !
 ! D150  D(48,46,47,60)       -177.2138                                         !
 ! D151  D(45,46,48,61)       -172.3893                                         !
 ! D152  D(45,46,48,62)         72.8529                                         !
 ! D153  D(47,46,48,61)         12.3772                                         !
 ! D154  D(47,46,48,62)       -102.3806                                         !
 --------------------------------------------------------------------------------
 Symmetry turned off by external request.
 Stoichiometry    C17H33N6O6(1+)
 Framework group  C1[X(C17H33N6O6)]
 Deg. of freedom   180
 Full point group                 C1      NOp   1
                          Input orientation:                          
 ---------------------------------------------------------------------
 Center     Atomic      Atomic             Coordinates (Angstroms)
 Number     Number       Type             X           Y           Z
 ---------------------------------------------------------------------
      1          7           0        8.795798   17.878034   12.120676
      2          6           0       10.003765   17.413879   11.341140
      3          6           0       10.465591   18.677193   10.596282
      4          8           0        9.668859   19.201622    9.828785
      5          6           0        9.683755   16.275908   10.362744
      6          6           0        8.970970   15.039242   10.980707
      7          6           0        9.492104   14.781544   12.377113
      8          8           0        9.066384   15.456413   13.328323
      9          8           0       10.465663   13.916346   12.467451
     10          1           0       10.913677   13.929745   13.399184
     11          1           0        8.098017   18.273049   11.479277
     12          1           0       10.706388   17.073401   12.099618
     13          1           0       10.644933   15.966080    9.937919
     14          1           0        9.084921   16.672972    9.537603
     15          1           0        7.894211   15.218228   11.056901
     16          1           0        9.128729   14.172621   10.335735
     17          1           0        8.436061   17.076364   12.677789
     18          1           0        9.134067   18.622213   12.762563
     19          7           0       11.716213   19.140121   10.836359
     20          6           0       12.584189   18.792294   11.952483
     21          6           0       11.846191   18.939556   13.321004
     22          8           0       10.721193   19.446853   13.398710
     23          6           0       13.841214   19.689618   11.907980
     24          6           0       14.689044   19.579486   10.623046
     25          6           0       15.882469   20.541233   10.723499
     26          6           0       15.159395   18.142218   10.361600
     27          1           0       11.902943   20.020667   10.367670
     28          1           0       12.901747   17.746155   11.852194
     29          1           0       14.479094   19.436029   12.763296
     30          1           0       13.523663   20.730198   12.061622
     31          1           0       14.076308   19.896178    9.766994
     32          1           0       15.555595   21.573110   10.895136
     33          1           0       16.546818   20.255702   11.548801
     34          1           0       16.471630   20.524595    9.801104
     35          1           0       15.730050   17.754368   11.215841
     36          1           0       14.323888   17.459244   10.166843
     37          1           0       15.814303   18.106515    9.485353
     38          7           0       12.546594   18.432674   14.354838
     39          6           0       12.378763   18.654722   15.802146
     40          6           0       12.987990   17.493140   16.594460
     41          8           0       12.808966   17.342865   17.778321
     42          6           0       10.974488   19.019687   16.328260
     43          6           0        9.800014   18.042114   16.158915
     44          6           0        9.996711   16.605943   16.669929
     45          7           0       10.733759   15.840525   15.667521
     46          6           0       11.582308   14.793577   15.918767
     47          7           0       12.103798   14.350064   16.996623
     48          7           0       12.009855   14.192414   14.666885
     49          8           0       13.795452   16.691765   15.857615
     50          1           0       14.041729   15.942967   16.441849
     51          1           0       13.447893   18.030745   14.125994
     52          1           0       13.016262   19.515093   16.061056
     53          1           0       10.692715   19.973866   15.877657
     54          1           0       11.128749   19.199468   17.397178
     55          1           0        8.949471   18.485575   16.690470
     56          1           0        9.510093   18.000825   15.101869
     57          1           0        9.019193   16.140258   16.855223
     58          1           0       10.544046   16.605648   17.613946
     59          1           0       10.209952   15.737485   14.801459
     60          1           0       11.717556   14.792563   17.830732
     61          1           0       12.530146   13.347863   14.907552
     62          1           0       12.669660   14.833030   14.219620
 ---------------------------------------------------------------------
 Rotational constants (GHZ):           0.1836695           0.1383446           0.1053343
 Standard basis: 6-31G(d) (6D, 7F)
   501 basis functions,   944 primitive gaussians,   501 cartesian basis functions
   112 alpha electrons      112 beta electrons
       nuclear repulsion energy      3285.1854208454 Hartrees.
 NAtoms=   62 NActive=   62 NUniq=   62 SFac= 1.00D+00 NAtFMM=   60 NAOKFM=T Big=T
 Integral buffers will be    131072 words long.
 Raffenetti 2 integral format.
 Two-electron integral symmetry is turned off.
 Nuclear repulsion after empirical dispersion term =     3285.0945014072 Hartrees.
 One-electron integrals computed using PRISM.
 NBasis=   501 RedAO= T EigKep=  1.71D-03  NBF=   501
 NBsUse=   501 1.00D-06 EigRej= -1.00D+00 NBFU=   501
 Initial guess from the checkpoint file:  "conf-796.chk"
 B after Tr=     0.000000    0.000000    0.000000
         Rot=    1.000000    0.000000    0.000000    0.000000 Ang=   0.00 deg.
 Requested convergence on RMS density matrix=1.00D-08 within 128 cycles.
 Requested convergence on MAX density matrix=1.00D-06.
 Requested convergence on             energy=1.00D-06.
 No special actions if energy rises.
 SCF Done:  E(RB3LYP) =  -1447.48754311     A.U. after    1 cycles
            NFock=  1  Conv=0.98D-08     -V/T= 2.0093

 **********************************************************************

            Population analysis using the SCF Density.

 **********************************************************************

 Alpha  occ. eigenvalues --  -19.31480 -19.31188 -19.28112 -19.26369 -19.25499
 Alpha  occ. eigenvalues --  -19.25306 -14.58305 -14.50401 -14.49913 -14.47087
 Alpha  occ. eigenvalues --  -14.45184 -14.39604 -10.45995 -10.43819 -10.43394
 Alpha  occ. eigenvalues --  -10.43152 -10.40188 -10.38964 -10.37785 -10.36870
 Alpha  occ. eigenvalues --  -10.34715 -10.33668 -10.32057 -10.31836 -10.30361
 Alpha  occ. eigenvalues --  -10.30052 -10.29546 -10.27963 -10.27064  -1.23371
 Alpha  occ. eigenvalues --   -1.22222  -1.18535  -1.17414  -1.14724  -1.13274
 Alpha  occ. eigenvalues --   -1.12870  -1.08489  -1.06832  -1.06575  -0.99955
 Alpha  occ. eigenvalues --   -0.95371  -0.94960  -0.93402  -0.91344  -0.88013
 Alpha  occ. eigenvalues --   -0.87399  -0.85292  -0.79907  -0.79514  -0.78864
 Alpha  occ. eigenvalues --   -0.77303  -0.74483  -0.74014  -0.73575  -0.72857
 Alpha  occ. eigenvalues --   -0.71686  -0.70653  -0.68745  -0.68600  -0.67826
 Alpha  occ. eigenvalues --   -0.66295  -0.65399  -0.64409  -0.63420  -0.62990
 Alpha  occ. eigenvalues --   -0.62843  -0.62193  -0.61119  -0.60402  -0.60036
 Alpha  occ. eigenvalues --   -0.59653  -0.59069  -0.58696  -0.57782  -0.57241
 Alpha  occ. eigenvalues --   -0.56607  -0.56042  -0.55348  -0.54690  -0.54548
 Alpha  occ. eigenvalues --   -0.54075  -0.53712  -0.53072  -0.52482  -0.51808
 Alpha  occ. eigenvalues --   -0.51405  -0.50786  -0.50662  -0.50303  -0.49942
 Alpha  occ. eigenvalues --   -0.49772  -0.49580  -0.48508  -0.47790  -0.47333
 Alpha  occ. eigenvalues --   -0.45896  -0.45310  -0.45187  -0.44628  -0.44266
 Alpha  occ. eigenvalues --   -0.43744  -0.43542  -0.43101  -0.41991  -0.40838
 Alpha  occ. eigenvalues --   -0.40362  -0.39871  -0.39666  -0.38792  -0.37704
 Alpha  occ. eigenvalues --   -0.36846  -0.33657
 Alpha virt. eigenvalues --   -0.13603  -0.12805  -0.12676  -0.10780  -0.08592
 Alpha virt. eigenvalues --   -0.07416  -0.05797  -0.04221  -0.03727  -0.02564
 Alpha virt. eigenvalues --   -0.01867  -0.00791  -0.00772  -0.00433   0.00097
 Alpha virt. eigenvalues --    0.00429   0.01379   0.01743   0.01897   0.02580
 Alpha virt. eigenvalues --    0.02960   0.03141   0.03950   0.04124   0.04518
 Alpha virt. eigenvalues --    0.04746   0.04988   0.05489   0.05785   0.06011
 Alpha virt. eigenvalues --    0.06567   0.06720   0.06945   0.07455   0.07756
 Alpha virt. eigenvalues --    0.08566   0.08821   0.09218   0.09530   0.09789
 Alpha virt. eigenvalues --    0.10134   0.10377   0.10721   0.11275   0.11596
 Alpha virt. eigenvalues --    0.12217   0.12733   0.13368   0.13981   0.14196
 Alpha virt. eigenvalues --    0.14749   0.15146   0.16147   0.16781   0.17778
 Alpha virt. eigenvalues --    0.19324   0.19619   0.20680   0.22326   0.23281
 Alpha virt. eigenvalues --    0.25109   0.26202   0.28578   0.28931   0.29578
 Alpha virt. eigenvalues --    0.34852   0.35405   0.36427   0.37341   0.37649
 Alpha virt. eigenvalues --    0.39177   0.39690   0.39947   0.40408   0.41305
 Alpha virt. eigenvalues --    0.41351   0.42619   0.43044   0.43563   0.43977
 Alpha virt. eigenvalues --    0.44465   0.45411   0.45779   0.46311   0.47393
 Alpha virt. eigenvalues --    0.47729   0.48564   0.49446   0.49716   0.50137
 Alpha virt. eigenvalues --    0.50736   0.51318   0.51675   0.52073   0.52654
 Alpha virt. eigenvalues --    0.53279   0.54036   0.54319   0.55037   0.55786
 Alpha virt. eigenvalues --    0.56511   0.57053   0.57733   0.58633   0.59657
 Alpha virt. eigenvalues --    0.59811   0.60763   0.61599   0.61909   0.62487
 Alpha virt. eigenvalues --    0.62852   0.63538   0.64145   0.64668   0.64901
 Alpha virt. eigenvalues --    0.66320   0.66864   0.67210   0.68023   0.68206
 Alpha virt. eigenvalues --    0.69003   0.69441   0.69863   0.70732   0.71720
 Alpha virt. eigenvalues --    0.72095   0.72369   0.72700   0.73266   0.74068
 Alpha virt. eigenvalues --    0.74379   0.75223   0.76029   0.76559   0.76718
 Alpha virt. eigenvalues --    0.77077   0.78006   0.78242   0.78860   0.79232
 Alpha virt. eigenvalues --    0.79648   0.79728   0.80450   0.80720   0.81518
 Alpha virt. eigenvalues --    0.81885   0.82337   0.82576   0.82856   0.82923
 Alpha virt. eigenvalues --    0.83392   0.83822   0.84571   0.85258   0.85902
 Alpha virt. eigenvalues --    0.85969   0.86941   0.87429   0.87753   0.88339
 Alpha virt. eigenvalues --    0.88990   0.90263   0.90589   0.91274   0.91966
 Alpha virt. eigenvalues --    0.93364   0.93650   0.93988   0.94206   0.95433
 Alpha virt. eigenvalues --    0.95959   0.97501   0.98349   0.99552   1.00323
 Alpha virt. eigenvalues --    1.00793   1.01064   1.02361   1.03406   1.03952
 Alpha virt. eigenvalues --    1.06131   1.06874   1.08653   1.09416   1.10752
 Alpha virt. eigenvalues --    1.11322   1.13808   1.14087   1.15034   1.16504
 Alpha virt. eigenvalues --    1.16909   1.19714   1.19975   1.21352   1.22798
 Alpha virt. eigenvalues --    1.23771   1.24583   1.25967   1.27616   1.27961
 Alpha virt. eigenvalues --    1.28330   1.29414   1.30175   1.30993   1.32141
 Alpha virt. eigenvalues --    1.33811   1.34713   1.35329   1.36145   1.36918
 Alpha virt. eigenvalues --    1.38465   1.40049   1.41342   1.43335   1.44688
 Alpha virt. eigenvalues --    1.45184   1.46509   1.47766   1.49287   1.50347
 Alpha virt. eigenvalues --    1.53170   1.53288   1.53722   1.54648   1.55295
 Alpha virt. eigenvalues --    1.56204   1.57515   1.58489   1.59471   1.60305
 Alpha virt. eigenvalues --    1.61526   1.62031   1.63039   1.63292   1.64221
 Alpha virt. eigenvalues --    1.64924   1.65317   1.66644   1.67174   1.67783
 Alpha virt. eigenvalues --    1.68756   1.69034   1.69751   1.70056   1.71074
 Alpha virt. eigenvalues --    1.71559   1.72586   1.72737   1.73677   1.74475
 Alpha virt. eigenvalues --    1.74668   1.75923   1.76333   1.76487   1.77665
 Alpha virt. eigenvalues --    1.78594   1.79336   1.79707   1.80292   1.81581
 Alpha virt. eigenvalues --    1.82504   1.82652   1.83451   1.85094   1.85331
 Alpha virt. eigenvalues --    1.86690   1.87788   1.88516   1.88885   1.90328
 Alpha virt. eigenvalues --    1.91417   1.91730   1.92084   1.92729   1.94076
 Alpha virt. eigenvalues --    1.95265   1.95427   1.96175   1.97137   1.98428
 Alpha virt. eigenvalues --    1.99784   2.00267   2.00621   2.01879   2.03425
 Alpha virt. eigenvalues --    2.04442   2.04848   2.05219   2.07151   2.08576
 Alpha virt. eigenvalues --    2.09249   2.11066   2.13314   2.13501   2.14304
 Alpha virt. eigenvalues --    2.15020   2.15870   2.16410   2.18633   2.18828
 Alpha virt. eigenvalues --    2.19504   2.20006   2.21759   2.23269   2.24726
 Alpha virt. eigenvalues --    2.25740   2.26102   2.27339   2.27951   2.28473
 Alpha virt. eigenvalues --    2.29237   2.30032   2.30363   2.31648   2.32935
 Alpha virt. eigenvalues --    2.34733   2.35859   2.36540   2.38679   2.40285
 Alpha virt. eigenvalues --    2.40929   2.41503   2.42435   2.44439   2.49310
 Alpha virt. eigenvalues --    2.50179   2.50523   2.51256   2.52026   2.53263
 Alpha virt. eigenvalues --    2.53457   2.54596   2.55184   2.56369   2.57142
 Alpha virt. eigenvalues --    2.57770   2.59076   2.61768   2.62284   2.63013
 Alpha virt. eigenvalues --    2.63617   2.64487   2.65597   2.67931   2.69461
 Alpha virt. eigenvalues --    2.73384   2.74331   2.76465   2.80589   2.84722
 Alpha virt. eigenvalues --    2.86311   2.87388   2.88645   2.90309   2.93763
 Alpha virt. eigenvalues --    2.94566   2.99727   3.00478   3.02022   3.08853
 Alpha virt. eigenvalues --    3.69906   3.76315   3.78125   3.83379   3.88765
 Alpha virt. eigenvalues --    3.89314   3.94720   3.99961   4.00524   4.03661
 Alpha virt. eigenvalues --    4.07354   4.09533   4.12929   4.16121   4.18747
 Alpha virt. eigenvalues --    4.19253   4.19430   4.22292   4.24506   4.25757
 Alpha virt. eigenvalues --    4.28892   4.34070   4.40335   4.40965   4.43322
 Alpha virt. eigenvalues --    4.49161   4.53376   4.57481   4.61942
          Condensed to atoms (all electrons):
 Mulliken charges:
               1
     1  N   -0.769832
     2  C   -0.122935
     3  C    0.627761
     4  O   -0.497614
     5  C   -0.298826
     6  C   -0.359687
     7  C    0.600582
     8  O   -0.534014
     9  O   -0.557851
    10  H    0.472626
    11  H    0.410650
    12  H    0.191590
    13  H    0.199164
    14  H    0.213101
    15  H    0.188321
    16  H    0.216891
    17  H    0.430146
    18  H    0.450598
    19  N   -0.590594
    20  C   -0.070042
    21  C    0.634964
    22  O   -0.565671
    23  C   -0.306121
    24  C   -0.079910
    25  C   -0.448459
    26  C   -0.455318
    27  H    0.363635
    28  H    0.169539
    29  H    0.152161
    30  H    0.169770
    31  H    0.139242
    32  H    0.156957
    33  H    0.152958
    34  H    0.170469
    35  H    0.145709
    36  H    0.138112
    37  H    0.177669
    38  N   -0.609556
    39  C   -0.050216
    40  C    0.642272
    41  O   -0.449589
    42  C   -0.275995
    43  C   -0.267831
    44  C   -0.162242
    45  N   -0.640488
    46  C    0.556559
    47  N   -0.624896
    48  N   -0.827439
    49  O   -0.612119
    50  H    0.441105
    51  H    0.358631
    52  H    0.209749
    53  H    0.178894
    54  H    0.187961
    55  H    0.166399
    56  H    0.110036
    57  H    0.168156
    58  H    0.192939
    59  H    0.376838
    60  H    0.310126
    61  H    0.365726
    62  H    0.339240
 Sum of Mulliken charges =   1.00000
 Mulliken charges with hydrogens summed into heavy atoms:
               1
     1  N    0.521563
     2  C    0.068655
     3  C    0.627761
     4  O   -0.497614
     5  C    0.113440
     6  C    0.045524
     7  C    0.600582
     8  O   -0.534014
     9  O   -0.085226
    19  N   -0.226959
    20  C    0.099497
    21  C    0.634964
    22  O   -0.565671
    23  C    0.015810
    24  C    0.059331
    25  C    0.031925
    26  C    0.006172
    38  N   -0.250925
    39  C    0.159533
    40  C    0.642272
    41  O   -0.449589
    42  C    0.090860
    43  C    0.008604
    44  C    0.198853
    45  N   -0.263650
    46  C    0.556559
    47  N   -0.314770
    48  N   -0.122473
    49  O   -0.171014
 Electronic spatial extent (au):  <R**2>=         504070.4599
 Charge=              1.0000 electrons
 Dipole moment (field-independent basis, Debye):
    X=             54.1037    Y=             83.9229    Z=             60.1541  Tot=            116.5709
 Quadrupole moment (field-independent basis, Debye-Ang):
   XX=            477.1788   YY=           1308.0999   ZZ=            591.1319
   XY=            956.8234   XZ=            674.3446   YZ=           1058.6184
 Traceless Quadrupole moment (field-independent basis, Debye-Ang):
   XX=           -314.9581   YY=            515.9631   ZZ=           -201.0050
   XY=            956.8234   XZ=            674.3446   YZ=           1058.6184
 Octapole moment (field-independent basis, Debye-Ang**2):
  XXX=           2223.6038  YYY=          17362.0685  ZZZ=           2891.4311  XYY=          15110.4116
  XXY=           8617.5387  XXZ=           5745.1446  XZZ=           6505.7125  YZZ=          10545.2079
  YYZ=          16485.5343  XYZ=          11982.7902
 Hexadecapole moment (field-independent basis, Debye-Ang**3):
 XXXX=         -34970.8633 YYYY=         156488.8753 ZZZZ=         -64374.4414 XXXY=          43190.7218
 XXXZ=          21239.2619 YYYX=         203996.9301 YYYZ=         216719.3840 ZZZX=          27987.5377
 ZZZY=          56031.7930 XXYY=         133542.8714 XXZZ=          45068.7608 YYZZ=         157272.9768
 XXYZ=         104431.3005 YYXZ=         188358.0042 ZZXY=         117049.4688
 N-N= 3.285094501407D+03 E-N=-9.917096578344D+03  KE= 1.434084591655D+03
 Unable to Open any file for archive entry.
 1\1\GINC-SKL-160\SP\RB3LYP\6-31G(d)\C17H33N6O6(1+)\KENGMITH\24-May-202
 2\0\\# B3LYP/6-31G* empiricaldispersion=gd3 guess=read geom=check nosy
 mm integral(ultrafinegrid)\\Candidate Structure: Conf:796 Charge calc 
 in gas phase\\1,1\N,0,8.7957978353,17.8780340407,12.1206756193\C,0,10.
 0037646152,17.4138790009,11.3411395859\C,0,10.4655907057,18.6771925852
 ,10.5962815299\O,0,9.6688593166,19.2016222886,9.8287850756\C,0,9.68375
 52423,16.2759076091,10.3627443682\C,0,8.9709695756,15.0392415332,10.98
 07069114\C,0,9.4921040094,14.7815437097,12.3771132484\O,0,9.0663839387
 ,15.4564126552,13.3283228046\O,0,10.4656630598,13.9163456159,12.467450
 5956\H,0,10.9136771881,13.9297450161,13.3991836993\H,0,8.0980173225,18
 .2730488284,11.4792765477\H,0,10.706387736,17.073400527,12.0996184323\
 H,0,10.6449331692,15.9660796851,9.9379187851\H,0,9.0849205341,16.67297
 19621,9.5376030726\H,0,7.8942110045,15.2182276017,11.0569013386\H,0,9.
 1287289595,14.1726207468,10.3357349131\H,0,8.4360613021,17.0763637627,
 12.6777886879\H,0,9.1340668935,18.6222134352,12.7625625623\N,0,11.7162
 132345,19.1401209723,10.8363593889\C,0,12.5841887859,18.7922940783,11.
 9524829088\C,0,11.8461910119,18.9395561595,13.3210038195\O,0,10.721193
 0096,19.4468530233,13.3987099834\C,0,13.8412136378,19.6896181578,11.90
 79804211\C,0,14.6890441358,19.5794855321,10.6230461158\C,0,15.88246853
 99,20.5412334862,10.7234991101\C,0,15.1593945365,18.1422183568,10.3616
 004719\H,0,11.9029428685,20.0206674456,10.3676704662\H,0,12.9017468952
 ,17.7461546427,11.85219394\H,0,14.4790940962,19.4360286619,12.76329567
 01\H,0,13.5236627646,20.7301977766,12.0616218475\H,0,14.0763078012,19.
 8961780573,9.76699438\H,0,15.5555945852,21.5731102561,10.8951362615\H,
 0,16.5468182463,20.2557023859,11.5488008646\H,0,16.4716298146,20.52459
 45129,9.8011038608\H,0,15.7300504169,17.7543680299,11.2158407077\H,0,1
 4.3238882047,17.4592444373,10.166842521\H,0,15.8143029549,18.106514518
 4,9.4853528353\N,0,12.546594083,18.4326741103,14.3548383922\C,0,12.378
 7626095,18.6547224757,15.8021457908\C,0,12.9879904686,17.4931399817,16
 .5944601304\O,0,12.8089660258,17.3428647457,17.7783209445\C,0,10.97448
 84353,19.0196873368,16.3282603772\C,0,9.8000136295,18.0421142484,16.15
 89145056\C,0,9.9967109989,16.6059431091,16.66992919\N,0,10.7337591755,
 15.8405252838,15.6675212119\C,0,11.582307904,14.7935771877,15.91876702
 58\N,0,12.1037982009,14.3500643741,16.9966231389\N,0,12.0098551867,14.
 1924138814,14.6668850259\O,0,13.795452259,16.691765222,15.8576149112\H
 ,0,14.041729124,15.9429667305,16.4418493534\H,0,13.4478934944,18.03074
 45943,14.1259943713\H,0,13.0162617645,19.5150930842,16.0610557574\H,0,
 10.6927151337,19.9738664865,15.8776573929\H,0,11.1287494448,19.1994683
 331,17.3971776538\H,0,8.9494706806,18.4855749797,16.6904702983\H,0,9.5
 100929894,18.000824515,15.1018686334\H,0,9.0191926216,16.1402578261,16
 .8552230921\H,0,10.5440460227,16.6056479346,17.6139457321\H,0,10.20995
 1612,15.7374846232,14.8014593589\H,0,11.7175558609,14.7925630454,17.83
 07319566\H,0,12.5301459619,13.3478633534,14.9075518602\H,0,12.66966031
 47,14.8330296927,14.219620293\\Version=ES64L-G16RevC.01\HF=-1447.48754
 31\RMSD=9.842e-09\Dipole=-0.5712297,0.167786,-1.6729542\Quadrupole=-23
 4.1636327,383.6058973,-149.4422646,711.3747512,501.3586852,787.0568011
 \PG=C01 [X(C17H33N6O6)]\\@
 The archive entry for this job was punched.


 I WISH TO HAVE NO CONNECTION WITH ANY SHIP THAT DOES NOT SAIL FAST,
 FOR I INTEND TO GO IN HARM'S WAY.
     -- JOHN PAUL JONES, USN 1747-1792
 Job cpu time:       0 days  0 hours  1 minutes 33.7 seconds.
 Elapsed time:       0 days  0 hours  0 minutes 24.8 seconds.
 File lengths (MBytes):  RWF=   4256 Int=      0 D2E=      0 Chk=     32 Scr=     16
 Normal termination of Gaussian 16 at Tue May 24 03:34:18 2022.
