 Entering Gaussian System, Link 0=/opt/software/Gaussian/g16-AVX2-C.01/g16/g16
 Input=charge-conf-234.com
 Output=charge-conf-234.log
 Initial command:
 /opt/software/Gaussian/g16-AVX2-C.01/g16/l1.exe "/mnt/gs18/scratch/users/kengmith/Gau-6272.inp" -scrdir="/mnt/gs18/scratch/users/kengmith/"
 Entering Link 1 = /opt/software/Gaussian/g16-AVX2-C.01/g16/l1.exe PID=      6282.
  
 Copyright (c) 1988-2019, Gaussian, Inc.  All Rights Reserved.
  
 This is part of the Gaussian(R) 16 program.  It is based on
 the Gaussian(R) 09 system (copyright 2009, Gaussian, Inc.),
 the Gaussian(R) 03 system (copyright 2003, Gaussian, Inc.),
 the Gaussian(R) 98 system (copyright 1998, Gaussian, Inc.),
 the Gaussian(R) 94 system (copyright 1995, Gaussian, Inc.),
 the Gaussian 92(TM) system (copyright 1992, Gaussian, Inc.),
 the Gaussian 90(TM) system (copyright 1990, Gaussian, Inc.),
 the Gaussian 88(TM) system (copyright 1988, Gaussian, Inc.),
 the Gaussian 86(TM) system (copyright 1986, Carnegie Mellon
 University), and the Gaussian 82(TM) system (copyright 1983,
 Carnegie Mellon University). Gaussian is a federally registered
 trademark of Gaussian, Inc.
  
 This software contains proprietary and confidential information,
 including trade secrets, belonging to Gaussian, Inc.
  
 This software is provided under written license and may be
 used, copied, transmitted, or stored only in accord with that
 written license.
  
 The following legend is applicable only to US Government
 contracts under FAR:
  
                    RESTRICTED RIGHTS LEGEND
  
 Use, reproduction and disclosure by the US Government is
 subject to restrictions as set forth in subparagraphs (a)
 and (c) of the Commercial Computer Software - Restricted
 Rights clause in FAR 52.227-19.
  
 Gaussian, Inc.
 340 Quinnipiac St., Bldg. 40, Wallingford CT 06492
  
  
 ---------------------------------------------------------------
 Warning -- This program may not be used in any manner that
 competes with the business of Gaussian, Inc. or will provide
 assistance to any competitor of Gaussian, Inc.  The licensee
 of this program is prohibited from giving any competitor of
 Gaussian, Inc. access to this program.  By using this program,
 the user acknowledges that Gaussian, Inc. is engaged in the
 business of creating and licensing software in the field of
 computational chemistry and represents and warrants to the
 licensee that it is not a competitor of Gaussian, Inc. and that
 it will not use this program in any manner prohibited above.
 ---------------------------------------------------------------
  

 Cite this work as:
 Gaussian 16, Revision C.01,
 M. J. Frisch, G. W. Trucks, H. B. Schlegel, G. E. Scuseria, 
 M. A. Robb, J. R. Cheeseman, G. Scalmani, V. Barone, 
 G. A. Petersson, H. Nakatsuji, X. Li, M. Caricato, A. V. Marenich, 
 J. Bloino, B. G. Janesko, R. Gomperts, B. Mennucci, H. P. Hratchian, 
 J. V. Ortiz, A. F. Izmaylov, J. L. Sonnenberg, D. Williams-Young, 
 F. Ding, F. Lipparini, F. Egidi, J. Goings, B. Peng, A. Petrone, 
 T. Henderson, D. Ranasinghe, V. G. Zakrzewski, J. Gao, N. Rega, 
 G. Zheng, W. Liang, M. Hada, M. Ehara, K. Toyota, R. Fukuda, 
 J. Hasegawa, M. Ishida, T. Nakajima, Y. Honda, O. Kitao, H. Nakai, 
 T. Vreven, K. Throssell, J. A. Montgomery, Jr., J. E. Peralta, 
 F. Ogliaro, M. J. Bearpark, J. J. Heyd, E. N. Brothers, K. N. Kudin, 
 V. N. Staroverov, T. A. Keith, R. Kobayashi, J. Normand, 
 K. Raghavachari, A. P. Rendell, J. C. Burant, S. S. Iyengar, 
 J. Tomasi, M. Cossi, J. M. Millam, M. Klene, C. Adamo, R. Cammi, 
 J. W. Ochterski, R. L. Martin, K. Morokuma, O. Farkas, 
 J. B. Foresman, and D. J. Fox, Gaussian, Inc., Wallingford CT, 2019.
 
 ******************************************
 Gaussian 16:  ES64L-G16RevC.01  3-Jul-2019
                24-May-2022 
 ******************************************
 %mem=8gb
 %nproc=4
 Will use up to    4 processors via shared memory.
 %chk=conf-234.chk
 ----------------------------------------------------------------------
 # B3LYP/6-31G* empiricaldispersion=gd3 guess=read geom=check nosymm in
 tegral(ultrafinegrid)
 ----------------------------------------------------------------------
 1/29=2,38=1,172=1/1;
 2/12=2,15=1,40=1/2;
 3/5=1,6=6,7=1,11=2,14=-4,25=1,30=1,74=-5,75=-5,116=-2,124=31/1,2,3;
 4/5=1/1;
 5/5=2,38=6/2;
 6/7=2,8=2,9=2,10=2,28=1/1;
 99/5=1,9=1/99;
 ------------------------------------------------------
 Candidate Structure: Conf:234 Charge calc in gas phase
 ------------------------------------------------------
 Structure from the checkpoint file:  "conf-234.chk"
 Charge =  1 Multiplicity = 1
 Redundant internal coordinates found in file.  (old form).
 N,0,14.4331036704,18.6587288775,13.2106412127
 C,0,14.0450103097,17.2291293724,13.4759821193
 C,0,14.2150195365,17.0890828316,14.9949584067
 O,0,15.2906742844,17.4168362078,15.4839823432
 C,0,14.9549390783,16.2463645547,12.7228063921
 C,0,14.5649241685,16.0205295398,11.2561717786
 C,0,14.7990810028,17.1984760254,10.3397956198
 O,0,15.3020839463,18.2665864417,10.645148346
 O,0,14.4133809527,16.9277924705,9.0804186649
 H,0,14.6022537167,17.7196177511,8.5392270558
 H,0,14.6125985232,18.8034548388,12.1980241674
 H,0,13.0221007164,17.1425016792,13.1205442346
 H,0,14.8811090451,15.2814827227,13.2363381342
 H,0,15.9998191837,16.5611199748,12.8144581105
 H,0,15.1373058807,15.1796121252,10.8452148697
 H,0,13.5087690682,15.7422348519,11.1729168021
 H,0,13.6716620457,19.2487597421,13.5740181212
 H,0,15.289730664,18.8540606168,13.7467765911
 N,0,13.1873041706,16.5685911385,15.7156884588
 C,0,11.7770174611,16.585999928,15.341035831
 C,0,11.2909282759,18.058647432,15.1928014946
 O,0,12.0553632537,18.9325843457,14.7568505054
 C,0,10.9686070342,15.6992701623,16.3037227884
 C,0,11.4932240957,14.2544289232,16.4467917697
 C,0,10.5856703093,13.4768899321,17.4108680973
 C,0,11.5981453817,13.5402662731,15.0921020487
 H,0,13.3841089682,16.5496074596,16.712265244
 H,0,11.6800262786,16.1583185409,14.3367399678
 H,0,9.9346662598,15.6406765727,15.9386644569
 H,0,10.929494272,16.1779964085,17.2918099276
 H,0,12.4990164376,14.2951649294,16.8864820426
 H,0,10.514025968,13.9735188474,18.3853441878
 H,0,9.5704635047,13.3835970538,17.0051351431
 H,0,10.9722418346,12.4661817656,17.5772153085
 H,0,12.3402680985,14.0091394892,14.4344945756
 H,0,11.9023044422,12.497853166,15.2308671373
 H,0,10.6313203862,13.5367360579,14.5719989487
 N,0,10.0047244854,18.292506333,15.491772444
 C,0,9.3021138274,19.5533303059,15.2911182307
 C,0,7.8331954203,19.2664322377,15.6513211269
 O,0,7.4200189471,18.147522205,15.8443118487
 C,0,9.4285147155,20.1133908241,13.8520597068
 C,0,9.150227986,19.0809037077,12.7553030489
 C,0,9.4584241677,19.6431232271,11.3502251153
 N,0,9.8509886627,18.6389070675,10.373094349
 C,0,11.079649855,18.0088592007,10.4332665167
 N,0,12.0456516483,18.2693048155,11.2635147659
 N,0,11.2324941049,17.0049175826,9.4913273094
 O,0,7.0139443295,20.3284428788,15.7085567071
 H,0,7.4968036686,21.1645147712,15.5934959992
 H,0,9.3998932395,17.5410893053,15.8088914795
 H,0,9.6969753485,20.3036119916,15.9905046192
 H,0,10.4465172537,20.4961615097,13.7427948285
 H,0,8.7544179476,20.9736010056,13.7485699459
 H,0,9.7868515414,18.2060119808,12.9195791479
 H,0,8.1144816068,18.7236272772,12.8057234023
 H,0,10.2706710116,20.378662324,11.4083933524
 H,0,8.5954994612,20.1799776357,10.9456293848
 H,0,9.1013597577,18.1078881606,9.948207446
 H,0,11.7432512514,18.9453917864,11.9626736426
 H,0,12.1965677959,16.7295092996,9.3452898072
 H,0,10.7410279404,17.1447894266,8.6164415118
 Recover connectivity data from disk.
                           ----------------------------
                           !    Current Parameters    !
                           ! (Angstroms and Degrees)  !
 --------------------------                            --------------------------
 ! Name  Definition              Value                                          !
 --------------------------------------------------------------------------------
 ! R1    R(1,2)                  1.5049                                         !
 ! R2    R(1,11)                 1.0385                                         !
 ! R3    R(1,17)                 1.0295                                         !
 ! R4    R(1,18)                 1.0293                                         !
 ! R5    R(2,3)                  1.5349                                         !
 ! R6    R(2,5)                  1.5366                                         !
 ! R7    R(2,12)                 1.0864                                         !
 ! R8    R(3,4)                  1.2262                                         !
 ! R9    R(3,19)                 1.3589                                         !
 ! R10   R(5,6)                  1.5343                                         !
 ! R11   R(5,13)                 1.0955                                         !
 ! R12   R(5,14)                 1.0951                                         !
 ! R13   R(6,7)                  1.5107                                         !
 ! R14   R(6,15)                 1.0971                                         !
 ! R15   R(6,16)                 1.0954                                         !
 ! R16   R(7,8)                  1.2195                                         !
 ! R17   R(7,9)                  1.3446                                         !
 ! R18   R(9,10)                 0.9775                                         !
 ! R19   R(19,20)                1.4593                                         !
 ! R20   R(19,27)                1.016                                          !
 ! R21   R(20,21)                1.5579                                         !
 ! R22   R(20,23)                1.5384                                         !
 ! R23   R(20,28)                1.0959                                         !
 ! R24   R(21,22)                1.2402                                         !
 ! R25   R(21,38)                1.341                                          !
 ! R26   R(23,24)                1.5438                                         !
 ! R27   R(23,29)                1.0981                                         !
 ! R28   R(23,30)                1.0986                                         !
 ! R29   R(24,25)                1.5355                                         !
 ! R30   R(24,26)                1.535                                          !
 ! R31   R(24,31)                1.0985                                         !
 ! R32   R(25,32)                1.0961                                         !
 ! R33   R(25,33)                1.0973                                         !
 ! R34   R(25,34)                1.0948                                         !
 ! R35   R(26,35)                1.0968                                         !
 ! R36   R(26,36)                1.0947                                         !
 ! R37   R(26,37)                1.0978                                         !
 ! R38   R(38,39)                1.4573                                         !
 ! R39   R(38,51)                1.0154                                         !
 ! R40   R(39,40)                1.5394                                         !
 ! R41   R(39,42)                1.5494                                         !
 ! R42   R(39,52)                1.0991                                         !
 ! R43   R(40,41)                1.2083                                         !
 ! R44   R(40,49)                1.3425                                         !
 ! R45   R(42,43)                1.5318                                         !
 ! R46   R(42,53)                1.0931                                         !
 ! R47   R(42,54)                1.0978                                         !
 ! R48   R(43,44)                1.5444                                         !
 ! R49   R(43,55)                1.0944                                         !
 ! R50   R(43,56)                1.0968                                         !
 ! R51   R(44,45)                1.4551                                         !
 ! R52   R(44,57)                1.0973                                         !
 ! R53   R(44,58)                1.0939                                         !
 ! R54   R(45,46)                1.3821                                         !
 ! R55   R(45,59)                1.0122                                         !
 ! R56   R(46,47)                1.3001                                         !
 ! R57   R(46,48)                1.3851                                         !
 ! R58   R(47,60)                1.0185                                         !
 ! R59   R(48,61)                1.0132                                         !
 ! R60   R(48,62)                1.0132                                         !
 ! R61   R(49,50)                0.9723                                         !
 ! A1    A(2,1,11)             110.4181                                         !
 ! A2    A(2,1,17)             106.9452                                         !
 ! A3    A(2,1,18)             107.6418                                         !
 ! A4    A(11,1,17)            113.0853                                         !
 ! A5    A(11,1,18)            109.7305                                         !
 ! A6    A(17,1,18)            108.8399                                         !
 ! A7    A(1,2,3)              103.4504                                         !
 ! A8    A(1,2,5)              111.6191                                         !
 ! A9    A(1,2,12)             105.1225                                         !
 ! A10   A(3,2,5)              111.1703                                         !
 ! A11   A(3,2,12)             114.886                                          !
 ! A12   A(5,2,12)             110.2561                                         !
 ! A13   A(2,3,4)              117.8693                                         !
 ! A14   A(2,3,19)             118.4292                                         !
 ! A15   A(4,3,19)             123.6619                                         !
 ! A16   A(2,5,6)              114.3401                                         !
 ! A17   A(2,5,13)             107.0758                                         !
 ! A18   A(2,5,14)             109.8872                                         !
 ! A19   A(6,5,13)             107.5363                                         !
 ! A20   A(6,5,14)             111.3979                                         !
 ! A21   A(13,5,14)            106.1539                                         !
 ! A22   A(5,6,7)              115.1932                                         !
 ! A23   A(5,6,15)             109.7708                                         !
 ! A24   A(5,6,16)             110.8021                                         !
 ! A25   A(7,6,15)             106.8326                                         !
 ! A26   A(7,6,16)             107.5449                                         !
 ! A27   A(15,6,16)            106.2502                                         !
 ! A28   A(6,7,8)              126.5133                                         !
 ! A29   A(6,7,9)              111.5127                                         !
 ! A30   A(8,7,9)              121.9483                                         !
 ! A31   A(7,9,10)             107.4602                                         !
 ! A32   A(3,19,20)            126.1679                                         !
 ! A33   A(3,19,27)            112.3896                                         !
 ! A34   A(20,19,27)           116.0558                                         !
 ! A35   A(19,20,21)           109.7092                                         !
 ! A36   A(19,20,23)           109.8958                                         !
 ! A37   A(19,20,28)           108.4307                                         !
 ! A38   A(21,20,23)           116.1329                                         !
 ! A39   A(21,20,28)           104.7204                                         !
 ! A40   A(23,20,28)           107.5795                                         !
 ! A41   A(20,21,22)           120.4799                                         !
 ! A42   A(20,21,38)           116.2888                                         !
 ! A43   A(22,21,38)           123.1369                                         !
 ! A44   A(20,23,24)           114.7641                                         !
 ! A45   A(20,23,29)           108.5132                                         !
 ! A46   A(20,23,30)           109.2902                                         !
 ! A47   A(24,23,29)           107.5088                                         !
 ! A48   A(24,23,30)           109.6677                                         !
 ! A49   A(29,23,30)           106.782                                          !
 ! A50   A(23,24,25)           109.3454                                         !
 ! A51   A(23,24,26)           112.1402                                         !
 ! A52   A(23,24,31)           108.2731                                         !
 ! A53   A(25,24,26)           111.034                                          !
 ! A54   A(25,24,31)           107.9781                                         !
 ! A55   A(26,24,31)           107.9344                                         !
 ! A56   A(24,25,32)           111.5558                                         !
 ! A57   A(24,25,33)           110.962                                          !
 ! A58   A(24,25,34)           110.7432                                         !
 ! A59   A(32,25,33)           107.8663                                         !
 ! A60   A(32,25,34)           107.8353                                         !
 ! A61   A(33,25,34)           107.7208                                         !
 ! A62   A(24,26,35)           112.1163                                         !
 ! A63   A(24,26,36)           110.4964                                         !
 ! A64   A(24,26,37)           111.0633                                         !
 ! A65   A(35,26,36)           107.1615                                         !
 ! A66   A(35,26,37)           108.2519                                         !
 ! A67   A(36,26,37)           107.5582                                         !
 ! A68   A(21,38,39)           125.6344                                         !
 ! A69   A(21,38,51)           120.7893                                         !
 ! A70   A(39,38,51)           113.3334                                         !
 ! A71   A(38,39,40)           105.4622                                         !
 ! A72   A(38,39,42)           113.6599                                         !
 ! A73   A(38,39,52)           109.256                                          !
 ! A74   A(40,39,42)           111.2565                                         !
 ! A75   A(40,39,52)           108.7321                                         !
 ! A76   A(42,39,52)           108.3586                                         !
 ! A77   A(39,40,41)           122.4292                                         !
 ! A78   A(39,40,49)           116.4133                                         !
 ! A79   A(41,40,49)           121.1363                                         !
 ! A80   A(39,42,43)           113.9885                                         !
 ! A81   A(39,42,53)           107.1821                                         !
 ! A82   A(39,42,54)           108.7065                                         !
 ! A83   A(43,42,53)           109.4914                                         !
 ! A84   A(43,42,54)           110.4337                                         !
 ! A85   A(53,42,54)           106.7425                                         !
 ! A86   A(42,43,44)           111.7012                                         !
 ! A87   A(42,43,55)           109.0074                                         !
 ! A88   A(42,43,56)           110.9906                                         !
 ! A89   A(44,43,55)           108.1491                                         !
 ! A90   A(44,43,56)           110.4168                                         !
 ! A91   A(55,43,56)           106.3809                                         !
 ! A92   A(43,44,45)           114.4268                                         !
 ! A93   A(43,44,57)           110.0895                                         !
 ! A94   A(43,44,58)           110.9612                                         !
 ! A95   A(45,44,57)           107.3672                                         !
 ! A96   A(45,44,58)           107.6471                                         !
 ! A97   A(57,44,58)           105.9358                                         !
 ! A98   A(44,45,46)           121.6819                                         !
 ! A99   A(44,45,59)           116.3694                                         !
 ! A100  A(46,45,59)           115.9456                                         !
 ! A101  A(45,46,47)           126.6558                                         !
 ! A102  A(45,46,48)           113.5099                                         !
 ! A103  A(47,46,48)           119.8337                                         !
 ! A104  A(46,47,60)           110.5324                                         !
 ! A105  A(46,48,61)           113.58                                           !
 ! A106  A(46,48,62)           115.6987                                         !
 ! A107  A(61,48,62)           112.0003                                         !
 ! A108  A(40,49,50)           111.8466                                         !
 ! D1    D(11,1,2,3)           164.2796                                         !
 ! D2    D(11,1,2,5)            44.6621                                         !
 ! D3    D(11,1,2,12)          -74.8675                                         !
 ! D4    D(17,1,2,3)           -72.2987                                         !
 ! D5    D(17,1,2,5)           168.0838                                         !
 ! D6    D(17,1,2,12)           48.5542                                         !
 ! D7    D(18,1,2,3)            44.518                                          !
 ! D8    D(18,1,2,5)           -75.0995                                         !
 ! D9    D(18,1,2,12)          165.3709                                         !
 ! D10   D(1,2,3,4)            -52.906                                          !
 ! D11   D(1,2,3,19)           129.2959                                         !
 ! D12   D(5,2,3,4)             67.0188                                         !
 ! D13   D(5,2,3,19)          -110.7793                                         !
 ! D14   D(12,2,3,4)          -166.9001                                         !
 ! D15   D(12,2,3,19)           15.3018                                         !
 ! D16   D(1,2,5,6)            -82.1959                                         !
 ! D17   D(1,2,5,13)           158.7975                                         !
 ! D18   D(1,2,5,14)            43.9234                                         !
 ! D19   D(3,2,5,6)            162.8561                                         !
 ! D20   D(3,2,5,13)            43.8495                                         !
 ! D21   D(3,2,5,14)           -71.0246                                         !
 ! D22   D(12,2,5,6)            34.2517                                         !
 ! D23   D(12,2,5,13)          -84.7549                                         !
 ! D24   D(12,2,5,14)          160.371                                          !
 ! D25   D(2,3,19,20)          -25.0491                                         !
 ! D26   D(2,3,19,27)         -177.8737                                         !
 ! D27   D(4,3,19,20)          157.2897                                         !
 ! D28   D(4,3,19,27)            4.465                                          !
 ! D29   D(2,5,6,7)             69.774                                          !
 ! D30   D(2,5,6,15)          -169.6185                                         !
 ! D31   D(2,5,6,16)           -52.5759                                         !
 ! D32   D(13,5,6,7)          -171.4796                                         !
 ! D33   D(13,5,6,15)          -50.8721                                         !
 ! D34   D(13,5,6,16)           66.1705                                         !
 ! D35   D(14,5,6,7)           -55.5539                                         !
 ! D36   D(14,5,6,15)           65.0535                                         !
 ! D37   D(14,5,6,16)         -177.9039                                         !
 ! D38   D(5,6,7,8)              2.7995                                         !
 ! D39   D(5,6,7,9)           -179.0286                                         !
 ! D40   D(15,6,7,8)          -119.4001                                         !
 ! D41   D(15,6,7,9)            58.7718                                         !
 ! D42   D(16,6,7,8)           126.8795                                         !
 ! D43   D(16,6,7,9)           -54.9486                                         !
 ! D44   D(6,7,9,10)          -179.1791                                         !
 ! D45   D(8,7,9,10)            -0.9106                                         !
 ! D46   D(3,19,20,21)         -60.383                                          !
 ! D47   D(3,19,20,23)         170.7723                                         !
 ! D48   D(3,19,20,28)          53.4385                                         !
 ! D49   D(27,19,20,21)         91.5788                                         !
 ! D50   D(27,19,20,23)        -37.2659                                         !
 ! D51   D(27,19,20,28)       -154.5997                                         !
 ! D52   D(19,20,21,22)         34.5693                                         !
 ! D53   D(19,20,21,38)       -148.8525                                         !
 ! D54   D(23,20,21,22)        159.9074                                         !
 ! D55   D(23,20,21,38)        -23.5144                                         !
 ! D56   D(28,20,21,22)        -81.6205                                         !
 ! D57   D(28,20,21,38)         94.9577                                         !
 ! D58   D(19,20,23,24)        -53.6639                                         !
 ! D59   D(19,20,23,29)       -173.9204                                         !
 ! D60   D(19,20,23,30)         69.9886                                         !
 ! D61   D(21,20,23,24)       -178.9072                                         !
 ! D62   D(21,20,23,29)         60.8364                                         !
 ! D63   D(21,20,23,30)        -55.2546                                         !
 ! D64   D(28,20,23,24)         64.1991                                         !
 ! D65   D(28,20,23,29)        -56.0573                                         !
 ! D66   D(28,20,23,30)       -172.1484                                         !
 ! D67   D(20,21,38,39)       -173.0787                                         !
 ! D68   D(20,21,38,51)          0.8728                                         !
 ! D69   D(22,21,38,39)          3.3995                                         !
 ! D70   D(22,21,38,51)        177.351                                          !
 ! D71   D(20,23,24,25)       -178.9862                                         !
 ! D72   D(20,23,24,26)        -55.3767                                         !
 ! D73   D(20,23,24,31)         63.5994                                         !
 ! D74   D(29,23,24,25)        -58.1761                                         !
 ! D75   D(29,23,24,26)         65.4334                                         !
 ! D76   D(29,23,24,31)       -175.5905                                         !
 ! D77   D(30,23,24,25)         57.5627                                         !
 ! D78   D(30,23,24,26)       -178.8279                                         !
 ! D79   D(30,23,24,31)        -59.8517                                         !
 ! D80   D(23,24,25,32)        -56.4032                                         !
 ! D81   D(23,24,25,33)         63.9007                                         !
 ! D82   D(23,24,25,34)       -176.5193                                         !
 ! D83   D(26,24,25,32)        179.3368                                         !
 ! D84   D(26,24,25,33)        -60.3593                                         !
 ! D85   D(26,24,25,34)         59.2207                                         !
 ! D86   D(31,24,25,32)         61.1967                                         !
 ! D87   D(31,24,25,33)       -178.4995                                         !
 ! D88   D(31,24,25,34)        -58.9194                                         !
 ! D89   D(23,24,26,35)         64.6345                                         !
 ! D90   D(23,24,26,36)       -175.8973                                         !
 ! D91   D(23,24,26,37)        -56.6165                                         !
 ! D92   D(25,24,26,35)       -172.7074                                         !
 ! D93   D(25,24,26,36)        -53.2392                                         !
 ! D94   D(25,24,26,37)         66.0416                                         !
 ! D95   D(31,24,26,35)        -54.5407                                         !
 ! D96   D(31,24,26,36)         64.9274                                         !
 ! D97   D(31,24,26,37)       -175.7918                                         !
 ! D98   D(21,38,39,40)        174.3502                                         !
 ! D99   D(21,38,39,42)         52.2181                                         !
 ! D100  D(21,38,39,52)        -68.9332                                         !
 ! D101  D(51,38,39,40)          0.0077                                         !
 ! D102  D(51,38,39,42)       -122.1244                                         !
 ! D103  D(51,38,39,52)        116.7243                                         !
 ! D104  D(38,39,40,41)         -9.9366                                         !
 ! D105  D(38,39,40,49)        171.7187                                         !
 ! D106  D(42,39,40,41)        113.7312                                         !
 ! D107  D(42,39,40,49)        -64.6135                                         !
 ! D108  D(52,39,40,41)       -127.0088                                         !
 ! D109  D(52,39,40,49)         54.6465                                         !
 ! D110  D(38,39,42,43)         47.9811                                         !
 ! D111  D(38,39,42,53)        -73.3421                                         !
 ! D112  D(38,39,42,54)        171.631                                          !
 ! D113  D(40,39,42,43)        -70.8844                                         !
 ! D114  D(40,39,42,53)        167.7925                                         !
 ! D115  D(40,39,42,54)         52.7655                                         !
 ! D116  D(52,39,42,43)        169.633                                          !
 ! D117  D(52,39,42,53)         48.3099                                         !
 ! D118  D(52,39,42,54)        -66.7171                                         !
 ! D119  D(39,40,49,50)         -5.5836                                         !
 ! D120  D(41,40,49,50)        176.0487                                         !
 ! D121  D(39,42,43,44)       -172.9896                                         !
 ! D122  D(39,42,43,55)        -53.5387                                         !
 ! D123  D(39,42,43,56)         63.311                                          !
 ! D124  D(53,42,43,44)        -52.9568                                         !
 ! D125  D(53,42,43,55)         66.4941                                         !
 ! D126  D(53,42,43,56)       -176.6562                                         !
 ! D127  D(54,42,43,44)         64.2996                                         !
 ! D128  D(54,42,43,55)       -176.2496                                         !
 ! D129  D(54,42,43,56)        -59.3999                                         !
 ! D130  D(42,43,44,45)        151.5882                                         !
 ! D131  D(42,43,44,57)         30.578                                          !
 ! D132  D(42,43,44,58)        -86.3696                                         !
 ! D133  D(55,43,44,45)         31.6317                                         !
 ! D134  D(55,43,44,57)        -89.3785                                         !
 ! D135  D(55,43,44,58)        153.6739                                         !
 ! D136  D(56,43,44,45)        -84.3891                                         !
 ! D137  D(56,43,44,57)        154.6007                                         !
 ! D138  D(56,43,44,58)         37.6531                                         !
 ! D139  D(43,44,45,46)        -71.5394                                         !
 ! D140  D(43,44,45,59)         80.0791                                         !
 ! D141  D(57,44,45,46)         50.9621                                         !
 ! D142  D(57,44,45,59)       -157.4193                                         !
 ! D143  D(58,44,45,46)        164.6262                                         !
 ! D144  D(58,44,45,59)        -43.7553                                         !
 ! D145  D(44,45,46,47)         -4.9129                                         !
 ! D146  D(44,45,46,48)        174.8148                                         !
 ! D147  D(59,45,46,47)       -156.6436                                         !
 ! D148  D(59,45,46,48)         23.0841                                         !
 ! D149  D(45,46,47,60)          6.7584                                         !
 ! D150  D(48,46,47,60)       -172.9537                                         !
 ! D151  D(45,46,48,61)        163.052                                          !
 ! D152  D(45,46,48,62)         31.4727                                         !
 ! D153  D(47,46,48,61)        -17.1998                                         !
 ! D154  D(47,46,48,62)       -148.7791                                         !
 --------------------------------------------------------------------------------
 Symmetry turned off by external request.
 Stoichiometry    C17H33N6O6(1+)
 Framework group  C1[X(C17H33N6O6)]
 Deg. of freedom   180
 Full point group                 C1      NOp   1
                          Input orientation:                          
 ---------------------------------------------------------------------
 Center     Atomic      Atomic             Coordinates (Angstroms)
 Number     Number       Type             X           Y           Z
 ---------------------------------------------------------------------
      1          7           0       14.433104   18.658729   13.210641
      2          6           0       14.045010   17.229129   13.475982
      3          6           0       14.215020   17.089083   14.994958
      4          8           0       15.290674   17.416836   15.483982
      5          6           0       14.954939   16.246365   12.722806
      6          6           0       14.564924   16.020530   11.256172
      7          6           0       14.799081   17.198476   10.339796
      8          8           0       15.302084   18.266586   10.645148
      9          8           0       14.413381   16.927792    9.080419
     10          1           0       14.602254   17.719618    8.539227
     11          1           0       14.612599   18.803455   12.198024
     12          1           0       13.022101   17.142502   13.120544
     13          1           0       14.881109   15.281483   13.236338
     14          1           0       15.999819   16.561120   12.814458
     15          1           0       15.137306   15.179612   10.845215
     16          1           0       13.508769   15.742235   11.172917
     17          1           0       13.671662   19.248760   13.574018
     18          1           0       15.289731   18.854061   13.746777
     19          7           0       13.187304   16.568591   15.715688
     20          6           0       11.777017   16.586000   15.341036
     21          6           0       11.290928   18.058647   15.192801
     22          8           0       12.055363   18.932584   14.756851
     23          6           0       10.968607   15.699270   16.303723
     24          6           0       11.493224   14.254429   16.446792
     25          6           0       10.585670   13.476890   17.410868
     26          6           0       11.598145   13.540266   15.092102
     27          1           0       13.384109   16.549607   16.712265
     28          1           0       11.680026   16.158319   14.336740
     29          1           0        9.934666   15.640677   15.938664
     30          1           0       10.929494   16.177996   17.291810
     31          1           0       12.499016   14.295165   16.886482
     32          1           0       10.514026   13.973519   18.385344
     33          1           0        9.570464   13.383597   17.005135
     34          1           0       10.972242   12.466182   17.577215
     35          1           0       12.340268   14.009139   14.434495
     36          1           0       11.902304   12.497853   15.230867
     37          1           0       10.631320   13.536736   14.571999
     38          7           0       10.004724   18.292506   15.491772
     39          6           0        9.302114   19.553330   15.291118
     40          6           0        7.833195   19.266432   15.651321
     41          8           0        7.420019   18.147522   15.844312
     42          6           0        9.428515   20.113391   13.852060
     43          6           0        9.150228   19.080904   12.755303
     44          6           0        9.458424   19.643123   11.350225
     45          7           0        9.850989   18.638907   10.373094
     46          6           0       11.079650   18.008859   10.433267
     47          7           0       12.045652   18.269305   11.263515
     48          7           0       11.232494   17.004918    9.491327
     49          8           0        7.013944   20.328443   15.708557
     50          1           0        7.496804   21.164515   15.593496
     51          1           0        9.399893   17.541089   15.808891
     52          1           0        9.696975   20.303612   15.990505
     53          1           0       10.446517   20.496162   13.742795
     54          1           0        8.754418   20.973601   13.748570
     55          1           0        9.786852   18.206012   12.919579
     56          1           0        8.114482   18.723627   12.805723
     57          1           0       10.270671   20.378662   11.408393
     58          1           0        8.595499   20.179978   10.945629
     59          1           0        9.101360   18.107888    9.948207
     60          1           0       11.743251   18.945392   11.962674
     61          1           0       12.196568   16.729509    9.345290
     62          1           0       10.741028   17.144789    8.616442
 ---------------------------------------------------------------------
 Rotational constants (GHZ):           0.1719901           0.1231017           0.0904588
 Standard basis: 6-31G(d) (6D, 7F)
   501 basis functions,   944 primitive gaussians,   501 cartesian basis functions
   112 alpha electrons      112 beta electrons
       nuclear repulsion energy      3179.7677469521 Hartrees.
 NAtoms=   62 NActive=   62 NUniq=   62 SFac= 1.00D+00 NAtFMM=   60 NAOKFM=T Big=T
 Integral buffers will be    131072 words long.
 Raffenetti 2 integral format.
 Two-electron integral symmetry is turned off.
 Nuclear repulsion after empirical dispersion term =     3179.6823152367 Hartrees.
 One-electron integrals computed using PRISM.
 NBasis=   501 RedAO= T EigKep=  1.57D-03  NBF=   501
 NBsUse=   501 1.00D-06 EigRej= -1.00D+00 NBFU=   501
 Initial guess from the checkpoint file:  "conf-234.chk"
 B after Tr=     0.000000    0.000000    0.000000
         Rot=    1.000000    0.000000    0.000000    0.000000 Ang=   0.00 deg.
 Requested convergence on RMS density matrix=1.00D-08 within 128 cycles.
 Requested convergence on MAX density matrix=1.00D-06.
 Requested convergence on             energy=1.00D-06.
 No special actions if energy rises.
 SCF Done:  E(RB3LYP) =  -1447.49064860     A.U. after    3 cycles
            NFock=  3  Conv=0.77D-09     -V/T= 2.0093

 **********************************************************************

            Population analysis using the SCF Density.

 **********************************************************************

 Alpha  occ. eigenvalues --  -19.32288 -19.31107 -19.26962 -19.25349 -19.25295
 Alpha  occ. eigenvalues --  -19.24012 -14.55536 -14.48986 -14.48482 -14.46121
 Alpha  occ. eigenvalues --  -14.44583 -14.39837 -10.45158 -10.43718 -10.42136
 Alpha  occ. eigenvalues --  -10.41435 -10.39533 -10.37177 -10.36714 -10.36444
 Alpha  occ. eigenvalues --  -10.33330 -10.32533 -10.32392 -10.31412 -10.30581
 Alpha  occ. eigenvalues --  -10.29979 -10.29230 -10.27050 -10.26081  -1.23347
 Alpha  occ. eigenvalues --   -1.21859  -1.17148  -1.16118  -1.14380  -1.13778
 Alpha  occ. eigenvalues --   -1.10540  -1.08641  -1.05640  -1.05175  -0.99547
 Alpha  occ. eigenvalues --   -0.94997  -0.93270  -0.92658  -0.91253  -0.87105
 Alpha  occ. eigenvalues --   -0.86215  -0.84519  -0.79140  -0.78840  -0.77933
 Alpha  occ. eigenvalues --   -0.76413  -0.73898  -0.73466  -0.72248  -0.71543
 Alpha  occ. eigenvalues --   -0.69994  -0.69716  -0.69035  -0.68604  -0.67930
 Alpha  occ. eigenvalues --   -0.66162  -0.66033  -0.63122  -0.62854  -0.62166
 Alpha  occ. eigenvalues --   -0.61705  -0.61211  -0.60753  -0.59918  -0.59133
 Alpha  occ. eigenvalues --   -0.58537  -0.58279  -0.57550  -0.56802  -0.56090
 Alpha  occ. eigenvalues --   -0.55637  -0.54711  -0.54433  -0.53836  -0.53551
 Alpha  occ. eigenvalues --   -0.53239  -0.53122  -0.52695  -0.52267  -0.51255
 Alpha  occ. eigenvalues --   -0.50611  -0.50387  -0.49536  -0.49349  -0.49073
 Alpha  occ. eigenvalues --   -0.48845  -0.48707  -0.47905  -0.47212  -0.47011
 Alpha  occ. eigenvalues --   -0.46665  -0.46344  -0.45644  -0.44682  -0.43528
 Alpha  occ. eigenvalues --   -0.42931  -0.42651  -0.42428  -0.40718  -0.39909
 Alpha  occ. eigenvalues --   -0.39144  -0.38963  -0.38614  -0.37853  -0.36940
 Alpha  occ. eigenvalues --   -0.35977  -0.33701
 Alpha virt. eigenvalues --   -0.12349  -0.11826  -0.10717  -0.09747  -0.06292
 Alpha virt. eigenvalues --   -0.05675  -0.05087  -0.04135  -0.03685  -0.02865
 Alpha virt. eigenvalues --   -0.02430  -0.01843  -0.01235   0.00171   0.00565
 Alpha virt. eigenvalues --    0.00850   0.00889   0.01966   0.02066   0.02918
 Alpha virt. eigenvalues --    0.03114   0.03430   0.04071   0.04962   0.05085
 Alpha virt. eigenvalues --    0.05437   0.05984   0.06125   0.06179   0.06633
 Alpha virt. eigenvalues --    0.07234   0.07484   0.07833   0.08430   0.08673
 Alpha virt. eigenvalues --    0.09021   0.09370   0.09996   0.10229   0.10783
 Alpha virt. eigenvalues --    0.11475   0.11969   0.12243   0.12813   0.13087
 Alpha virt. eigenvalues --    0.13191   0.13462   0.14540   0.14733   0.15232
 Alpha virt. eigenvalues --    0.15584   0.16393   0.17014   0.17828   0.18489
 Alpha virt. eigenvalues --    0.20135   0.20435   0.21557   0.23158   0.24735
 Alpha virt. eigenvalues --    0.25500   0.26791   0.28185   0.29557   0.31746
 Alpha virt. eigenvalues --    0.32796   0.37058   0.38422   0.39218   0.39526
 Alpha virt. eigenvalues --    0.40129   0.40713   0.41367   0.41797   0.42326
 Alpha virt. eigenvalues --    0.42446   0.43006   0.43691   0.44491   0.44688
 Alpha virt. eigenvalues --    0.45346   0.46567   0.46817   0.47453   0.48374
 Alpha virt. eigenvalues --    0.48490   0.48732   0.49692   0.50053   0.50299
 Alpha virt. eigenvalues --    0.51605   0.52029   0.52899   0.52944   0.53741
 Alpha virt. eigenvalues --    0.54578   0.54675   0.55564   0.55986   0.56709
 Alpha virt. eigenvalues --    0.57539   0.57924   0.58766   0.59305   0.59457
 Alpha virt. eigenvalues --    0.60028   0.60728   0.61790   0.62199   0.62978
 Alpha virt. eigenvalues --    0.63258   0.64527   0.64916   0.65934   0.66662
 Alpha virt. eigenvalues --    0.67464   0.67725   0.68256   0.68675   0.69071
 Alpha virt. eigenvalues --    0.70025   0.70260   0.70978   0.71302   0.72223
 Alpha virt. eigenvalues --    0.72591   0.73399   0.74335   0.74631   0.74694
 Alpha virt. eigenvalues --    0.75456   0.76272   0.76567   0.76764   0.77112
 Alpha virt. eigenvalues --    0.78052   0.78486   0.78735   0.79212   0.79404
 Alpha virt. eigenvalues --    0.79897   0.80631   0.81122   0.81664   0.81805
 Alpha virt. eigenvalues --    0.82262   0.82358   0.82515   0.83401   0.83675
 Alpha virt. eigenvalues --    0.84297   0.84371   0.85505   0.85626   0.86009
 Alpha virt. eigenvalues --    0.86358   0.87410   0.88256   0.88656   0.88899
 Alpha virt. eigenvalues --    0.89324   0.89510   0.90207   0.91066   0.92283
 Alpha virt. eigenvalues --    0.92822   0.93407   0.94291   0.94882   0.96082
 Alpha virt. eigenvalues --    0.96953   0.97400   0.97881   0.98226   1.00003
 Alpha virt. eigenvalues --    1.01893   1.02579   1.03870   1.04491   1.06530
 Alpha virt. eigenvalues --    1.06945   1.07912   1.08513   1.09353   1.10399
 Alpha virt. eigenvalues --    1.11385   1.11643   1.12677   1.14099   1.16284
 Alpha virt. eigenvalues --    1.17569   1.18789   1.20636   1.21776   1.22133
 Alpha virt. eigenvalues --    1.23648   1.24429   1.25030   1.26789   1.27541
 Alpha virt. eigenvalues --    1.27947   1.28381   1.29610   1.31725   1.32305
 Alpha virt. eigenvalues --    1.33212   1.35085   1.36073   1.37009   1.37720
 Alpha virt. eigenvalues --    1.38991   1.40272   1.41776   1.42560   1.43996
 Alpha virt. eigenvalues --    1.44637   1.46903   1.48963   1.50290   1.51221
 Alpha virt. eigenvalues --    1.52449   1.52634   1.53826   1.55037   1.56126
 Alpha virt. eigenvalues --    1.57267   1.58332   1.59376   1.60666   1.61016
 Alpha virt. eigenvalues --    1.61201   1.61921   1.63241   1.64147   1.64215
 Alpha virt. eigenvalues --    1.65513   1.66302   1.67008   1.67192   1.68309
 Alpha virt. eigenvalues --    1.68471   1.69014   1.69832   1.70454   1.70878
 Alpha virt. eigenvalues --    1.71798   1.72788   1.73326   1.73757   1.74068
 Alpha virt. eigenvalues --    1.75657   1.75932   1.77257   1.77516   1.78198
 Alpha virt. eigenvalues --    1.78669   1.79352   1.80946   1.81434   1.82169
 Alpha virt. eigenvalues --    1.82916   1.83350   1.84132   1.84508   1.85372
 Alpha virt. eigenvalues --    1.86318   1.87271   1.87701   1.88142   1.89071
 Alpha virt. eigenvalues --    1.90793   1.90852   1.91584   1.93090   1.93524
 Alpha virt. eigenvalues --    1.94418   1.94976   1.95460   1.97171   1.97736
 Alpha virt. eigenvalues --    1.98263   1.98579   2.00618   2.00977   2.02338
 Alpha virt. eigenvalues --    2.03704   2.06140   2.06907   2.08480   2.09617
 Alpha virt. eigenvalues --    2.11330   2.12585   2.13567   2.14741   2.15450
 Alpha virt. eigenvalues --    2.16083   2.17610   2.19098   2.19506   2.20281
 Alpha virt. eigenvalues --    2.21010   2.21775   2.23112   2.24053   2.24995
 Alpha virt. eigenvalues --    2.26462   2.27686   2.28233   2.28858   2.29685
 Alpha virt. eigenvalues --    2.30757   2.31066   2.31504   2.32880   2.34718
 Alpha virt. eigenvalues --    2.35394   2.36730   2.38644   2.39430   2.41103
 Alpha virt. eigenvalues --    2.41406   2.41634   2.43028   2.45052   2.45628
 Alpha virt. eigenvalues --    2.47158   2.48482   2.50073   2.50327   2.52276
 Alpha virt. eigenvalues --    2.53002   2.53519   2.54689   2.55999   2.57120
 Alpha virt. eigenvalues --    2.58994   2.60396   2.61003   2.62468   2.63992
 Alpha virt. eigenvalues --    2.64194   2.66444   2.67626   2.68908   2.70661
 Alpha virt. eigenvalues --    2.73270   2.75527   2.76505   2.82521   2.83931
 Alpha virt. eigenvalues --    2.87495   2.88318   2.89711   2.90284   2.94308
 Alpha virt. eigenvalues --    2.97389   2.97999   2.98396   3.03113   3.09394
 Alpha virt. eigenvalues --    3.72101   3.73967   3.79358   3.79619   3.84423
 Alpha virt. eigenvalues --    3.87406   3.92231   3.96556   4.01761   4.03027
 Alpha virt. eigenvalues --    4.05694   4.07902   4.10121   4.14044   4.14900
 Alpha virt. eigenvalues --    4.18350   4.20188   4.22030   4.23007   4.24840
 Alpha virt. eigenvalues --    4.29342   4.30926   4.37523   4.42748   4.44500
 Alpha virt. eigenvalues --    4.46752   4.51622   4.59517   4.65283
          Condensed to atoms (all electrons):
 Mulliken charges:
               1
     1  N   -0.763507
     2  C   -0.089640
     3  C    0.620329
     4  O   -0.507242
     5  C   -0.298609
     6  C   -0.367974
     7  C    0.647313
     8  O   -0.501583
     9  O   -0.558622
    10  H    0.434864
    11  H    0.447793
    12  H    0.211316
    13  H    0.192915
    14  H    0.194839
    15  H    0.213275
    16  H    0.204674
    17  H    0.426183
    18  H    0.404797
    19  N   -0.582029
    20  C   -0.092241
    21  C    0.662159
    22  O   -0.578589
    23  C   -0.325430
    24  C   -0.072986
    25  C   -0.449266
    26  C   -0.455306
    27  H    0.354892
    28  H    0.194975
    29  H    0.163618
    30  H    0.162264
    31  H    0.140527
    32  H    0.154446
    33  H    0.154396
    34  H    0.166081
    35  H    0.130029
    36  H    0.171747
    37  H    0.150741
    38  N   -0.635121
    39  C   -0.056652
    40  C    0.616968
    41  O   -0.440336
    42  C   -0.296592
    43  C   -0.282442
    44  C   -0.167382
    45  N   -0.589892
    46  C    0.633552
    47  N   -0.747333
    48  N   -0.773240
    49  O   -0.546026
    50  H    0.428501
    51  H    0.384391
    52  H    0.193429
    53  H    0.181037
    54  H    0.149284
    55  H    0.153906
    56  H    0.170590
    57  H    0.166272
    58  H    0.178964
    59  H    0.337942
    60  H    0.285605
    61  H    0.357587
    62  H    0.335836
 Sum of Mulliken charges =   1.00000
 Mulliken charges with hydrogens summed into heavy atoms:
               1
     1  N    0.515266
     2  C    0.121676
     3  C    0.620329
     4  O   -0.507242
     5  C    0.089145
     6  C    0.049974
     7  C    0.647313
     8  O   -0.501583
     9  O   -0.123758
    19  N   -0.227136
    20  C    0.102734
    21  C    0.662159
    22  O   -0.578589
    23  C    0.000452
    24  C    0.067541
    25  C    0.025658
    26  C   -0.002789
    38  N   -0.250730
    39  C    0.136778
    40  C    0.616968
    41  O   -0.440336
    42  C    0.033729
    43  C    0.042054
    44  C    0.177854
    45  N   -0.251950
    46  C    0.633552
    47  N   -0.461729
    48  N   -0.079818
    49  O   -0.117525
 Electronic spatial extent (au):  <R**2>=         515007.2946
 Charge=              1.0000 electrons
 Dipole moment (field-independent basis, Debye):
    X=             57.0093    Y=             86.4551    Z=             60.9034  Tot=            120.1407
 Quadrupole moment (field-independent basis, Debye-Ang):
   XX=            519.4109   YY=           1417.3153   ZZ=            644.3800
   XY=           1008.8779   XZ=            716.9258   YZ=           1096.5178
 Traceless Quadrupole moment (field-independent basis, Debye-Ang):
   XX=           -340.9578   YY=            556.9466   ZZ=           -215.9887
   XY=           1008.8779   XZ=            716.9258   YZ=           1096.5178
 Octapole moment (field-independent basis, Debye-Ang**2):
  XXX=           2603.1150  YYY=          20783.3126  ZZZ=           4408.5565  XYY=          16201.7450
  XXY=           9068.0752  XXZ=           6180.4795  XZZ=           7521.0792  YZZ=          11664.4423
  YYZ=          17900.9459  XYZ=          12674.8600
 Hexadecapole moment (field-independent basis, Debye-Ang**3):
 XXXX=         -36026.6118 YYYY=         250130.2725 ZZZZ=         -31614.7495 XXXY=          44750.6407
 XXXZ=          22351.9094 YYYX=         230503.8907 YYYZ=         260222.3837 ZZZX=          51290.3804
 ZZZY=          82441.5185 XXYY=         137192.6014 XXZZ=          53498.2341 YYZZ=         185189.2253
 XXYZ=         107813.8376 YYXZ=         202372.3903 ZZXY=         133213.4359
 N-N= 3.179682315237D+03 E-N=-9.707885686121D+03  KE= 1.434090237332D+03
 Unable to Open any file for archive entry.
 1\1\GINC-SKL-152\SP\RB3LYP\6-31G(d)\C17H33N6O6(1+)\KENGMITH\24-May-202
 2\0\\# B3LYP/6-31G* empiricaldispersion=gd3 guess=read geom=check nosy
 mm integral(ultrafinegrid)\\Candidate Structure: Conf:234 Charge calc 
 in gas phase\\1,1\N,0,14.4331036704,18.6587288775,13.2106412127\C,0,14
 .0450103097,17.2291293724,13.4759821193\C,0,14.2150195365,17.089082831
 6,14.9949584067\O,0,15.2906742844,17.4168362078,15.4839823432\C,0,14.9
 549390783,16.2463645547,12.7228063921\C,0,14.5649241685,16.0205295398,
 11.2561717786\C,0,14.7990810028,17.1984760254,10.3397956198\O,0,15.302
 0839463,18.2665864417,10.645148346\O,0,14.4133809527,16.9277924705,9.0
 804186649\H,0,14.6022537167,17.7196177511,8.5392270558\H,0,14.61259852
 32,18.8034548388,12.1980241674\H,0,13.0221007164,17.1425016792,13.1205
 442346\H,0,14.8811090451,15.2814827227,13.2363381342\H,0,15.9998191837
 ,16.5611199748,12.8144581105\H,0,15.1373058807,15.1796121252,10.845214
 8697\H,0,13.5087690682,15.7422348519,11.1729168021\H,0,13.6716620457,1
 9.2487597421,13.5740181212\H,0,15.289730664,18.8540606168,13.746776591
 1\N,0,13.1873041706,16.5685911385,15.7156884588\C,0,11.7770174611,16.5
 85999928,15.341035831\C,0,11.2909282759,18.058647432,15.1928014946\O,0
 ,12.0553632537,18.9325843457,14.7568505054\C,0,10.9686070342,15.699270
 1623,16.3037227884\C,0,11.4932240957,14.2544289232,16.4467917697\C,0,1
 0.5856703093,13.4768899321,17.4108680973\C,0,11.5981453817,13.54026627
 31,15.0921020487\H,0,13.3841089682,16.5496074596,16.712265244\H,0,11.6
 800262786,16.1583185409,14.3367399678\H,0,9.9346662598,15.6406765727,1
 5.9386644569\H,0,10.929494272,16.1779964085,17.2918099276\H,0,12.49901
 64376,14.2951649294,16.8864820426\H,0,10.514025968,13.9735188474,18.38
 53441878\H,0,9.5704635047,13.3835970538,17.0051351431\H,0,10.972241834
 6,12.4661817656,17.5772153085\H,0,12.3402680985,14.0091394892,14.43449
 45756\H,0,11.9023044422,12.497853166,15.2308671373\H,0,10.6313203862,1
 3.5367360579,14.5719989487\N,0,10.0047244854,18.292506333,15.491772444
 \C,0,9.3021138274,19.5533303059,15.2911182307\C,0,7.8331954203,19.2664
 322377,15.6513211269\O,0,7.4200189471,18.147522205,15.8443118487\C,0,9
 .4285147155,20.1133908241,13.8520597068\C,0,9.150227986,19.0809037077,
 12.7553030489\C,0,9.4584241677,19.6431232271,11.3502251153\N,0,9.85098
 86627,18.6389070675,10.373094349\C,0,11.079649855,18.0088592007,10.433
 2665167\N,0,12.0456516483,18.2693048155,11.2635147659\N,0,11.232494104
 9,17.0049175826,9.4913273094\O,0,7.0139443295,20.3284428788,15.7085567
 071\H,0,7.4968036686,21.1645147712,15.5934959992\H,0,9.3998932395,17.5
 410893053,15.8088914795\H,0,9.6969753485,20.3036119916,15.9905046192\H
 ,0,10.4465172537,20.4961615097,13.7427948285\H,0,8.7544179476,20.97360
 10056,13.7485699459\H,0,9.7868515414,18.2060119808,12.9195791479\H,0,8
 .1144816068,18.7236272772,12.8057234023\H,0,10.2706710116,20.378662324
 ,11.4083933524\H,0,8.5954994612,20.1799776357,10.9456293848\H,0,9.1013
 597577,18.1078881606,9.948207446\H,0,11.7432512514,18.9453917864,11.96
 26736426\H,0,12.1965677959,16.7295092996,9.3452898072\H,0,10.741027940
 4,17.1447894266,8.6164415118\\Version=ES64L-G16RevC.01\HF=-1447.490648
 6\RMSD=7.743e-10\Dipole=0.3577034,0.9170132,-1.7297188\Quadrupole=-253
 .4937801,414.0761135,-160.5823334,750.0759603,533.0167504,815.2341289\
 PG=C01 [X(C17H33N6O6)]\\@
 The archive entry for this job was punched.


 HE WHO LOVES TO READ, AND KNOWS HOW TO REFLECT,
 HAS LAID BY A PERPETUAL FEAST FOR HIS OLD AGE.
 -- UNCLE ESEK, "SCRIBNER'S MONTHLY", SEPT. 1880
 Job cpu time:       0 days  0 hours  2 minutes 28.9 seconds.
 Elapsed time:       0 days  0 hours  0 minutes 37.7 seconds.
 File lengths (MBytes):  RWF=    248 Int=      0 D2E=      0 Chk=     32 Scr=     16
 Normal termination of Gaussian 16 at Tue May 24 03:34:26 2022.
