 Entering Gaussian System, Link 0=/opt/software/Gaussian/g16-AVX2-C.01/g16/g16
 Input=charge-conf-496.com
 Output=charge-conf-496.log
 Initial command:
 /opt/software/Gaussian/g16-AVX2-C.01/g16/l1.exe "/mnt/gs18/scratch/users/kengmith/Gau-5799.inp" -scrdir="/mnt/gs18/scratch/users/kengmith/"
 Entering Link 1 = /opt/software/Gaussian/g16-AVX2-C.01/g16/l1.exe PID=      5809.
  
 Copyright (c) 1988-2019, Gaussian, Inc.  All Rights Reserved.
  
 This is part of the Gaussian(R) 16 program.  It is based on
 the Gaussian(R) 09 system (copyright 2009, Gaussian, Inc.),
 the Gaussian(R) 03 system (copyright 2003, Gaussian, Inc.),
 the Gaussian(R) 98 system (copyright 1998, Gaussian, Inc.),
 the Gaussian(R) 94 system (copyright 1995, Gaussian, Inc.),
 the Gaussian 92(TM) system (copyright 1992, Gaussian, Inc.),
 the Gaussian 90(TM) system (copyright 1990, Gaussian, Inc.),
 the Gaussian 88(TM) system (copyright 1988, Gaussian, Inc.),
 the Gaussian 86(TM) system (copyright 1986, Carnegie Mellon
 University), and the Gaussian 82(TM) system (copyright 1983,
 Carnegie Mellon University). Gaussian is a federally registered
 trademark of Gaussian, Inc.
  
 This software contains proprietary and confidential information,
 including trade secrets, belonging to Gaussian, Inc.
  
 This software is provided under written license and may be
 used, copied, transmitted, or stored only in accord with that
 written license.
  
 The following legend is applicable only to US Government
 contracts under FAR:
  
                    RESTRICTED RIGHTS LEGEND
  
 Use, reproduction and disclosure by the US Government is
 subject to restrictions as set forth in subparagraphs (a)
 and (c) of the Commercial Computer Software - Restricted
 Rights clause in FAR 52.227-19.
  
 Gaussian, Inc.
 340 Quinnipiac St., Bldg. 40, Wallingford CT 06492
  
  
 ---------------------------------------------------------------
 Warning -- This program may not be used in any manner that
 competes with the business of Gaussian, Inc. or will provide
 assistance to any competitor of Gaussian, Inc.  The licensee
 of this program is prohibited from giving any competitor of
 Gaussian, Inc. access to this program.  By using this program,
 the user acknowledges that Gaussian, Inc. is engaged in the
 business of creating and licensing software in the field of
 computational chemistry and represents and warrants to the
 licensee that it is not a competitor of Gaussian, Inc. and that
 it will not use this program in any manner prohibited above.
 ---------------------------------------------------------------
  

 Cite this work as:
 Gaussian 16, Revision C.01,
 M. J. Frisch, G. W. Trucks, H. B. Schlegel, G. E. Scuseria, 
 M. A. Robb, J. R. Cheeseman, G. Scalmani, V. Barone, 
 G. A. Petersson, H. Nakatsuji, X. Li, M. Caricato, A. V. Marenich, 
 J. Bloino, B. G. Janesko, R. Gomperts, B. Mennucci, H. P. Hratchian, 
 J. V. Ortiz, A. F. Izmaylov, J. L. Sonnenberg, D. Williams-Young, 
 F. Ding, F. Lipparini, F. Egidi, J. Goings, B. Peng, A. Petrone, 
 T. Henderson, D. Ranasinghe, V. G. Zakrzewski, J. Gao, N. Rega, 
 G. Zheng, W. Liang, M. Hada, M. Ehara, K. Toyota, R. Fukuda, 
 J. Hasegawa, M. Ishida, T. Nakajima, Y. Honda, O. Kitao, H. Nakai, 
 T. Vreven, K. Throssell, J. A. Montgomery, Jr., J. E. Peralta, 
 F. Ogliaro, M. J. Bearpark, J. J. Heyd, E. N. Brothers, K. N. Kudin, 
 V. N. Staroverov, T. A. Keith, R. Kobayashi, J. Normand, 
 K. Raghavachari, A. P. Rendell, J. C. Burant, S. S. Iyengar, 
 J. Tomasi, M. Cossi, J. M. Millam, M. Klene, C. Adamo, R. Cammi, 
 J. W. Ochterski, R. L. Martin, K. Morokuma, O. Farkas, 
 J. B. Foresman, and D. J. Fox, Gaussian, Inc., Wallingford CT, 2019.
 
 ******************************************
 Gaussian 16:  ES64L-G16RevC.01  3-Jul-2019
                24-May-2022 
 ******************************************
 %mem=8gb
 %nproc=4
 Will use up to    4 processors via shared memory.
 %chk=conf-496.chk
 ----------------------------------------------------------------------
 # B3LYP/6-31G* empiricaldispersion=gd3 guess=read geom=check nosymm in
 tegral(ultrafinegrid)
 ----------------------------------------------------------------------
 1/29=2,38=1,172=1/1;
 2/12=2,15=1,40=1/2;
 3/5=1,6=6,7=1,11=2,14=-4,25=1,30=1,74=-5,75=-5,116=-2,124=31/1,2,3;
 4/5=1/1;
 5/5=2,38=6/2;
 6/7=2,8=2,9=2,10=2,28=1/1;
 99/5=1,9=1/99;
 ------------------------------------------------------
 Candidate Structure: Conf:496 Charge calc in gas phase
 ------------------------------------------------------
 Structure from the checkpoint file:  "conf-496.chk"
 Charge =  1 Multiplicity = 1
 Redundant internal coordinates found in file.  (old form).
 N,0,15.1478969841,15.428141726,13.1410406118
 C,0,14.4243936328,16.6926241504,13.5215124507
 C,0,15.2081146086,17.8349316128,12.8377870876
 O,0,16.3414960044,17.5995297345,12.4281625257
 C,0,14.3846732283,16.819269073,15.0663018352
 C,0,13.0675115822,16.3379392258,15.6835212411
 C,0,12.7283564943,14.889253307,15.3486793747
 O,0,13.5470170496,14.1208034709,14.8560889007
 O,0,11.4987743614,14.4828992369,15.6067662508
 H,0,10.8501432058,15.2294407116,15.8509959333
 H,0,14.9589488224,15.1589913526,12.1704173119
 H,0,13.4175980649,16.6097088175,13.1021150539
 H,0,14.5438738482,17.8648153428,15.343660895
 H,0,15.2278530351,16.2654846236,15.4939348796
 H,0,13.106594048,16.4307720975,16.7763037799
 H,0,12.2394456817,16.9799413317,15.361740747
 H,0,16.1606129942,15.6235597264,13.1884696288
 H,0,14.8190030643,14.6735427515,13.7891825612
 N,0,14.5886139818,19.0303012305,12.7734036375
 C,0,13.2040153801,19.3233314329,13.1580397278
 C,0,12.2604375369,19.1243463776,11.9583769906
 O,0,12.4237324883,19.7592117696,10.9286670521
 C,0,13.086542864,20.7687450038,13.6670414951
 C,0,11.6856642562,21.1410381505,14.1936906441
 C,0,11.2527601522,20.2609686013,15.3770989256
 C,0,11.6641334585,22.624347389,14.589347992
 H,0,15.0840910488,19.7442807081,12.2480263518
 H,0,12.9331847069,18.6506745855,13.9720961389
 H,0,13.3504343899,21.4347107502,12.8365300974
 H,0,13.8315624555,20.9147917997,14.460508975
 H,0,10.9594516549,20.9944118628,13.3828183152
 H,0,11.9821485565,20.3099776205,16.195918867
 H,0,10.2855816475,20.591292266,15.7693114003
 H,0,11.1342407502,19.20925252,15.0833764933
 H,0,10.6656720384,22.9252477072,14.9234016314
 H,0,12.3659587347,22.822881005,15.4090700605
 H,0,11.9426658682,23.2638168001,13.7447860505
 N,0,11.255293547,18.2179086161,12.1482734487
 C,0,10.0946780217,18.1697259098,11.2662590851
 C,0,8.7932769185,18.3331099559,12.0550096276
 O,0,7.7128094398,17.9703703783,11.6518120424
 C,0,10.0550541788,16.9350645301,10.3447703649
 C,0,10.2225601385,15.5568144615,11.0070282504
 C,0,9.2297017987,15.2159333346,12.1303883267
 N,0,9.6931971577,15.7727917061,13.4147481814
 C,0,8.8270732057,16.153324103,14.4339393705
 N,0,7.5751037795,16.3695144827,14.4377027628
 N,0,9.5728626656,16.4097668607,15.6580998001
 O,0,8.9628379704,18.9360408352,13.2578708106
 H,0,8.085095357,18.9236113947,13.6909734435
 H,0,11.1166258319,17.8038418335,13.0599355141
 H,0,10.1704966652,19.055556877,10.6224840308
 H,0,10.8507751493,17.0619866896,9.6028741004
 H,0,9.1033346526,16.9677565451,9.8052929889
 H,0,10.1231512927,14.8016427558,10.2190487062
 H,0,11.2459023175,15.4506770622,11.3976742441
 H,0,9.1193096606,14.1283935061,12.2254612312
 H,0,8.2471186705,15.6254613535,11.8938417167
 H,0,10.481153236,15.2445642284,13.7738269412
 H,0,7.1188667464,16.1248292849,13.5588252684
 H,0,8.8890253006,16.4203364602,16.416441999
 H,0,9.9521114882,17.3583744422,15.6106295491
 Recover connectivity data from disk.
                           ----------------------------
                           !    Current Parameters    !
                           ! (Angstroms and Degrees)  !
 --------------------------                            --------------------------
 ! Name  Definition              Value                                          !
 --------------------------------------------------------------------------------
 ! R1    R(1,2)                  1.5057                                         !
 ! R2    R(1,11)                 1.0248                                         !
 ! R3    R(1,17)                 1.0325                                         !
 ! R4    R(1,18)                 1.0477                                         !
 ! R5    R(2,3)                  1.5449                                         !
 ! R6    R(2,5)                  1.5505                                         !
 ! R7    R(2,12)                 1.0938                                         !
 ! R8    R(3,4)                  1.2279                                         !
 ! R9    R(3,19)                 1.3479                                         !
 ! R10   R(5,6)                  1.5322                                         !
 ! R11   R(5,13)                 1.0934                                         !
 ! R12   R(5,14)                 1.0957                                         !
 ! R13   R(6,7)                  1.5251                                         !
 ! R14   R(6,15)                 1.0974                                         !
 ! R15   R(6,16)                 1.0961                                         !
 ! R16   R(7,8)                  1.2261                                         !
 ! R17   R(7,9)                  1.3205                                         !
 ! R18   R(9,10)                 1.0187                                         !
 ! R19   R(19,20)                1.4666                                         !
 ! R20   R(19,27)                1.0155                                         !
 ! R21   R(20,21)                1.5392                                         !
 ! R22   R(20,23)                1.5369                                         !
 ! R23   R(20,28)                1.0902                                         !
 ! R24   R(21,22)                1.2207                                         !
 ! R25   R(21,38)                1.3667                                         !
 ! R26   R(23,24)                1.5422                                         !
 ! R27   R(23,29)                1.0968                                         !
 ! R28   R(23,30)                1.0982                                         !
 ! R29   R(24,25)                1.537                                          !
 ! R30   R(24,26)                1.5353                                         !
 ! R31   R(24,31)                1.0984                                         !
 ! R32   R(25,32)                1.0977                                         !
 ! R33   R(25,33)                1.0947                                         !
 ! R34   R(25,34)                1.0984                                         !
 ! R35   R(26,35)                1.095                                          !
 ! R36   R(26,36)                1.0972                                         !
 ! R37   R(26,37)                1.0953                                         !
 ! R38   R(38,39)                1.4585                                         !
 ! R39   R(38,51)                1.0108                                         !
 ! R40   R(39,40)                1.5305                                         !
 ! R41   R(39,42)                1.5411                                         !
 ! R42   R(39,52)                1.0977                                         !
 ! R43   R(40,41)                1.2089                                         !
 ! R44   R(40,49)                1.3562                                         !
 ! R45   R(42,43)                1.5383                                         !
 ! R46   R(42,53)                1.0953                                         !
 ! R47   R(42,54)                1.0945                                         !
 ! R48   R(43,44)                1.5375                                         !
 ! R49   R(43,55)                1.0959                                         !
 ! R50   R(43,56)                1.1005                                         !
 ! R51   R(44,45)                1.4746                                         !
 ! R52   R(44,57)                1.0973                                         !
 ! R53   R(44,58)                1.0905                                         !
 ! R54   R(45,46)                1.3906                                         !
 ! R55   R(45,59)                1.0143                                         !
 ! R56   R(46,47)                1.2705                                         !
 ! R57   R(46,48)                1.4562                                         !
 ! R58   R(47,60)                1.02                                           !
 ! R59   R(48,61)                1.0212                                         !
 ! R60   R(48,62)                1.0227                                         !
 ! R61   R(49,50)                0.9789                                         !
 ! A1    A(2,1,11)             111.7952                                         !
 ! A2    A(2,1,17)             107.5028                                         !
 ! A3    A(2,1,18)             107.3192                                         !
 ! A4    A(11,1,17)            105.9058                                         !
 ! A5    A(11,1,18)            109.8087                                         !
 ! A6    A(17,1,18)            114.5703                                         !
 ! A7    A(1,2,3)              105.3887                                         !
 ! A8    A(1,2,5)              109.4306                                         !
 ! A9    A(1,2,12)             106.364                                          !
 ! A10   A(3,2,5)              113.1761                                         !
 ! A11   A(3,2,12)             110.6898                                         !
 ! A12   A(5,2,12)             111.3851                                         !
 ! A13   A(2,3,4)              118.3037                                         !
 ! A14   A(2,3,19)             116.3422                                         !
 ! A15   A(4,3,19)             125.3313                                         !
 ! A16   A(2,5,6)              113.436                                          !
 ! A17   A(2,5,13)             109.0943                                         !
 ! A18   A(2,5,14)             109.139                                          !
 ! A19   A(6,5,13)             108.8682                                         !
 ! A20   A(6,5,14)             110.2158                                         !
 ! A21   A(13,5,14)            105.7991                                         !
 ! A22   A(5,6,7)              113.6499                                         !
 ! A23   A(5,6,15)             110.1176                                         !
 ! A24   A(5,6,16)             110.3157                                         !
 ! A25   A(7,6,15)             107.8729                                         !
 ! A26   A(7,6,16)             108.9003                                         !
 ! A27   A(15,6,16)            105.6459                                         !
 ! A28   A(6,7,8)              122.3484                                         !
 ! A29   A(6,7,9)              117.1611                                         !
 ! A30   A(8,7,9)              120.49                                           !
 ! A31   A(7,9,10)             114.4723                                         !
 ! A32   A(3,19,20)            126.7676                                         !
 ! A33   A(3,19,27)            115.0858                                         !
 ! A34   A(20,19,27)           117.1183                                         !
 ! A35   A(19,20,21)           110.3965                                         !
 ! A36   A(19,20,23)           110.2993                                         !
 ! A37   A(19,20,28)           107.884                                          !
 ! A38   A(21,20,23)           109.4421                                         !
 ! A39   A(21,20,28)           110.4834                                         !
 ! A40   A(23,20,28)           108.2998                                         !
 ! A41   A(20,21,22)           120.5464                                         !
 ! A42   A(20,21,38)           115.359                                          !
 ! A43   A(22,21,38)           124.0918                                         !
 ! A44   A(20,23,24)           114.1769                                         !
 ! A45   A(20,23,29)           107.5707                                         !
 ! A46   A(20,23,30)           108.2107                                         !
 ! A47   A(24,23,29)           109.3031                                         !
 ! A48   A(24,23,30)           109.7188                                         !
 ! A49   A(29,23,30)           107.6465                                         !
 ! A50   A(23,24,25)           112.3675                                         !
 ! A51   A(23,24,26)           109.5096                                         !
 ! A52   A(23,24,31)           108.4364                                         !
 ! A53   A(25,24,26)           110.5376                                         !
 ! A54   A(25,24,31)           107.8036                                         !
 ! A55   A(26,24,31)           108.0563                                         !
 ! A56   A(24,25,32)           111.2003                                         !
 ! A57   A(24,25,33)           110.605                                          !
 ! A58   A(24,25,34)           111.886                                          !
 ! A59   A(32,25,33)           107.839                                          !
 ! A60   A(32,25,34)           108.2965                                         !
 ! A61   A(33,25,34)           106.8223                                         !
 ! A62   A(24,26,35)           110.9091                                         !
 ! A63   A(24,26,36)           110.9999                                         !
 ! A64   A(24,26,37)           111.2084                                         !
 ! A65   A(35,26,36)           107.7943                                         !
 ! A66   A(35,26,37)           107.8581                                         !
 ! A67   A(36,26,37)           107.9237                                         !
 ! A68   A(21,38,39)           121.5404                                         !
 ! A69   A(21,38,51)           119.8585                                         !
 ! A70   A(39,38,51)           115.0053                                         !
 ! A71   A(38,39,40)           111.1893                                         !
 ! A72   A(38,39,42)           114.1113                                         !
 ! A73   A(38,39,52)           105.8455                                         !
 ! A74   A(40,39,42)           111.8269                                         !
 ! A75   A(40,39,52)           105.952                                          !
 ! A76   A(42,39,52)           107.3147                                         !
 ! A77   A(39,40,41)           123.7819                                         !
 ! A78   A(39,40,49)           113.4685                                         !
 ! A79   A(41,40,49)           122.7485                                         !
 ! A80   A(39,42,43)           117.2313                                         !
 ! A81   A(39,42,53)           107.067                                          !
 ! A82   A(39,42,54)           107.0468                                         !
 ! A83   A(43,42,53)           108.4411                                         !
 ! A84   A(43,42,54)           109.4913                                         !
 ! A85   A(53,42,54)           107.1214                                         !
 ! A86   A(42,43,44)           116.2885                                         !
 ! A87   A(42,43,55)           107.3354                                         !
 ! A88   A(42,43,56)           109.9071                                         !
 ! A89   A(44,43,55)           108.2994                                         !
 ! A90   A(44,43,56)           108.6476                                         !
 ! A91   A(55,43,56)           105.8497                                         !
 ! A92   A(43,44,45)           110.4674                                         !
 ! A93   A(43,44,57)           110.3665                                         !
 ! A94   A(43,44,58)           109.8839                                         !
 ! A95   A(45,44,57)           109.2955                                         !
 ! A96   A(45,44,58)           109.2889                                         !
 ! A97   A(57,44,58)           107.4796                                         !
 ! A98   A(44,45,46)           123.088                                          !
 ! A99   A(44,45,59)           110.8454                                         !
 ! A100  A(46,45,59)           111.5244                                         !
 ! A101  A(45,46,47)           131.4907                                         !
 ! A102  A(45,46,48)           110.2021                                         !
 ! A103  A(47,46,48)           118.1784                                         !
 ! A104  A(46,47,60)           113.4148                                         !
 ! A105  A(46,48,61)           106.4476                                         !
 ! A106  A(46,48,62)           108.315                                          !
 ! A107  A(61,48,62)           105.8543                                         !
 ! A108  A(40,49,50)           105.9431                                         !
 ! D1    D(11,1,2,3)           -75.1144                                         !
 ! D2    D(11,1,2,5)           162.8844                                         !
 ! D3    D(11,1,2,12)           42.4494                                         !
 ! D4    D(17,1,2,3)            40.7081                                         !
 ! D5    D(17,1,2,5)           -81.293                                          !
 ! D6    D(17,1,2,12)          158.2719                                         !
 ! D7    D(18,1,2,3)           164.4216                                         !
 ! D8    D(18,1,2,5)            42.4204                                         !
 ! D9    D(18,1,2,12)          -78.0146                                         !
 ! D10   D(1,2,3,4)            -16.3302                                         !
 ! D11   D(1,2,3,19)           165.3101                                         !
 ! D12   D(5,2,3,4)            103.2179                                         !
 ! D13   D(5,2,3,19)           -75.1418                                         !
 ! D14   D(12,2,3,4)          -130.9318                                         !
 ! D15   D(12,2,3,19)           50.7085                                         !
 ! D16   D(1,2,5,6)            -97.8878                                         !
 ! D17   D(1,2,5,13)           140.5751                                         !
 ! D18   D(1,2,5,14)            25.4175                                         !
 ! D19   D(3,2,5,6)            144.9112                                         !
 ! D20   D(3,2,5,13)            23.3742                                         !
 ! D21   D(3,2,5,14)           -91.7835                                         !
 ! D22   D(12,2,5,6)            19.4336                                         !
 ! D23   D(12,2,5,13)         -102.1035                                         !
 ! D24   D(12,2,5,14)          142.7389                                         !
 ! D25   D(2,3,19,20)           -6.768                                          !
 ! D26   D(2,3,19,27)         -174.7508                                         !
 ! D27   D(4,3,19,20)          175.0023                                         !
 ! D28   D(4,3,19,27)            7.0195                                         !
 ! D29   D(2,5,6,7)             57.6116                                         !
 ! D30   D(2,5,6,15)           178.758                                          !
 ! D31   D(2,5,6,16)           -65.0182                                         !
 ! D32   D(13,5,6,7)           179.275                                          !
 ! D33   D(13,5,6,15)          -59.5786                                         !
 ! D34   D(13,5,6,16)           56.6452                                         !
 ! D35   D(14,5,6,7)           -65.101                                          !
 ! D36   D(14,5,6,15)           56.0455                                         !
 ! D37   D(14,5,6,16)          172.2692                                         !
 ! D38   D(5,6,7,8)             13.145                                          !
 ! D39   D(5,6,7,9)           -166.5948                                         !
 ! D40   D(15,6,7,8)          -109.2493                                         !
 ! D41   D(15,6,7,9)            71.0109                                         !
 ! D42   D(16,6,7,8)           136.5507                                         !
 ! D43   D(16,6,7,9)           -43.189                                          !
 ! D44   D(6,7,9,10)            10.4778                                         !
 ! D45   D(8,7,9,10)          -169.2671                                         !
 ! D46   D(3,19,20,21)         -89.6735                                         !
 ! D47   D(3,19,20,23)         149.2507                                         !
 ! D48   D(3,19,20,28)          31.1424                                         !
 ! D49   D(27,19,20,21)         78.0953                                         !
 ! D50   D(27,19,20,23)        -42.9806                                         !
 ! D51   D(27,19,20,28)       -161.0888                                         !
 ! D52   D(19,20,21,22)        -58.5857                                         !
 ! D53   D(19,20,21,38)        122.0108                                         !
 ! D54   D(23,20,21,22)         62.9991                                         !
 ! D55   D(23,20,21,38)       -116.4044                                         !
 ! D56   D(28,20,21,22)       -177.8371                                         !
 ! D57   D(28,20,21,38)          2.7593                                         !
 ! D58   D(19,20,23,24)       -175.75                                           !
 ! D59   D(19,20,23,29)         62.7675                                         !
 ! D60   D(19,20,23,30)        -53.2677                                         !
 ! D61   D(21,20,23,24)         62.6066                                         !
 ! D62   D(21,20,23,29)        -58.8759                                         !
 ! D63   D(21,20,23,30)       -174.911                                          !
 ! D64   D(28,20,23,24)        -57.8974                                         !
 ! D65   D(28,20,23,29)       -179.3799                                         !
 ! D66   D(28,20,23,30)         64.5849                                         !
 ! D67   D(20,21,38,39)        163.7505                                         !
 ! D68   D(20,21,38,51)          6.1985                                         !
 ! D69   D(22,21,38,39)        -15.6292                                         !
 ! D70   D(22,21,38,51)       -173.1812                                         !
 ! D71   D(20,23,24,25)         60.3125                                         !
 ! D72   D(20,23,24,26)       -176.4388                                         !
 ! D73   D(20,23,24,31)        -58.7458                                         !
 ! D74   D(29,23,24,25)       -179.1661                                         !
 ! D75   D(29,23,24,26)        -55.9175                                         !
 ! D76   D(29,23,24,31)         61.7756                                         !
 ! D77   D(30,23,24,25)        -61.3427                                         !
 ! D78   D(30,23,24,26)         61.906                                          !
 ! D79   D(30,23,24,31)        179.599                                          !
 ! D80   D(23,24,25,32)         56.5139                                         !
 ! D81   D(23,24,25,33)        176.307                                          !
 ! D82   D(23,24,25,34)        -64.7308                                         !
 ! D83   D(26,24,25,32)        -66.1569                                         !
 ! D84   D(26,24,25,33)         53.6362                                         !
 ! D85   D(26,24,25,34)        172.5984                                         !
 ! D86   D(31,24,25,32)        175.9421                                         !
 ! D87   D(31,24,25,33)        -64.2648                                         !
 ! D88   D(31,24,25,34)         54.6974                                         !
 ! D89   D(23,24,26,35)        177.3686                                         !
 ! D90   D(23,24,26,36)        -62.825                                          !
 ! D91   D(23,24,26,37)         57.3437                                         !
 ! D92   D(25,24,26,35)        -58.308                                          !
 ! D93   D(25,24,26,36)         61.4984                                         !
 ! D94   D(25,24,26,37)       -178.333                                          !
 ! D95   D(31,24,26,35)         59.438                                          !
 ! D96   D(31,24,26,36)        179.2444                                         !
 ! D97   D(31,24,26,37)        -60.587                                          !
 ! D98   D(21,38,39,40)       -123.3678                                         !
 ! D99   D(21,38,39,42)        109.0153                                         !
 ! D100  D(21,38,39,52)         -8.7582                                         !
 ! D101  D(51,38,39,40)         35.1996                                         !
 ! D102  D(51,38,39,42)        -92.4174                                         !
 ! D103  D(51,38,39,52)        149.8091                                         !
 ! D104  D(38,39,40,41)       -158.6522                                         !
 ! D105  D(38,39,40,49)         21.7276                                         !
 ! D106  D(42,39,40,41)        -29.8061                                         !
 ! D107  D(42,39,40,49)        150.5737                                         !
 ! D108  D(52,39,40,41)         86.8046                                         !
 ! D109  D(52,39,40,49)        -92.8156                                         !
 ! D110  D(38,39,42,43)         51.5807                                         !
 ! D111  D(38,39,42,53)        -70.4343                                         !
 ! D112  D(38,39,42,54)        174.9678                                         !
 ! D113  D(40,39,42,43)        -75.7083                                         !
 ! D114  D(40,39,42,53)        162.2767                                         !
 ! D115  D(40,39,42,54)         47.6788                                         !
 ! D116  D(52,39,42,43)        168.5085                                         !
 ! D117  D(52,39,42,53)         46.4935                                         !
 ! D118  D(52,39,42,54)        -68.1044                                         !
 ! D119  D(39,40,49,50)       -175.9028                                         !
 ! D120  D(41,40,49,50)          4.4725                                         !
 ! D121  D(39,42,43,44)         56.0421                                         !
 ! D122  D(39,42,43,55)        177.4454                                         !
 ! D123  D(39,42,43,56)        -67.8882                                         !
 ! D124  D(53,42,43,44)        177.3435                                         !
 ! D125  D(53,42,43,55)        -61.2531                                         !
 ! D126  D(53,42,43,56)         53.4132                                         !
 ! D127  D(54,42,43,44)        -66.0908                                         !
 ! D128  D(54,42,43,55)         55.3126                                         !
 ! D129  D(54,42,43,56)        169.9789                                         !
 ! D130  D(42,43,44,45)        -84.2599                                         !
 ! D131  D(42,43,44,57)        154.7571                                         !
 ! D132  D(42,43,44,58)         36.3995                                         !
 ! D133  D(55,43,44,45)        154.8494                                         !
 ! D134  D(55,43,44,57)         33.8664                                         !
 ! D135  D(55,43,44,58)        -84.4912                                         !
 ! D136  D(56,43,44,45)         40.3173                                         !
 ! D137  D(56,43,44,57)        -80.6656                                         !
 ! D138  D(56,43,44,58)        160.9767                                         !
 ! D139  D(43,44,45,46)        150.9431                                         !
 ! D140  D(43,44,45,59)        -73.2749                                         !
 ! D141  D(57,44,45,46)        -87.4387                                         !
 ! D142  D(57,44,45,59)         48.3433                                         !
 ! D143  D(58,44,45,46)         29.9291                                         !
 ! D144  D(58,44,45,59)        165.7111                                         !
 ! D145  D(44,45,46,47)        -15.5675                                         !
 ! D146  D(44,45,46,48)        168.7341                                         !
 ! D147  D(59,45,46,47)       -151.0923                                         !
 ! D148  D(59,45,46,48)         33.2093                                         !
 ! D149  D(45,46,47,60)          7.2884                                         !
 ! D150  D(48,46,47,60)       -177.2919                                         !
 ! D151  D(45,46,48,61)       -164.2815                                         !
 ! D152  D(45,46,48,62)         82.2798                                         !
 ! D153  D(47,46,48,61)         19.3729                                         !
 ! D154  D(47,46,48,62)        -94.0658                                         !
 --------------------------------------------------------------------------------
 Symmetry turned off by external request.
 Stoichiometry    C17H33N6O6(1+)
 Framework group  C1[X(C17H33N6O6)]
 Deg. of freedom   180
 Full point group                 C1      NOp   1
                          Input orientation:                          
 ---------------------------------------------------------------------
 Center     Atomic      Atomic             Coordinates (Angstroms)
 Number     Number       Type             X           Y           Z
 ---------------------------------------------------------------------
      1          7           0       15.147897   15.428142   13.141041
      2          6           0       14.424394   16.692624   13.521512
      3          6           0       15.208115   17.834932   12.837787
      4          8           0       16.341496   17.599530   12.428163
      5          6           0       14.384673   16.819269   15.066302
      6          6           0       13.067512   16.337939   15.683521
      7          6           0       12.728356   14.889253   15.348679
      8          8           0       13.547017   14.120803   14.856089
      9          8           0       11.498774   14.482899   15.606766
     10          1           0       10.850143   15.229441   15.850996
     11          1           0       14.958949   15.158991   12.170417
     12          1           0       13.417598   16.609709   13.102115
     13          1           0       14.543874   17.864815   15.343661
     14          1           0       15.227853   16.265485   15.493935
     15          1           0       13.106594   16.430772   16.776304
     16          1           0       12.239446   16.979941   15.361741
     17          1           0       16.160613   15.623560   13.188470
     18          1           0       14.819003   14.673543   13.789183
     19          7           0       14.588614   19.030301   12.773404
     20          6           0       13.204015   19.323331   13.158040
     21          6           0       12.260438   19.124346   11.958377
     22          8           0       12.423732   19.759212   10.928667
     23          6           0       13.086543   20.768745   13.667041
     24          6           0       11.685664   21.141038   14.193691
     25          6           0       11.252760   20.260969   15.377099
     26          6           0       11.664133   22.624347   14.589348
     27          1           0       15.084091   19.744281   12.248026
     28          1           0       12.933185   18.650675   13.972096
     29          1           0       13.350434   21.434711   12.836530
     30          1           0       13.831562   20.914792   14.460509
     31          1           0       10.959452   20.994412   13.382818
     32          1           0       11.982149   20.309978   16.195919
     33          1           0       10.285582   20.591292   15.769311
     34          1           0       11.134241   19.209253   15.083376
     35          1           0       10.665672   22.925248   14.923402
     36          1           0       12.365959   22.822881   15.409070
     37          1           0       11.942666   23.263817   13.744786
     38          7           0       11.255294   18.217909   12.148273
     39          6           0       10.094678   18.169726   11.266259
     40          6           0        8.793277   18.333110   12.055010
     41          8           0        7.712809   17.970370   11.651812
     42          6           0       10.055054   16.935065   10.344770
     43          6           0       10.222560   15.556814   11.007028
     44          6           0        9.229702   15.215933   12.130388
     45          7           0        9.693197   15.772792   13.414748
     46          6           0        8.827073   16.153324   14.433939
     47          7           0        7.575104   16.369514   14.437703
     48          7           0        9.572863   16.409767   15.658100
     49          8           0        8.962838   18.936041   13.257871
     50          1           0        8.085095   18.923611   13.690973
     51          1           0       11.116626   17.803842   13.059936
     52          1           0       10.170497   19.055557   10.622484
     53          1           0       10.850775   17.061987    9.602874
     54          1           0        9.103335   16.967757    9.805293
     55          1           0       10.123151   14.801643   10.219049
     56          1           0       11.245902   15.450677   11.397674
     57          1           0        9.119310   14.128394   12.225461
     58          1           0        8.247119   15.625461   11.893842
     59          1           0       10.481153   15.244564   13.773827
     60          1           0        7.118867   16.124829   13.558825
     61          1           0        8.889025   16.420336   16.416442
     62          1           0        9.952111   17.358374   15.610630
 ---------------------------------------------------------------------
 Rotational constants (GHZ):           0.1751254           0.1499160           0.1168454
 Standard basis: 6-31G(d) (6D, 7F)
   501 basis functions,   944 primitive gaussians,   501 cartesian basis functions
   112 alpha electrons      112 beta electrons
       nuclear repulsion energy      3306.9214669621 Hartrees.
 NAtoms=   62 NActive=   62 NUniq=   62 SFac= 1.00D+00 NAtFMM=   60 NAOKFM=T Big=T
 Integral buffers will be    131072 words long.
 Raffenetti 2 integral format.
 Two-electron integral symmetry is turned off.
 Nuclear repulsion after empirical dispersion term =     3306.8286058640 Hartrees.
 One-electron integrals computed using PRISM.
 NBasis=   501 RedAO= T EigKep=  1.71D-03  NBF=   501
 NBsUse=   501 1.00D-06 EigRej= -1.00D+00 NBFU=   501
 Initial guess from the checkpoint file:  "conf-496.chk"
 B after Tr=     0.000000    0.000000    0.000000
         Rot=    1.000000    0.000000    0.000000    0.000000 Ang=   0.00 deg.
 Requested convergence on RMS density matrix=1.00D-08 within 128 cycles.
 Requested convergence on MAX density matrix=1.00D-06.
 Requested convergence on             energy=1.00D-06.
 No special actions if energy rises.
 SCF Done:  E(RB3LYP) =  -1447.47171549     A.U. after    1 cycles
            NFock=  1  Conv=0.84D-08     -V/T= 2.0093

 **********************************************************************

            Population analysis using the SCF Density.

 **********************************************************************

 Alpha  occ. eigenvalues --  -19.31792 -19.31174 -19.28328 -19.26749 -19.25151
 Alpha  occ. eigenvalues --  -19.23547 -14.59900 -14.50594 -14.48595 -14.48444
 Alpha  occ. eigenvalues --  -14.47887 -14.41508 -10.46742 -10.44319 -10.43416
 Alpha  occ. eigenvalues --  -10.41869 -10.40823 -10.40703 -10.37048 -10.36400
 Alpha  occ. eigenvalues --  -10.35837 -10.35216 -10.33299 -10.30524 -10.30243
 Alpha  occ. eigenvalues --  -10.29993 -10.29599 -10.29107 -10.26746  -1.23677
 Alpha  occ. eigenvalues --   -1.21923  -1.19358  -1.15808  -1.15662  -1.14108
 Alpha  occ. eigenvalues --   -1.12900  -1.10026  -1.07245  -1.04983  -1.01569
 Alpha  occ. eigenvalues --   -0.97064  -0.96676  -0.93197  -0.90896  -0.89007
 Alpha  occ. eigenvalues --   -0.87330  -0.85238  -0.80755  -0.79722  -0.79162
 Alpha  occ. eigenvalues --   -0.76745  -0.75889  -0.74960  -0.73961  -0.73315
 Alpha  occ. eigenvalues --   -0.72893  -0.71495  -0.70265  -0.69341  -0.67316
 Alpha  occ. eigenvalues --   -0.66382  -0.66079  -0.65834  -0.65336  -0.63518
 Alpha  occ. eigenvalues --   -0.62856  -0.61872  -0.61859  -0.61315  -0.60340
 Alpha  occ. eigenvalues --   -0.59714  -0.59148  -0.59011  -0.58300  -0.57570
 Alpha  occ. eigenvalues --   -0.56628  -0.56459  -0.55430  -0.55073  -0.54846
 Alpha  occ. eigenvalues --   -0.54346  -0.54011  -0.53289  -0.53105  -0.52834
 Alpha  occ. eigenvalues --   -0.51651  -0.51384  -0.51041  -0.50567  -0.50388
 Alpha  occ. eigenvalues --   -0.50004  -0.49367  -0.48255  -0.48132  -0.47209
 Alpha  occ. eigenvalues --   -0.46237  -0.45446  -0.45278  -0.45152  -0.44273
 Alpha  occ. eigenvalues --   -0.43697  -0.43308  -0.42786  -0.42446  -0.41684
 Alpha  occ. eigenvalues --   -0.41069  -0.40284  -0.39773  -0.38477  -0.37059
 Alpha  occ. eigenvalues --   -0.36868  -0.35868
 Alpha virt. eigenvalues --   -0.14087  -0.13309  -0.11065  -0.11006  -0.10400
 Alpha virt. eigenvalues --   -0.09878  -0.08374  -0.06073  -0.05410  -0.03851
 Alpha virt. eigenvalues --   -0.03234  -0.03073  -0.02039  -0.01794  -0.00094
 Alpha virt. eigenvalues --    0.00379   0.00604   0.01128   0.01641   0.01889
 Alpha virt. eigenvalues --    0.02206   0.02619   0.02707   0.03515   0.03976
 Alpha virt. eigenvalues --    0.04325   0.04637   0.05093   0.05555   0.06095
 Alpha virt. eigenvalues --    0.06435   0.06521   0.06861   0.07326   0.07573
 Alpha virt. eigenvalues --    0.08166   0.08655   0.08941   0.09396   0.09664
 Alpha virt. eigenvalues --    0.10023   0.10159   0.10625   0.11221   0.11543
 Alpha virt. eigenvalues --    0.12911   0.13528   0.13831   0.14190   0.14331
 Alpha virt. eigenvalues --    0.14886   0.15091   0.16011   0.16528   0.17952
 Alpha virt. eigenvalues --    0.19028   0.19340   0.20325   0.20654   0.22273
 Alpha virt. eigenvalues --    0.23714   0.24897   0.26614   0.28885   0.29748
 Alpha virt. eigenvalues --    0.34135   0.34992   0.35541   0.36907   0.37722
 Alpha virt. eigenvalues --    0.39141   0.39665   0.39878   0.40301   0.41133
 Alpha virt. eigenvalues --    0.41537   0.41742   0.42923   0.43122   0.44021
 Alpha virt. eigenvalues --    0.44284   0.44947   0.45718   0.46257   0.46852
 Alpha virt. eigenvalues --    0.47347   0.48379   0.48638   0.49277   0.50016
 Alpha virt. eigenvalues --    0.50148   0.51583   0.52306   0.52792   0.53126
 Alpha virt. eigenvalues --    0.53661   0.53737   0.54070   0.54806   0.55134
 Alpha virt. eigenvalues --    0.55590   0.56626   0.57283   0.57649   0.58113
 Alpha virt. eigenvalues --    0.59198   0.59358   0.60377   0.60391   0.61429
 Alpha virt. eigenvalues --    0.61728   0.62340   0.63619   0.64456   0.65316
 Alpha virt. eigenvalues --    0.66107   0.66924   0.67348   0.67900   0.68597
 Alpha virt. eigenvalues --    0.68896   0.69428   0.69714   0.70939   0.71064
 Alpha virt. eigenvalues --    0.71486   0.72084   0.72654   0.72827   0.73026
 Alpha virt. eigenvalues --    0.74041   0.74792   0.75471   0.75658   0.76309
 Alpha virt. eigenvalues --    0.76593   0.77302   0.77992   0.78162   0.78817
 Alpha virt. eigenvalues --    0.79060   0.79682   0.80362   0.80633   0.81556
 Alpha virt. eigenvalues --    0.81695   0.82145   0.82429   0.83006   0.83315
 Alpha virt. eigenvalues --    0.83623   0.83889   0.84423   0.84781   0.85651
 Alpha virt. eigenvalues --    0.86016   0.86441   0.86766   0.87531   0.88347
 Alpha virt. eigenvalues --    0.89177   0.89678   0.90750   0.91261   0.91538
 Alpha virt. eigenvalues --    0.92554   0.93753   0.94348   0.94405   0.95887
 Alpha virt. eigenvalues --    0.96207   0.97164   0.97474   0.97978   0.98572
 Alpha virt. eigenvalues --    0.99843   1.00741   1.02154   1.02629   1.03471
 Alpha virt. eigenvalues --    1.05083   1.05845   1.07447   1.08986   1.11032
 Alpha virt. eigenvalues --    1.11773   1.12900   1.13186   1.14644   1.14847
 Alpha virt. eigenvalues --    1.16949   1.19418   1.20052   1.20743   1.21538
 Alpha virt. eigenvalues --    1.22824   1.23943   1.24360   1.26418   1.27530
 Alpha virt. eigenvalues --    1.28839   1.29803   1.30519   1.31703   1.31971
 Alpha virt. eigenvalues --    1.33158   1.33985   1.35003   1.36413   1.37710
 Alpha virt. eigenvalues --    1.38646   1.39885   1.40966   1.41959   1.44523
 Alpha virt. eigenvalues --    1.45034   1.47100   1.48329   1.49462   1.51020
 Alpha virt. eigenvalues --    1.52280   1.53359   1.53839   1.54636   1.56447
 Alpha virt. eigenvalues --    1.57026   1.58623   1.59439   1.59896   1.60109
 Alpha virt. eigenvalues --    1.60425   1.61236   1.62199   1.62603   1.63063
 Alpha virt. eigenvalues --    1.64003   1.65012   1.65521   1.66664   1.67202
 Alpha virt. eigenvalues --    1.67785   1.68848   1.69085   1.69259   1.70174
 Alpha virt. eigenvalues --    1.70771   1.71548   1.71578   1.72071   1.72608
 Alpha virt. eigenvalues --    1.73251   1.74369   1.74564   1.75923   1.76546
 Alpha virt. eigenvalues --    1.77124   1.78408   1.79246   1.79873   1.81016
 Alpha virt. eigenvalues --    1.81458   1.82555   1.83386   1.83800   1.84731
 Alpha virt. eigenvalues --    1.86118   1.86443   1.87452   1.88063   1.88512
 Alpha virt. eigenvalues --    1.89751   1.90904   1.91541   1.92605   1.92985
 Alpha virt. eigenvalues --    1.94041   1.94687   1.94921   1.95269   1.97489
 Alpha virt. eigenvalues --    1.98362   1.99602   2.00633   2.01230   2.02174
 Alpha virt. eigenvalues --    2.03414   2.04057   2.05041   2.05538   2.07989
 Alpha virt. eigenvalues --    2.09032   2.10653   2.11705   2.13190   2.13973
 Alpha virt. eigenvalues --    2.15062   2.15379   2.16510   2.16620   2.18454
 Alpha virt. eigenvalues --    2.18672   2.19319   2.20908   2.22418   2.24289
 Alpha virt. eigenvalues --    2.26430   2.27178   2.27794   2.28548   2.29154
 Alpha virt. eigenvalues --    2.29968   2.30419   2.31171   2.32598   2.33098
 Alpha virt. eigenvalues --    2.34409   2.34811   2.36850   2.38304   2.39552
 Alpha virt. eigenvalues --    2.41127   2.41628   2.42094   2.43778   2.45147
 Alpha virt. eigenvalues --    2.47898   2.48406   2.49287   2.50035   2.51032
 Alpha virt. eigenvalues --    2.52491   2.53417   2.54357   2.54902   2.56462
 Alpha virt. eigenvalues --    2.58689   2.59954   2.60622   2.60895   2.62429
 Alpha virt. eigenvalues --    2.64429   2.64597   2.66130   2.67769   2.69092
 Alpha virt. eigenvalues --    2.72920   2.74812   2.76709   2.81063   2.85331
 Alpha virt. eigenvalues --    2.86405   2.87265   2.88505   2.89270   2.91787
 Alpha virt. eigenvalues --    2.94671   2.96569   3.01264   3.02093   3.04577
 Alpha virt. eigenvalues --    3.65526   3.75033   3.80448   3.81901   3.87489
 Alpha virt. eigenvalues --    3.87746   3.92989   3.94349   4.01919   4.02404
 Alpha virt. eigenvalues --    4.06168   4.08085   4.15691   4.16512   4.17279
 Alpha virt. eigenvalues --    4.19473   4.19841   4.21705   4.23383   4.25151
 Alpha virt. eigenvalues --    4.32230   4.38608   4.38768   4.43909   4.46767
 Alpha virt. eigenvalues --    4.48866   4.51414   4.55540   4.67775
          Condensed to atoms (all electrons):
 Mulliken charges:
               1
     1  N   -0.746920
     2  C   -0.130773
     3  C    0.628994
     4  O   -0.498612
     5  C   -0.299936
     6  C   -0.411927
     7  C    0.627333
     8  O   -0.496086
     9  O   -0.572305
    10  H    0.472932
    11  H    0.413448
    12  H    0.200769
    13  H    0.211115
    14  H    0.199478
    15  H    0.227846
    16  H    0.163109
    17  H    0.419618
    18  H    0.449307
    19  N   -0.585224
    20  C   -0.088047
    21  C    0.640866
    22  O   -0.498187
    23  C   -0.280328
    24  C   -0.092838
    25  C   -0.456762
    26  C   -0.449508
    27  H    0.372867
    28  H    0.129946
    29  H    0.181550
    30  H    0.154448
    31  H    0.159536
    32  H    0.150797
    33  H    0.171499
    34  H    0.099967
    35  H    0.162418
    36  H    0.152413
    37  H    0.165472
    38  N   -0.616654
    39  C   -0.060909
    40  C    0.611904
    41  O   -0.456018
    42  C   -0.275147
    43  C   -0.269365
    44  C   -0.174038
    45  N   -0.632619
    46  C    0.550164
    47  N   -0.599767
    48  N   -0.842048
    49  O   -0.587932
    50  H    0.433944
    51  H    0.332559
    52  H    0.232416
    53  H    0.168235
    54  H    0.190630
    55  H    0.174616
    56  H    0.109468
    57  H    0.177650
    58  H    0.199243
    59  H    0.337538
    60  H    0.319195
    61  H    0.370633
    62  H    0.358024
 Sum of Mulliken charges =   1.00000
 Mulliken charges with hydrogens summed into heavy atoms:
               1
     1  N    0.535453
     2  C    0.069996
     3  C    0.628994
     4  O   -0.498612
     5  C    0.110658
     6  C   -0.020973
     7  C    0.627333
     8  O   -0.496086
     9  O   -0.099373
    19  N   -0.212357
    20  C    0.041899
    21  C    0.640866
    22  O   -0.498187
    23  C    0.055671
    24  C    0.066698
    25  C   -0.034498
    26  C    0.030796
    38  N   -0.284096
    39  C    0.171507
    40  C    0.611904
    41  O   -0.456018
    42  C    0.083718
    43  C    0.014719
    44  C    0.202855
    45  N   -0.295081
    46  C    0.550164
    47  N   -0.280572
    48  N   -0.113391
    49  O   -0.153987
 Electronic spatial extent (au):  <R**2>=         510435.8039
 Charge=              1.0000 electrons
 Dipole moment (field-independent basis, Debye):
    X=             61.6531    Y=             81.4257    Z=             67.8228  Tot=            122.6018
 Quadrupole moment (field-independent basis, Debye-Ang):
   XX=            636.4453   YY=           1226.0792   ZZ=            798.7463
   XY=           1037.2883   XZ=            870.6693   YZ=           1166.9690
 Traceless Quadrupole moment (field-independent basis, Debye-Ang):
   XX=           -250.6450   YY=            338.9889   ZZ=            -88.3440
   XY=           1037.2883   XZ=            870.6693   YZ=           1166.9690
 Octapole moment (field-independent basis, Debye-Ang**2):
  XXX=           4816.3960  YYY=          15295.7821  ZZZ=           7181.8923  XYY=          15666.3942
  XXY=          10440.6149  XXZ=           9119.2115  XZZ=          10430.7775  YZZ=          13864.4158
  YYZ=          18004.8077  XYZ=          14857.0983
 Hexadecapole moment (field-independent basis, Debye-Ang**3):
 XXXX=           1708.5881 YYYY=         107999.1643 ZZZZ=          19680.1904 XXXY=          72296.3991
 XXXZ=          72363.1336 YYYX=         199708.2307 YYYZ=         236848.9787 ZZZX=          99000.5555
 ZZZY=         125701.4337 XXYY=         148828.6202 XXZZ=         107242.1385 YYZZ=         211347.6075
 XXYZ=         152440.3838 YYXZ=         229445.7834 ZZXY=         179172.9803
 N-N= 3.306828605864D+03 E-N=-9.959729750909D+03  KE= 1.434103131284D+03
 Unable to Open any file for archive entry.
 1\1\GINC-SKL-156\SP\RB3LYP\6-31G(d)\C17H33N6O6(1+)\KENGMITH\24-May-202
 2\0\\# B3LYP/6-31G* empiricaldispersion=gd3 guess=read geom=check nosy
 mm integral(ultrafinegrid)\\Candidate Structure: Conf:496 Charge calc 
 in gas phase\\1,1\N,0,15.1478969841,15.428141726,13.1410406118\C,0,14.
 4243936328,16.6926241504,13.5215124507\C,0,15.2081146086,17.8349316128
 ,12.8377870876\O,0,16.3414960044,17.5995297345,12.4281625257\C,0,14.38
 46732283,16.819269073,15.0663018352\C,0,13.0675115822,16.3379392258,15
 .6835212411\C,0,12.7283564943,14.889253307,15.3486793747\O,0,13.547017
 0496,14.1208034709,14.8560889007\O,0,11.4987743614,14.4828992369,15.60
 67662508\H,0,10.8501432058,15.2294407116,15.8509959333\H,0,14.95894882
 24,15.1589913526,12.1704173119\H,0,13.4175980649,16.6097088175,13.1021
 150539\H,0,14.5438738482,17.8648153428,15.343660895\H,0,15.2278530351,
 16.2654846236,15.4939348796\H,0,13.106594048,16.4307720975,16.77630377
 99\H,0,12.2394456817,16.9799413317,15.361740747\H,0,16.1606129942,15.6
 235597264,13.1884696288\H,0,14.8190030643,14.6735427515,13.7891825612\
 N,0,14.5886139818,19.0303012305,12.7734036375\C,0,13.2040153801,19.323
 3314329,13.1580397278\C,0,12.2604375369,19.1243463776,11.9583769906\O,
 0,12.4237324883,19.7592117696,10.9286670521\C,0,13.086542864,20.768745
 0038,13.6670414951\C,0,11.6856642562,21.1410381505,14.1936906441\C,0,1
 1.2527601522,20.2609686013,15.3770989256\C,0,11.6641334585,22.62434738
 9,14.589347992\H,0,15.0840910488,19.7442807081,12.2480263518\H,0,12.93
 31847069,18.6506745855,13.9720961389\H,0,13.3504343899,21.4347107502,1
 2.8365300974\H,0,13.8315624555,20.9147917997,14.460508975\H,0,10.95945
 16549,20.9944118628,13.3828183152\H,0,11.9821485565,20.3099776205,16.1
 95918867\H,0,10.2855816475,20.591292266,15.7693114003\H,0,11.134240750
 2,19.20925252,15.0833764933\H,0,10.6656720384,22.9252477072,14.9234016
 314\H,0,12.3659587347,22.822881005,15.4090700605\H,0,11.9426658682,23.
 2638168001,13.7447860505\N,0,11.255293547,18.2179086161,12.1482734487\
 C,0,10.0946780217,18.1697259098,11.2662590851\C,0,8.7932769185,18.3331
 099559,12.0550096276\O,0,7.7128094398,17.9703703783,11.6518120424\C,0,
 10.0550541788,16.9350645301,10.3447703649\C,0,10.2225601385,15.5568144
 615,11.0070282504\C,0,9.2297017987,15.2159333346,12.1303883267\N,0,9.6
 931971577,15.7727917061,13.4147481814\C,0,8.8270732057,16.153324103,14
 .4339393705\N,0,7.5751037795,16.3695144827,14.4377027628\N,0,9.5728626
 656,16.4097668607,15.6580998001\O,0,8.9628379704,18.9360408352,13.2578
 708106\H,0,8.085095357,18.9236113947,13.6909734435\H,0,11.1166258319,1
 7.8038418335,13.0599355141\H,0,10.1704966652,19.055556877,10.622484030
 8\H,0,10.8507751493,17.0619866896,9.6028741004\H,0,9.1033346526,16.967
 7565451,9.8052929889\H,0,10.1231512927,14.8016427558,10.2190487062\H,0
 ,11.2459023175,15.4506770622,11.3976742441\H,0,9.1193096606,14.1283935
 061,12.2254612312\H,0,8.2471186705,15.6254613535,11.8938417167\H,0,10.
 481153236,15.2445642284,13.7738269412\H,0,7.1188667464,16.1248292849,1
 3.5588252684\H,0,8.8890253006,16.4203364602,16.416441999\H,0,9.9521114
 882,17.3583744422,15.6106295491\\Version=ES64L-G16RevC.01\HF=-1447.471
 7155\RMSD=8.439e-09\Dipole=2.2159621,-1.2179493,1.3892633\Quadrupole=-
 186.348398,252.0299743,-65.6815763,771.1983905,647.3212962,867.6128349
 \PG=C01 [X(C17H33N6O6)]\\@
 The archive entry for this job was punched.


 THE ONLY DIFFERENCE BETWEEN ECCENTRICS AND JOGGERS
 IS THAT JOGGERS WEAR SWEATBANDS WHEN THEY RUN IN THE RAIN.
 Job cpu time:       0 days  0 hours  1 minutes 13.5 seconds.
 Elapsed time:       0 days  0 hours  0 minutes 18.8 seconds.
 File lengths (MBytes):  RWF=    248 Int=      0 D2E=      0 Chk=     32 Scr=     16
 Normal termination of Gaussian 16 at Tue May 24 03:34:12 2022.
