 Entering Gaussian System, Link 0=/opt/software/Gaussian/g16-AVX2-C.01/g16/g16
 Input=charge-conf-883.com
 Output=charge-conf-883.log
 Initial command:
 /opt/software/Gaussian/g16-AVX2-C.01/g16/l1.exe "/mnt/gs18/scratch/users/kengmith/Gau-36341.inp" -scrdir="/mnt/gs18/scratch/users/kengmith/"
 Entering Link 1 = /opt/software/Gaussian/g16-AVX2-C.01/g16/l1.exe PID=     36354.
  
 Copyright (c) 1988-2019, Gaussian, Inc.  All Rights Reserved.
  
 This is part of the Gaussian(R) 16 program.  It is based on
 the Gaussian(R) 09 system (copyright 2009, Gaussian, Inc.),
 the Gaussian(R) 03 system (copyright 2003, Gaussian, Inc.),
 the Gaussian(R) 98 system (copyright 1998, Gaussian, Inc.),
 the Gaussian(R) 94 system (copyright 1995, Gaussian, Inc.),
 the Gaussian 92(TM) system (copyright 1992, Gaussian, Inc.),
 the Gaussian 90(TM) system (copyright 1990, Gaussian, Inc.),
 the Gaussian 88(TM) system (copyright 1988, Gaussian, Inc.),
 the Gaussian 86(TM) system (copyright 1986, Carnegie Mellon
 University), and the Gaussian 82(TM) system (copyright 1983,
 Carnegie Mellon University). Gaussian is a federally registered
 trademark of Gaussian, Inc.
  
 This software contains proprietary and confidential information,
 including trade secrets, belonging to Gaussian, Inc.
  
 This software is provided under written license and may be
 used, copied, transmitted, or stored only in accord with that
 written license.
  
 The following legend is applicable only to US Government
 contracts under FAR:
  
                    RESTRICTED RIGHTS LEGEND
  
 Use, reproduction and disclosure by the US Government is
 subject to restrictions as set forth in subparagraphs (a)
 and (c) of the Commercial Computer Software - Restricted
 Rights clause in FAR 52.227-19.
  
 Gaussian, Inc.
 340 Quinnipiac St., Bldg. 40, Wallingford CT 06492
  
  
 ---------------------------------------------------------------
 Warning -- This program may not be used in any manner that
 competes with the business of Gaussian, Inc. or will provide
 assistance to any competitor of Gaussian, Inc.  The licensee
 of this program is prohibited from giving any competitor of
 Gaussian, Inc. access to this program.  By using this program,
 the user acknowledges that Gaussian, Inc. is engaged in the
 business of creating and licensing software in the field of
 computational chemistry and represents and warrants to the
 licensee that it is not a competitor of Gaussian, Inc. and that
 it will not use this program in any manner prohibited above.
 ---------------------------------------------------------------
  

 Cite this work as:
 Gaussian 16, Revision C.01,
 M. J. Frisch, G. W. Trucks, H. B. Schlegel, G. E. Scuseria, 
 M. A. Robb, J. R. Cheeseman, G. Scalmani, V. Barone, 
 G. A. Petersson, H. Nakatsuji, X. Li, M. Caricato, A. V. Marenich, 
 J. Bloino, B. G. Janesko, R. Gomperts, B. Mennucci, H. P. Hratchian, 
 J. V. Ortiz, A. F. Izmaylov, J. L. Sonnenberg, D. Williams-Young, 
 F. Ding, F. Lipparini, F. Egidi, J. Goings, B. Peng, A. Petrone, 
 T. Henderson, D. Ranasinghe, V. G. Zakrzewski, J. Gao, N. Rega, 
 G. Zheng, W. Liang, M. Hada, M. Ehara, K. Toyota, R. Fukuda, 
 J. Hasegawa, M. Ishida, T. Nakajima, Y. Honda, O. Kitao, H. Nakai, 
 T. Vreven, K. Throssell, J. A. Montgomery, Jr., J. E. Peralta, 
 F. Ogliaro, M. J. Bearpark, J. J. Heyd, E. N. Brothers, K. N. Kudin, 
 V. N. Staroverov, T. A. Keith, R. Kobayashi, J. Normand, 
 K. Raghavachari, A. P. Rendell, J. C. Burant, S. S. Iyengar, 
 J. Tomasi, M. Cossi, J. M. Millam, M. Klene, C. Adamo, R. Cammi, 
 J. W. Ochterski, R. L. Martin, K. Morokuma, O. Farkas, 
 J. B. Foresman, and D. J. Fox, Gaussian, Inc., Wallingford CT, 2019.
 
 ******************************************
 Gaussian 16:  ES64L-G16RevC.01  3-Jul-2019
                24-May-2022 
 ******************************************
 %mem=8gb
 %nproc=4
 Will use up to    4 processors via shared memory.
 %chk=conf-883.chk
 ----------------------------------------------------------------------
 # B3LYP/6-31G* empiricaldispersion=gd3 guess=read geom=check nosymm in
 tegral(ultrafinegrid)
 ----------------------------------------------------------------------
 1/29=2,38=1,172=1/1;
 2/12=2,15=1,40=1/2;
 3/5=1,6=6,7=1,11=2,14=-4,25=1,30=1,74=-5,75=-5,116=-2,124=31/1,2,3;
 4/5=1/1;
 5/5=2,38=6/2;
 6/7=2,8=2,9=2,10=2,28=1/1;
 99/5=1,9=1/99;
 ------------------------------------------------------
 Candidate Structure: Conf:883 Charge calc in gas phase
 ------------------------------------------------------
 Structure from the checkpoint file:  "conf-883.chk"
 Charge =  1 Multiplicity = 1
 Redundant internal coordinates found in file.  (old form).
 N,0,10.0357987406,17.310918574,10.6593556071
 C,0,10.9494186923,16.1752229575,11.0587265354
 C,0,12.1873095741,16.367621714,10.167164058
 O,0,12.0185180437,16.3268998235,8.9551108933
 C,0,10.3212966844,14.7929287594,10.8303137053
 C,0,8.9184659655,14.571868902,11.463416462
 C,0,8.8285114704,15.2770515016,12.7979144397
 O,0,8.6205644406,16.5008877882,12.8335380234
 O,0,9.0909306293,14.5450646285,13.8459860707
 H,0,9.208058684,15.1137198553,14.7025333432
 H,0,9.8483704386,17.2667261908,9.6506622124
 H,0,11.1423674711,16.3333923222,12.1189348233
 H,0,11.0278143887,14.0697699601,11.2523728152
 H,0,10.2733084219,14.5993262731,9.7546271209
 H,0,8.1391866449,14.987239466,10.8171771089
 H,0,8.7374483411,13.5006852951,11.5715638053
 H,0,9.1734923204,17.2569122408,11.2399696509
 H,0,10.5453488192,18.1909764899,10.8743947629
 N,0,13.3851601779,16.5721719978,10.7658592908
 C,0,13.6317982351,16.9909054322,12.1434303007
 C,0,12.7124993113,18.1784824087,12.5518806755
 O,0,12.1294119838,18.8652281813,11.7049677831
 C,0,15.1293596475,17.3864423569,12.2348736862
 C,0,15.7211000078,17.6820337516,13.627038607
 C,0,15.5862635865,16.4954076611,14.594718393
 C,0,17.2001115123,18.069266894,13.4650847157
 H,0,14.124500912,16.7600440391,10.0957127475
 H,0,13.4450040571,16.1459281906,12.8181017834
 H,0,15.2809638747,18.2581688542,11.5843366161
 H,0,15.6976502109,16.5552262762,11.7954474816
 H,0,15.2037668097,18.551432649,14.0553433363
 H,0,16.0682701665,15.6016509601,14.1800795102
 H,0,16.0695513517,16.7219834851,15.5501935929
 H,0,14.5453475234,16.2270246001,14.8214743415
 H,0,17.7801267551,17.235568567,13.0509223794
 H,0,17.318689824,18.9287920205,12.7960897478
 H,0,17.6390423966,18.3328101659,14.4326636268
 N,0,12.616040427,18.3478187406,13.8878288644
 C,0,12.2847810962,19.5792975569,14.6281241195
 C,0,11.9646804705,19.2479884091,16.0884668062
 O,0,11.4561357542,20.0375777542,16.8456609836
 C,0,11.236109524,20.5329123692,14.0205327857
 C,0,9.8049170966,20.0355389157,13.7667047999
 C,0,9.060771254,19.4126232065,14.9588353799
 N,0,9.4997497718,18.029541072,15.1180399932
 C,0,9.5368369381,17.3234950663,16.2919797961
 N,0,9.4257732006,17.6797990543,17.5127512962
 N,0,9.8781519051,15.9363665477,16.0220439716
 O,0,12.3708073552,18.0107130673,16.4697197307
 H,0,12.0369433615,17.885021333,17.3832498427
 H,0,13.1382588655,17.6894669202,14.4526086383
 H,0,13.2147050267,20.1683505147,14.6886531205
 H,0,11.641104469,20.9096092656,13.0789773609
 H,0,11.1981184846,21.375714204,14.7183359876
 H,0,9.2313354627,20.899611975,13.4107934868
 H,0,9.8103385677,19.3131183817,12.9400458548
 H,0,7.9770009189,19.4482687418,14.7825048481
 H,0,9.2641680384,19.9741871898,15.8724535148
 H,0,9.2692091729,17.4589815959,14.3082220538
 H,0,9.1429392005,18.6549907951,17.6122421244
 H,0,9.7602932067,15.4273244975,16.8989085199
 H,0,10.872486907,15.8983560824,15.7859815266
 Recover connectivity data from disk.
                           ----------------------------
                           !    Current Parameters    !
                           ! (Angstroms and Degrees)  !
 --------------------------                            --------------------------
 ! Name  Definition              Value                                          !
 --------------------------------------------------------------------------------
 ! R1    R(1,2)                  1.5113                                         !
 ! R2    R(1,11)                 1.0269                                         !
 ! R3    R(1,17)                 1.041                                          !
 ! R4    R(1,18)                 1.0394                                         !
 ! R5    R(2,3)                  1.5376                                         !
 ! R6    R(2,5)                  1.5354                                         !
 ! R7    R(2,12)                 1.0892                                         !
 ! R8    R(3,4)                  1.2244                                         !
 ! R9    R(3,19)                 1.3547                                         !
 ! R10   R(5,6)                  1.5549                                         !
 ! R11   R(5,13)                 1.0956                                         !
 ! R12   R(5,14)                 1.094                                          !
 ! R13   R(6,7)                  1.512                                          !
 ! R14   R(6,15)                 1.0943                                         !
 ! R15   R(6,16)                 1.0917                                         !
 ! R16   R(7,8)                  1.2419                                         !
 ! R17   R(7,9)                  1.305                                          !
 ! R18   R(9,10)                 1.0348                                         !
 ! R19   R(19,20)                1.4608                                         !
 ! R20   R(19,27)                1.0154                                         !
 ! R21   R(20,21)                1.5564                                         !
 ! R22   R(20,23)                1.5516                                         !
 ! R23   R(20,28)                1.0973                                         !
 ! R24   R(21,22)                1.2365                                         !
 ! R25   R(21,38)                1.3501                                         !
 ! R26   R(23,24)                1.5413                                         !
 ! R27   R(23,29)                1.0982                                         !
 ! R28   R(23,30)                1.0986                                         !
 ! R29   R(24,25)                1.5371                                         !
 ! R30   R(24,26)                1.5374                                         !
 ! R31   R(24,31)                1.0986                                         !
 ! R32   R(25,32)                1.0968                                         !
 ! R33   R(25,33)                1.0945                                         !
 ! R34   R(25,34)                1.0986                                         !
 ! R35   R(26,35)                1.0968                                         !
 ! R36   R(26,36)                1.0956                                         !
 ! R37   R(26,37)                1.0947                                         !
 ! R38   R(38,39)                1.4746                                         !
 ! R39   R(38,51)                1.0125                                         !
 ! R40   R(39,40)                1.5313                                         !
 ! R41   R(39,42)                1.5422                                         !
 ! R42   R(39,52)                1.1025                                         !
 ! R43   R(40,41)                1.2064                                         !
 ! R44   R(40,49)                1.3569                                         !
 ! R45   R(42,43)                1.5363                                         !
 ! R46   R(42,53)                1.092                                          !
 ! R47   R(42,54)                1.0948                                         !
 ! R48   R(43,44)                1.5372                                         !
 ! R49   R(43,55)                1.0965                                         !
 ! R50   R(43,56)                1.0979                                         !
 ! R51   R(44,45)                1.4598                                         !
 ! R52   R(44,57)                1.0986                                         !
 ! R53   R(44,58)                1.0915                                         !
 ! R54   R(45,46)                1.3704                                         !
 ! R55   R(45,59)                1.0171                                         !
 ! R56   R(46,47)                1.2765                                         !
 ! R57   R(46,48)                1.4538                                         !
 ! R58   R(47,60)                1.0202                                         !
 ! R59   R(48,61)                1.0207                                         !
 ! R60   R(48,62)                1.0227                                         !
 ! R61   R(49,50)                0.9807                                         !
 ! A1    A(2,1,11)             109.7288                                         !
 ! A2    A(2,1,17)             108.3243                                         !
 ! A3    A(2,1,18)             106.5728                                         !
 ! A4    A(11,1,17)            113.2315                                         !
 ! A5    A(11,1,18)            109.2157                                         !
 ! A6    A(17,1,18)            109.5498                                         !
 ! A7    A(1,2,3)              103.853                                          !
 ! A8    A(1,2,5)              112.9494                                         !
 ! A9    A(1,2,12)             104.7852                                         !
 ! A10   A(3,2,5)              110.8389                                         !
 ! A11   A(3,2,12)             113.805                                          !
 ! A12   A(5,2,12)             110.3663                                         !
 ! A13   A(2,3,4)              117.3116                                         !
 ! A14   A(2,3,19)             118.3275                                         !
 ! A15   A(4,3,19)             124.3607                                         !
 ! A16   A(2,5,6)              115.8817                                         !
 ! A17   A(2,5,13)             105.8505                                         !
 ! A18   A(2,5,14)             108.8767                                         !
 ! A19   A(6,5,13)             109.337                                          !
 ! A20   A(6,5,14)             109.61                                           !
 ! A21   A(13,5,14)            106.8738                                         !
 ! A22   A(5,6,7)              110.2876                                         !
 ! A23   A(5,6,15)             110.3698                                         !
 ! A24   A(5,6,16)             109.2338                                         !
 ! A25   A(7,6,15)             107.5672                                         !
 ! A26   A(7,6,16)             111.1189                                         !
 ! A27   A(15,6,16)            108.2318                                         !
 ! A28   A(6,7,8)              119.6617                                         !
 ! A29   A(6,7,9)              115.801                                          !
 ! A30   A(8,7,9)              124.2894                                         !
 ! A31   A(7,9,10)             112.2902                                         !
 ! A32   A(3,19,20)            127.5429                                         !
 ! A33   A(3,19,27)            112.34                                           !
 ! A34   A(20,19,27)           116.5142                                         !
 ! A35   A(19,20,21)           111.4992                                         !
 ! A36   A(19,20,23)           106.9543                                         !
 ! A37   A(19,20,28)           109.2899                                         !
 ! A38   A(21,20,23)           111.107                                          !
 ! A39   A(21,20,28)           109.0064                                         !
 ! A40   A(23,20,28)           108.9273                                         !
 ! A41   A(20,21,22)           121.506                                          !
 ! A42   A(20,21,38)           113.428                                          !
 ! A43   A(22,21,38)           125.0585                                         !
 ! A44   A(20,23,24)           118.2074                                         !
 ! A45   A(20,23,29)           107.498                                          !
 ! A46   A(20,23,30)           106.4281                                         !
 ! A47   A(24,23,29)           109.2572                                         !
 ! A48   A(24,23,30)           107.9256                                         !
 ! A49   A(29,23,30)           106.991                                          !
 ! A50   A(23,24,25)           112.7618                                         !
 ! A51   A(23,24,26)           108.8136                                         !
 ! A52   A(23,24,31)           108.8514                                         !
 ! A53   A(25,24,26)           110.191                                          !
 ! A54   A(25,24,31)           108.916                                          !
 ! A55   A(26,24,31)           107.1429                                         !
 ! A56   A(24,25,32)           110.6413                                         !
 ! A57   A(24,25,33)           110.5516                                         !
 ! A58   A(24,25,34)           113.6811                                         !
 ! A59   A(32,25,33)           107.738                                          !
 ! A60   A(32,25,34)           107.1777                                         !
 ! A61   A(33,25,34)           106.7842                                         !
 ! A62   A(24,26,35)           110.9195                                         !
 ! A63   A(24,26,36)           111.4713                                         !
 ! A64   A(24,26,37)           110.687                                          !
 ! A65   A(35,26,36)           107.9694                                         !
 ! A66   A(35,26,37)           107.7412                                         !
 ! A67   A(36,26,37)           107.9052                                         !
 ! A68   A(21,38,39)           128.1403                                         !
 ! A69   A(21,38,51)           115.6943                                         !
 ! A70   A(39,38,51)           112.2635                                         !
 ! A71   A(38,39,40)           110.1852                                         !
 ! A72   A(38,39,42)           118.1246                                         !
 ! A73   A(38,39,52)           106.5171                                         !
 ! A74   A(40,39,42)           111.5539                                         !
 ! A75   A(40,39,52)           103.8612                                         !
 ! A76   A(42,39,52)           105.3561                                         !
 ! A77   A(39,40,41)           123.03                                           !
 ! A78   A(39,40,49)           113.7458                                         !
 ! A79   A(41,40,49)           123.1354                                         !
 ! A80   A(39,42,43)           119.8935                                         !
 ! A81   A(39,42,53)           107.5072                                         !
 ! A82   A(39,42,54)           104.3886                                         !
 ! A83   A(43,42,53)           108.3446                                         !
 ! A84   A(43,42,54)           108.7962                                         !
 ! A85   A(53,42,54)           107.2696                                         !
 ! A86   A(42,43,44)           117.0034                                         !
 ! A87   A(42,43,55)           106.6084                                         !
 ! A88   A(42,43,56)           109.4418                                         !
 ! A89   A(44,43,55)           108.5318                                         !
 ! A90   A(44,43,56)           108.6442                                         !
 ! A91   A(55,43,56)           106.0648                                         !
 ! A92   A(43,44,45)           108.841                                          !
 ! A93   A(43,44,57)           109.873                                          !
 ! A94   A(43,44,58)           110.514                                          !
 ! A95   A(45,44,57)           110.1758                                         !
 ! A96   A(45,44,58)           109.8845                                         !
 ! A97   A(57,44,58)           107.5464                                         !
 ! A98   A(44,45,46)           126.1359                                         !
 ! A99   A(44,45,59)           112.1169                                         !
 ! A100  A(46,45,59)           113.5266                                         !
 ! A101  A(45,46,47)           132.303                                          !
 ! A102  A(45,46,48)           109.8088                                         !
 ! A103  A(47,46,48)           117.6656                                         !
 ! A104  A(46,47,60)           112.592                                          !
 ! A105  A(46,48,61)           106.8113                                         !
 ! A106  A(46,48,62)           107.854                                          !
 ! A107  A(61,48,62)           106.979                                          !
 ! A108  A(40,49,50)           106.0634                                         !
 ! D1    D(11,1,2,3)            56.9783                                         !
 ! D2    D(11,1,2,5)           -63.1748                                         !
 ! D3    D(11,1,2,12)          176.6507                                         !
 ! D4    D(17,1,2,3)          -178.9522                                         !
 ! D5    D(17,1,2,5)            60.8947                                         !
 ! D6    D(17,1,2,12)          -59.2798                                         !
 ! D7    D(18,1,2,3)           -61.1553                                         !
 ! D8    D(18,1,2,5)           178.6916                                         !
 ! D9    D(18,1,2,12)           58.5171                                         !
 ! D10   D(1,2,3,4)            -60.1188                                         !
 ! D11   D(1,2,3,19)           119.7627                                         !
 ! D12   D(5,2,3,4)             61.4537                                         !
 ! D13   D(5,2,3,19)          -118.6648                                         !
 ! D14   D(12,2,3,4)          -173.4517                                         !
 ! D15   D(12,2,3,19)            6.4298                                         !
 ! D16   D(1,2,5,6)            -52.7755                                         !
 ! D17   D(1,2,5,13)          -174.1306                                         !
 ! D18   D(1,2,5,14)            71.2892                                         !
 ! D19   D(3,2,5,6)           -168.8404                                         !
 ! D20   D(3,2,5,13)            69.8046                                         !
 ! D21   D(3,2,5,14)           -44.7757                                         !
 ! D22   D(12,2,5,6)            64.148                                          !
 ! D23   D(12,2,5,13)          -57.2071                                         !
 ! D24   D(12,2,5,14)         -171.7874                                         !
 ! D25   D(2,3,19,20)          -17.9021                                         !
 ! D26   D(2,3,19,27)         -175.4995                                         !
 ! D27   D(4,3,19,20)          161.9704                                         !
 ! D28   D(4,3,19,27)            4.3729                                         !
 ! D29   D(2,5,6,7)            -36.52                                           !
 ! D30   D(2,5,6,15)            82.1986                                         !
 ! D31   D(2,5,6,16)          -158.9195                                         !
 ! D32   D(13,5,6,7)            82.9512                                         !
 ! D33   D(13,5,6,15)         -158.3302                                         !
 ! D34   D(13,5,6,16)          -39.4483                                         !
 ! D35   D(14,5,6,7)          -160.2034                                         !
 ! D36   D(14,5,6,15)          -41.4848                                         !
 ! D37   D(14,5,6,16)           77.3971                                         !
 ! D38   D(5,6,7,8)             79.4704                                         !
 ! D39   D(5,6,7,9)            -95.0552                                         !
 ! D40   D(15,6,7,8)           -40.9463                                         !
 ! D41   D(15,6,7,9)           144.5281                                         !
 ! D42   D(16,6,7,8)          -159.2455                                         !
 ! D43   D(16,6,7,9)            26.2289                                         !
 ! D44   D(6,7,9,10)           168.0696                                         !
 ! D45   D(8,7,9,10)            -6.1717                                         !
 ! D46   D(3,19,20,21)         -45.7898                                         !
 ! D47   D(3,19,20,23)        -167.4385                                         !
 ! D48   D(3,19,20,28)          74.7881                                         !
 ! D49   D(27,19,20,21)        111.0103                                         !
 ! D50   D(27,19,20,23)        -10.6384                                         !
 ! D51   D(27,19,20,28)       -128.4118                                         !
 ! D52   D(19,20,21,22)        -17.1823                                         !
 ! D53   D(19,20,21,38)        161.8711                                         !
 ! D54   D(23,20,21,22)        102.0271                                         !
 ! D55   D(23,20,21,38)        -78.9195                                         !
 ! D56   D(28,20,21,22)       -137.9263                                         !
 ! D57   D(28,20,21,38)         41.1271                                         !
 ! D58   D(19,20,23,24)       -171.5286                                         !
 ! D59   D(19,20,23,29)         64.3114                                         !
 ! D60   D(19,20,23,30)        -50.044                                          !
 ! D61   D(21,20,23,24)         66.5759                                         !
 ! D62   D(21,20,23,29)        -57.5841                                         !
 ! D63   D(21,20,23,30)       -171.9395                                         !
 ! D64   D(28,20,23,24)        -53.5178                                         !
 ! D65   D(28,20,23,29)       -177.6778                                         !
 ! D66   D(28,20,23,30)         67.9668                                         !
 ! D67   D(20,21,38,39)        155.3994                                         !
 ! D68   D(20,21,38,51)         -0.4374                                         !
 ! D69   D(22,21,38,39)        -25.5866                                         !
 ! D70   D(22,21,38,51)        178.5766                                         !
 ! D71   D(20,23,24,25)         58.281                                          !
 ! D72   D(20,23,24,26)       -179.146                                          !
 ! D73   D(20,23,24,31)        -62.6993                                         !
 ! D74   D(29,23,24,25)       -178.4346                                         !
 ! D75   D(29,23,24,26)        -55.8617                                         !
 ! D76   D(29,23,24,31)         60.5851                                         !
 ! D77   D(30,23,24,25)        -62.4362                                         !
 ! D78   D(30,23,24,26)         60.1367                                         !
 ! D79   D(30,23,24,31)        176.5834                                         !
 ! D80   D(23,24,25,32)         57.3625                                         !
 ! D81   D(23,24,25,33)        176.6322                                         !
 ! D82   D(23,24,25,34)        -63.2897                                         !
 ! D83   D(26,24,25,32)        -64.4353                                         !
 ! D84   D(26,24,25,33)         54.8344                                         !
 ! D85   D(26,24,25,34)        174.9125                                         !
 ! D86   D(31,24,25,32)        178.306                                          !
 ! D87   D(31,24,25,33)        -62.4242                                         !
 ! D88   D(31,24,25,34)         57.6539                                         !
 ! D89   D(23,24,26,35)        -63.1779                                         !
 ! D90   D(23,24,26,36)         57.1709                                         !
 ! D91   D(23,24,26,37)        177.2811                                         !
 ! D92   D(25,24,26,35)         60.9326                                         !
 ! D93   D(25,24,26,36)       -178.7187                                         !
 ! D94   D(25,24,26,37)        -58.6085                                         !
 ! D95   D(31,24,26,35)        179.2856                                         !
 ! D96   D(31,24,26,36)        -60.3656                                         !
 ! D97   D(31,24,26,37)         59.7446                                         !
 ! D98   D(21,38,39,40)        166.6944                                         !
 ! D99   D(21,38,39,42)         36.8786                                         !
 ! D100  D(21,38,39,52)        -81.2658                                         !
 ! D101  D(51,38,39,40)        -36.7948                                         !
 ! D102  D(51,38,39,42)       -166.6106                                         !
 ! D103  D(51,38,39,52)         75.245                                          !
 ! D104  D(38,39,40,41)       -167.53                                           !
 ! D105  D(38,39,40,49)         15.8019                                         !
 ! D106  D(42,39,40,41)        -34.2778                                         !
 ! D107  D(42,39,40,49)        149.0541                                         !
 ! D108  D(52,39,40,41)         78.7225                                         !
 ! D109  D(52,39,40,49)        -97.9457                                         !
 ! D110  D(38,39,42,43)         60.2858                                         !
 ! D111  D(38,39,42,53)        -63.9084                                         !
 ! D112  D(38,39,42,54)       -177.63                                           !
 ! D113  D(40,39,42,43)        -68.8968                                         !
 ! D114  D(40,39,42,53)        166.9089                                         !
 ! D115  D(40,39,42,54)         53.1874                                         !
 ! D116  D(52,39,42,43)        179.0422                                         !
 ! D117  D(52,39,42,53)         54.8479                                         !
 ! D118  D(52,39,42,54)        -58.8736                                         !
 ! D119  D(39,40,49,50)       -174.6786                                         !
 ! D120  D(41,40,49,50)          8.6573                                         !
 ! D121  D(39,42,43,44)         54.0729                                         !
 ! D122  D(39,42,43,55)        175.6907                                         !
 ! D123  D(39,42,43,56)        -70.0092                                         !
 ! D124  D(53,42,43,44)        177.8654                                         !
 ! D125  D(53,42,43,55)        -60.5167                                         !
 ! D126  D(53,42,43,56)         53.7833                                         !
 ! D127  D(54,42,43,44)        -65.824                                          !
 ! D128  D(54,42,43,55)         55.7939                                         !
 ! D129  D(54,42,43,56)        170.0939                                         !
 ! D130  D(42,43,44,45)        -80.5772                                         !
 ! D131  D(42,43,44,57)        158.7026                                         !
 ! D132  D(42,43,44,58)         40.1791                                         !
 ! D133  D(55,43,44,45)        158.8141                                         !
 ! D134  D(55,43,44,57)         38.0939                                         !
 ! D135  D(55,43,44,58)        -80.4296                                         !
 ! D136  D(56,43,44,45)         43.9087                                         !
 ! D137  D(56,43,44,57)        -76.8115                                         !
 ! D138  D(56,43,44,58)        164.665                                          !
 ! D139  D(43,44,45,46)        151.1656                                         !
 ! D140  D(43,44,45,59)        -62.7088                                         !
 ! D141  D(57,44,45,46)        -88.3006                                         !
 ! D142  D(57,44,45,59)         57.825                                          !
 ! D143  D(58,44,45,46)         30.0231                                         !
 ! D144  D(58,44,45,59)        176.1487                                         !
 ! D145  D(44,45,46,47)        -12.4716                                         !
 ! D146  D(44,45,46,48)        173.2261                                         !
 ! D147  D(59,45,46,47)       -158.1959                                         !
 ! D148  D(59,45,46,48)         27.5018                                         !
 ! D149  D(45,46,47,60)          8.6977                                         !
 ! D150  D(48,46,47,60)       -177.3562                                         !
 ! D151  D(45,46,48,61)       -171.9257                                         !
 ! D152  D(45,46,48,62)         73.3778                                         !
 ! D153  D(47,46,48,61)         12.8298                                         !
 ! D154  D(47,46,48,62)       -101.8666                                         !
 --------------------------------------------------------------------------------
 Symmetry turned off by external request.
 Stoichiometry    C17H33N6O6(1+)
 Framework group  C1[X(C17H33N6O6)]
 Deg. of freedom   180
 Full point group                 C1      NOp   1
                          Input orientation:                          
 ---------------------------------------------------------------------
 Center     Atomic      Atomic             Coordinates (Angstroms)
 Number     Number       Type             X           Y           Z
 ---------------------------------------------------------------------
      1          7           0       10.035799   17.310919   10.659356
      2          6           0       10.949419   16.175223   11.058727
      3          6           0       12.187310   16.367622   10.167164
      4          8           0       12.018518   16.326900    8.955111
      5          6           0       10.321297   14.792929   10.830314
      6          6           0        8.918466   14.571869   11.463416
      7          6           0        8.828511   15.277052   12.797914
      8          8           0        8.620564   16.500888   12.833538
      9          8           0        9.090931   14.545065   13.845986
     10          1           0        9.208059   15.113720   14.702533
     11          1           0        9.848370   17.266726    9.650662
     12          1           0       11.142367   16.333392   12.118935
     13          1           0       11.027814   14.069770   11.252373
     14          1           0       10.273308   14.599326    9.754627
     15          1           0        8.139187   14.987239   10.817177
     16          1           0        8.737448   13.500685   11.571564
     17          1           0        9.173492   17.256912   11.239970
     18          1           0       10.545349   18.190976   10.874395
     19          7           0       13.385160   16.572172   10.765859
     20          6           0       13.631798   16.990905   12.143430
     21          6           0       12.712499   18.178482   12.551881
     22          8           0       12.129412   18.865228   11.704968
     23          6           0       15.129360   17.386442   12.234874
     24          6           0       15.721100   17.682034   13.627039
     25          6           0       15.586264   16.495408   14.594718
     26          6           0       17.200112   18.069267   13.465085
     27          1           0       14.124501   16.760044   10.095713
     28          1           0       13.445004   16.145928   12.818102
     29          1           0       15.280964   18.258169   11.584337
     30          1           0       15.697650   16.555226   11.795447
     31          1           0       15.203767   18.551433   14.055343
     32          1           0       16.068270   15.601651   14.180080
     33          1           0       16.069551   16.721983   15.550194
     34          1           0       14.545348   16.227025   14.821474
     35          1           0       17.780127   17.235569   13.050922
     36          1           0       17.318690   18.928792   12.796090
     37          1           0       17.639042   18.332810   14.432664
     38          7           0       12.616040   18.347819   13.887829
     39          6           0       12.284781   19.579298   14.628124
     40          6           0       11.964680   19.247988   16.088467
     41          8           0       11.456136   20.037578   16.845661
     42          6           0       11.236110   20.532912   14.020533
     43          6           0        9.804917   20.035539   13.766705
     44          6           0        9.060771   19.412623   14.958835
     45          7           0        9.499750   18.029541   15.118040
     46          6           0        9.536837   17.323495   16.291980
     47          7           0        9.425773   17.679799   17.512751
     48          7           0        9.878152   15.936367   16.022044
     49          8           0       12.370807   18.010713   16.469720
     50          1           0       12.036943   17.885021   17.383250
     51          1           0       13.138259   17.689467   14.452609
     52          1           0       13.214705   20.168351   14.688653
     53          1           0       11.641104   20.909609   13.078977
     54          1           0       11.198118   21.375714   14.718336
     55          1           0        9.231335   20.899612   13.410793
     56          1           0        9.810339   19.313118   12.940046
     57          1           0        7.977001   19.448269   14.782505
     58          1           0        9.264168   19.974187   15.872454
     59          1           0        9.269209   17.458982   14.308222
     60          1           0        9.142939   18.654991   17.612242
     61          1           0        9.760293   15.427324   16.898909
     62          1           0       10.872487   15.898356   15.785982
 ---------------------------------------------------------------------
 Rotational constants (GHZ):           0.1712304           0.1604101           0.1081563
 Standard basis: 6-31G(d) (6D, 7F)
   501 basis functions,   944 primitive gaussians,   501 cartesian basis functions
   112 alpha electrons      112 beta electrons
       nuclear repulsion energy      3314.2506663681 Hartrees.
 NAtoms=   62 NActive=   62 NUniq=   62 SFac= 1.00D+00 NAtFMM=   60 NAOKFM=T Big=T
 Integral buffers will be    131072 words long.
 Raffenetti 2 integral format.
 Two-electron integral symmetry is turned off.
 Nuclear repulsion after empirical dispersion term =     3314.1577550653 Hartrees.
 One-electron integrals computed using PRISM.
 NBasis=   501 RedAO= T EigKep=  1.63D-03  NBF=   501
 NBsUse=   501 1.00D-06 EigRej= -1.00D+00 NBFU=   501
 Initial guess from the checkpoint file:  "conf-883.chk"
 B after Tr=     0.000000    0.000000    0.000000
         Rot=    1.000000    0.000000    0.000000    0.000000 Ang=   0.00 deg.
 Requested convergence on RMS density matrix=1.00D-08 within 128 cycles.
 Requested convergence on MAX density matrix=1.00D-06.
 Requested convergence on             energy=1.00D-06.
 No special actions if energy rises.
 SCF Done:  E(RB3LYP) =  -1447.48678287     A.U. after    1 cycles
            NFock=  1  Conv=0.51D-08     -V/T= 2.0093

 **********************************************************************

            Population analysis using the SCF Density.

 **********************************************************************

 Alpha  occ. eigenvalues --  -19.31622 -19.31173 -19.28124 -19.26366 -19.25468
 Alpha  occ. eigenvalues --  -19.25404 -14.58347 -14.50258 -14.49849 -14.47049
 Alpha  occ. eigenvalues --  -14.45113 -14.39554 -10.45998 -10.43924 -10.43365
 Alpha  occ. eigenvalues --  -10.43113 -10.40218 -10.38899 -10.37822 -10.36896
 Alpha  occ. eigenvalues --  -10.34676 -10.33647 -10.32076 -10.31862 -10.30972
 Alpha  occ. eigenvalues --  -10.30014 -10.29668 -10.28865 -10.27433  -1.23365
 Alpha  occ. eigenvalues --   -1.22327  -1.18524  -1.17418  -1.14731  -1.13381
 Alpha  occ. eigenvalues --   -1.12877  -1.08453  -1.06801  -1.06483  -0.99936
 Alpha  occ. eigenvalues --   -0.95339  -0.94931  -0.93614  -0.91350  -0.88200
 Alpha  occ. eigenvalues --   -0.87370  -0.85504  -0.80010  -0.79503  -0.79376
 Alpha  occ. eigenvalues --   -0.77460  -0.74471  -0.74069  -0.73601  -0.72747
 Alpha  occ. eigenvalues --   -0.71661  -0.70591  -0.68810  -0.68600  -0.67726
 Alpha  occ. eigenvalues --   -0.66414  -0.65371  -0.64370  -0.63512  -0.63112
 Alpha  occ. eigenvalues --   -0.62746  -0.62433  -0.61318  -0.60524  -0.60030
 Alpha  occ. eigenvalues --   -0.59708  -0.59044  -0.58683  -0.58029  -0.57335
 Alpha  occ. eigenvalues --   -0.56580  -0.55850  -0.55433  -0.54831  -0.54537
 Alpha  occ. eigenvalues --   -0.54145  -0.53968  -0.53820  -0.52716  -0.51721
 Alpha  occ. eigenvalues --   -0.51365  -0.50923  -0.50613  -0.49938  -0.49926
 Alpha  occ. eigenvalues --   -0.49755  -0.49490  -0.48897  -0.47769  -0.47624
 Alpha  occ. eigenvalues --   -0.45998  -0.45363  -0.45236  -0.44736  -0.44638
 Alpha  occ. eigenvalues --   -0.44255  -0.44134  -0.43223  -0.42010  -0.40560
 Alpha  occ. eigenvalues --   -0.40369  -0.39866  -0.39743  -0.38948  -0.37798
 Alpha  occ. eigenvalues --   -0.36787  -0.33586
 Alpha virt. eigenvalues --   -0.13587  -0.13305  -0.12598  -0.10864  -0.08506
 Alpha virt. eigenvalues --   -0.07507  -0.05740  -0.03967  -0.02839  -0.02676
 Alpha virt. eigenvalues --   -0.02186  -0.00955  -0.00770  -0.00506  -0.00159
 Alpha virt. eigenvalues --    0.00505   0.01179   0.01711   0.01941   0.02093
 Alpha virt. eigenvalues --    0.02657   0.03130   0.03510   0.04174   0.04381
 Alpha virt. eigenvalues --    0.04813   0.04894   0.05277   0.05600   0.06137
 Alpha virt. eigenvalues --    0.06569   0.06666   0.07195   0.07451   0.07640
 Alpha virt. eigenvalues --    0.08341   0.08806   0.09019   0.09730   0.09955
 Alpha virt. eigenvalues --    0.10053   0.10766   0.11071   0.11428   0.11665
 Alpha virt. eigenvalues --    0.11969   0.12630   0.13217   0.13791   0.14386
 Alpha virt. eigenvalues --    0.14865   0.15449   0.15657   0.16768   0.17845
 Alpha virt. eigenvalues --    0.19221   0.19802   0.20583   0.22439   0.23867
 Alpha virt. eigenvalues --    0.24682   0.26655   0.28483   0.29171   0.29733
 Alpha virt. eigenvalues --    0.34837   0.35880   0.36459   0.37058   0.37965
 Alpha virt. eigenvalues --    0.38914   0.39981   0.40275   0.41088   0.41241
 Alpha virt. eigenvalues --    0.41543   0.42532   0.42974   0.43570   0.44047
 Alpha virt. eigenvalues --    0.44639   0.45179   0.45818   0.46739   0.47615
 Alpha virt. eigenvalues --    0.47936   0.48583   0.49399   0.49717   0.49827
 Alpha virt. eigenvalues --    0.50539   0.50760   0.52077   0.52194   0.52806
 Alpha virt. eigenvalues --    0.53459   0.53899   0.54222   0.55079   0.55425
 Alpha virt. eigenvalues --    0.56697   0.57311   0.57553   0.58212   0.59312
 Alpha virt. eigenvalues --    0.60028   0.61280   0.61685   0.61910   0.62142
 Alpha virt. eigenvalues --    0.63009   0.63548   0.64426   0.64578   0.65142
 Alpha virt. eigenvalues --    0.65999   0.66331   0.67652   0.67969   0.68724
 Alpha virt. eigenvalues --    0.68943   0.69102   0.69696   0.70651   0.71244
 Alpha virt. eigenvalues --    0.72027   0.72165   0.73077   0.73871   0.73929
 Alpha virt. eigenvalues --    0.74620   0.74948   0.75580   0.76423   0.76748
 Alpha virt. eigenvalues --    0.77208   0.78243   0.78377   0.78879   0.79666
 Alpha virt. eigenvalues --    0.79928   0.80204   0.80372   0.80825   0.81332
 Alpha virt. eigenvalues --    0.81524   0.81933   0.82163   0.82544   0.82999
 Alpha virt. eigenvalues --    0.83705   0.84024   0.84736   0.85619   0.85764
 Alpha virt. eigenvalues --    0.86755   0.87098   0.88135   0.88267   0.88654
 Alpha virt. eigenvalues --    0.90192   0.91016   0.91734   0.92204   0.92919
 Alpha virt. eigenvalues --    0.93518   0.94089   0.94219   0.95287   0.95636
 Alpha virt. eigenvalues --    0.96521   0.97981   0.98989   0.99616   0.99980
 Alpha virt. eigenvalues --    1.01157   1.02060   1.02429   1.03183   1.04251
 Alpha virt. eigenvalues --    1.05397   1.06448   1.07812   1.08938   1.10541
 Alpha virt. eigenvalues --    1.11412   1.13458   1.14408   1.15398   1.15886
 Alpha virt. eigenvalues --    1.17096   1.19018   1.20169   1.20787   1.22593
 Alpha virt. eigenvalues --    1.23882   1.25743   1.26329   1.27074   1.27992
 Alpha virt. eigenvalues --    1.28839   1.29473   1.29977   1.31751   1.32647
 Alpha virt. eigenvalues --    1.33690   1.34362   1.36169   1.36269   1.36680
 Alpha virt. eigenvalues --    1.38757   1.40087   1.41513   1.43451   1.45174
 Alpha virt. eigenvalues --    1.46048   1.47211   1.48257   1.49595   1.50336
 Alpha virt. eigenvalues --    1.52744   1.53343   1.54040   1.54253   1.54973
 Alpha virt. eigenvalues --    1.56837   1.57319   1.57444   1.60091   1.60791
 Alpha virt. eigenvalues --    1.61554   1.62918   1.63221   1.63736   1.64246
 Alpha virt. eigenvalues --    1.64996   1.65680   1.66838   1.67579   1.67857
 Alpha virt. eigenvalues --    1.68275   1.69358   1.70096   1.70434   1.70900
 Alpha virt. eigenvalues --    1.71404   1.72367   1.72880   1.73313   1.74376
 Alpha virt. eigenvalues --    1.74756   1.75644   1.76275   1.76540   1.78094
 Alpha virt. eigenvalues --    1.78523   1.79436   1.80776   1.81462   1.81907
 Alpha virt. eigenvalues --    1.82495   1.83701   1.84737   1.85288   1.85838
 Alpha virt. eigenvalues --    1.86689   1.87476   1.88155   1.89865   1.90390
 Alpha virt. eigenvalues --    1.91544   1.91708   1.92466   1.93008   1.94324
 Alpha virt. eigenvalues --    1.94699   1.95664   1.96050   1.97145   1.98093
 Alpha virt. eigenvalues --    1.99852   2.00683   2.00885   2.02232   2.03053
 Alpha virt. eigenvalues --    2.03397   2.04709   2.05206   2.07065   2.09282
 Alpha virt. eigenvalues --    2.09808   2.11475   2.13194   2.13570   2.14313
 Alpha virt. eigenvalues --    2.15117   2.15534   2.15876   2.18411   2.18713
 Alpha virt. eigenvalues --    2.19504   2.20813   2.21927   2.23751   2.24697
 Alpha virt. eigenvalues --    2.25888   2.26328   2.27335   2.28385   2.28801
 Alpha virt. eigenvalues --    2.29512   2.29975   2.31093   2.31264   2.32663
 Alpha virt. eigenvalues --    2.34447   2.36499   2.36669   2.37784   2.39172
 Alpha virt. eigenvalues --    2.41115   2.42060   2.42428   2.43711   2.49523
 Alpha virt. eigenvalues --    2.50090   2.50815   2.51176   2.51851   2.53018
 Alpha virt. eigenvalues --    2.53435   2.54916   2.55307   2.55836   2.56646
 Alpha virt. eigenvalues --    2.58324   2.60629   2.61890   2.62073   2.63063
 Alpha virt. eigenvalues --    2.63986   2.65429   2.66170   2.66483   2.68516
 Alpha virt. eigenvalues --    2.71981   2.74696   2.76519   2.80086   2.84715
 Alpha virt. eigenvalues --    2.86233   2.87213   2.88697   2.90503   2.93911
 Alpha virt. eigenvalues --    2.94598   2.99898   3.00763   3.02002   3.08055
 Alpha virt. eigenvalues --    3.70053   3.76422   3.79654   3.83153   3.89054
 Alpha virt. eigenvalues --    3.89600   3.94798   4.00064   4.01839   4.04296
 Alpha virt. eigenvalues --    4.08016   4.11008   4.12760   4.16194   4.17998
 Alpha virt. eigenvalues --    4.19678   4.20689   4.21873   4.24910   4.26410
 Alpha virt. eigenvalues --    4.28824   4.35926   4.40697   4.41311   4.46321
 Alpha virt. eigenvalues --    4.49695   4.54324   4.57042   4.61797
          Condensed to atoms (all electrons):
 Mulliken charges:
               1
     1  N   -0.771679
     2  C   -0.123568
     3  C    0.627325
     4  O   -0.497033
     5  C   -0.299790
     6  C   -0.360280
     7  C    0.602340
     8  O   -0.535472
     9  O   -0.558014
    10  H    0.473035
    11  H    0.410881
    12  H    0.192668
    13  H    0.199867
    14  H    0.214140
    15  H    0.188317
    16  H    0.217002
    17  H    0.431593
    18  H    0.449204
    19  N   -0.599651
    20  C   -0.054236
    21  C    0.619047
    22  O   -0.560980
    23  C   -0.304755
    24  C   -0.102807
    25  C   -0.462220
    26  C   -0.449153
    27  H    0.363988
    28  H    0.170409
    29  H    0.173009
    30  H    0.172923
    31  H    0.132879
    32  H    0.166095
    33  H    0.179125
    34  H    0.124365
    35  H    0.159838
    36  H    0.159933
    37  H    0.168201
    38  N   -0.617386
    39  C   -0.055332
    40  C    0.643625
    41  O   -0.449144
    42  C   -0.276557
    43  C   -0.268416
    44  C   -0.159619
    45  N   -0.640889
    46  C    0.554840
    47  N   -0.622319
    48  N   -0.828350
    49  O   -0.614903
    50  H    0.441182
    51  H    0.374229
    52  H    0.207163
    53  H    0.179881
    54  H    0.187866
    55  H    0.167616
    56  H    0.107107
    57  H    0.168240
    58  H    0.192252
    59  H    0.378000
    60  H    0.309218
    61  H    0.365675
    62  H    0.339476
 Sum of Mulliken charges =   1.00000
 Mulliken charges with hydrogens summed into heavy atoms:
               1
     1  N    0.519999
     2  C    0.069099
     3  C    0.627325
     4  O   -0.497033
     5  C    0.114218
     6  C    0.045039
     7  C    0.602340
     8  O   -0.535472
     9  O   -0.084978
    19  N   -0.235663
    20  C    0.116173
    21  C    0.619047
    22  O   -0.560980
    23  C    0.041177
    24  C    0.030072
    25  C    0.007365
    26  C    0.038818
    38  N   -0.243157
    39  C    0.151831
    40  C    0.643625
    41  O   -0.449144
    42  C    0.091190
    43  C    0.006307
    44  C    0.200873
    45  N   -0.262889
    46  C    0.554840
    47  N   -0.313101
    48  N   -0.123199
    49  O   -0.173722
 Electronic spatial extent (au):  <R**2>=         506604.7468
 Charge=              1.0000 electrons
 Dipole moment (field-independent basis, Debye):
    X=             56.0731    Y=             81.0445    Z=             60.5336  Tot=            115.6578
 Quadrupole moment (field-independent basis, Debye-Ang):
   XX=            522.1477   YY=           1212.3536   ZZ=            597.8312
   XY=            949.6623   XZ=            722.7108   YZ=           1021.4833
 Traceless Quadrupole moment (field-independent basis, Debye-Ang):
   XX=           -255.2964   YY=            434.9094   ZZ=           -179.6130
   XY=            949.6623   XZ=            722.7108   YZ=           1021.4833
 Octapole moment (field-independent basis, Debye-Ang**2):
  XXX=           3081.3189  YYY=          14934.1097  ZZZ=           2949.9734  XYY=          14251.6479
  XXY=           8813.4413  XXZ=           6792.3548  XZZ=           7393.7613  YZZ=           9965.6503
  YYZ=          15140.6120  XYZ=          12235.0855
 Hexadecapole moment (field-independent basis, Debye-Ang**3):
 XXXX=         -20894.7544 YYYY=         101705.9401 ZZZZ=         -63602.9641 XXXY=          50392.1982
 XXXZ=          40087.2250 YYYX=         175984.5483 YYYZ=         180118.8454 ZZZX=          43038.6123
 ZZZY=          43881.5430 XXYY=         125724.0574 XXZZ=          64212.9244 YYZZ=         136367.0832
 XXYZ=         114285.2565 YYXZ=         182487.1718 ZZXY=         123685.9374
 N-N= 3.314157755065D+03 E-N=-9.975084901879D+03  KE= 1.434096086112D+03
 Unable to Open any file for archive entry.
 1\1\GINC-SKL-141\SP\RB3LYP\6-31G(d)\C17H33N6O6(1+)\KENGMITH\24-May-202
 2\0\\# B3LYP/6-31G* empiricaldispersion=gd3 guess=read geom=check nosy
 mm integral(ultrafinegrid)\\Candidate Structure: Conf:883 Charge calc 
 in gas phase\\1,1\N,0,10.0357987406,17.310918574,10.6593556071\C,0,10.
 9494186923,16.1752229575,11.0587265354\C,0,12.1873095741,16.367621714,
 10.167164058\O,0,12.0185180437,16.3268998235,8.9551108933\C,0,10.32129
 66844,14.7929287594,10.8303137053\C,0,8.9184659655,14.571868902,11.463
 416462\C,0,8.8285114704,15.2770515016,12.7979144397\O,0,8.6205644406,1
 6.5008877882,12.8335380234\O,0,9.0909306293,14.5450646285,13.845986070
 7\H,0,9.208058684,15.1137198553,14.7025333432\H,0,9.8483704386,17.2667
 261908,9.6506622124\H,0,11.1423674711,16.3333923222,12.1189348233\H,0,
 11.0278143887,14.0697699601,11.2523728152\H,0,10.2733084219,14.5993262
 731,9.7546271209\H,0,8.1391866449,14.987239466,10.8171771089\H,0,8.737
 4483411,13.5006852951,11.5715638053\H,0,9.1734923204,17.2569122408,11.
 2399696509\H,0,10.5453488192,18.1909764899,10.8743947629\N,0,13.385160
 1779,16.5721719978,10.7658592908\C,0,13.6317982351,16.9909054322,12.14
 34303007\C,0,12.7124993113,18.1784824087,12.5518806755\O,0,12.12941198
 38,18.8652281813,11.7049677831\C,0,15.1293596475,17.3864423569,12.2348
 736862\C,0,15.7211000078,17.6820337516,13.627038607\C,0,15.5862635865,
 16.4954076611,14.594718393\C,0,17.2001115123,18.069266894,13.465084715
 7\H,0,14.124500912,16.7600440391,10.0957127475\H,0,13.4450040571,16.14
 59281906,12.8181017834\H,0,15.2809638747,18.2581688542,11.5843366161\H
 ,0,15.6976502109,16.5552262762,11.7954474816\H,0,15.2037668097,18.5514
 32649,14.0553433363\H,0,16.0682701665,15.6016509601,14.1800795102\H,0,
 16.0695513517,16.7219834851,15.5501935929\H,0,14.5453475234,16.2270246
 001,14.8214743415\H,0,17.7801267551,17.235568567,13.0509223794\H,0,17.
 318689824,18.9287920205,12.7960897478\H,0,17.6390423966,18.3328101659,
 14.4326636268\N,0,12.616040427,18.3478187406,13.8878288644\C,0,12.2847
 810962,19.5792975569,14.6281241195\C,0,11.9646804705,19.2479884091,16.
 0884668062\O,0,11.4561357542,20.0375777542,16.8456609836\C,0,11.236109
 524,20.5329123692,14.0205327857\C,0,9.8049170966,20.0355389157,13.7667
 047999\C,0,9.060771254,19.4126232065,14.9588353799\N,0,9.4997497718,18
 .029541072,15.1180399932\C,0,9.5368369381,17.3234950663,16.2919797961\
 N,0,9.4257732006,17.6797990543,17.5127512962\N,0,9.8781519051,15.93636
 65477,16.0220439716\O,0,12.3708073552,18.0107130673,16.4697197307\H,0,
 12.0369433615,17.885021333,17.3832498427\H,0,13.1382588655,17.68946692
 02,14.4526086383\H,0,13.2147050267,20.1683505147,14.6886531205\H,0,11.
 641104469,20.9096092656,13.0789773609\H,0,11.1981184846,21.375714204,1
 4.7183359876\H,0,9.2313354627,20.899611975,13.4107934868\H,0,9.8103385
 677,19.3131183817,12.9400458548\H,0,7.9770009189,19.4482687418,14.7825
 048481\H,0,9.2641680384,19.9741871898,15.8724535148\H,0,9.2692091729,1
 7.4589815959,14.3082220538\H,0,9.1429392005,18.6549907951,17.612242124
 4\H,0,9.7602932067,15.4273244975,16.8989085199\H,0,10.872486907,15.898
 3560824,15.7859815266\\Version=ES64L-G16RevC.01\HF=-1447.4867829\RMSD=
 5.089e-09\Dipole=0.1598025,-1.0872757,-1.5841034\Quadrupole=-189.80663
 61,323.3444872,-133.5378511,706.050679,537.3177397,759.4477667\PG=C01 
 [X(C17H33N6O6)]\\@
 The archive entry for this job was punched.


 We're simply so accustomed to the marvels of everyday thought
 that we never wonder about it.
 -- Marvin Minsky in "Why people think computers are smart"
 Job cpu time:       0 days  0 hours  1 minutes 11.8 seconds.
 Elapsed time:       0 days  0 hours  0 minutes 18.5 seconds.
 File lengths (MBytes):  RWF=    248 Int=      0 D2E=      0 Chk=     32 Scr=     16
 Normal termination of Gaussian 16 at Tue May 24 03:33:57 2022.
