 Entering Gaussian System, Link 0=/opt/software/Gaussian/g16-AVX2-C.01/g16/g16
 Input=charge-conf-879.com
 Output=charge-conf-879.log
 Initial command:
 /opt/software/Gaussian/g16-AVX2-C.01/g16/l1.exe "/mnt/gs18/scratch/users/kengmith/Gau-48906.inp" -scrdir="/mnt/gs18/scratch/users/kengmith/"
 Entering Link 1 = /opt/software/Gaussian/g16-AVX2-C.01/g16/l1.exe PID=     48929.
  
 Copyright (c) 1988-2019, Gaussian, Inc.  All Rights Reserved.
  
 This is part of the Gaussian(R) 16 program.  It is based on
 the Gaussian(R) 09 system (copyright 2009, Gaussian, Inc.),
 the Gaussian(R) 03 system (copyright 2003, Gaussian, Inc.),
 the Gaussian(R) 98 system (copyright 1998, Gaussian, Inc.),
 the Gaussian(R) 94 system (copyright 1995, Gaussian, Inc.),
 the Gaussian 92(TM) system (copyright 1992, Gaussian, Inc.),
 the Gaussian 90(TM) system (copyright 1990, Gaussian, Inc.),
 the Gaussian 88(TM) system (copyright 1988, Gaussian, Inc.),
 the Gaussian 86(TM) system (copyright 1986, Carnegie Mellon
 University), and the Gaussian 82(TM) system (copyright 1983,
 Carnegie Mellon University). Gaussian is a federally registered
 trademark of Gaussian, Inc.
  
 This software contains proprietary and confidential information,
 including trade secrets, belonging to Gaussian, Inc.
  
 This software is provided under written license and may be
 used, copied, transmitted, or stored only in accord with that
 written license.
  
 The following legend is applicable only to US Government
 contracts under FAR:
  
                    RESTRICTED RIGHTS LEGEND
  
 Use, reproduction and disclosure by the US Government is
 subject to restrictions as set forth in subparagraphs (a)
 and (c) of the Commercial Computer Software - Restricted
 Rights clause in FAR 52.227-19.
  
 Gaussian, Inc.
 340 Quinnipiac St., Bldg. 40, Wallingford CT 06492
  
  
 ---------------------------------------------------------------
 Warning -- This program may not be used in any manner that
 competes with the business of Gaussian, Inc. or will provide
 assistance to any competitor of Gaussian, Inc.  The licensee
 of this program is prohibited from giving any competitor of
 Gaussian, Inc. access to this program.  By using this program,
 the user acknowledges that Gaussian, Inc. is engaged in the
 business of creating and licensing software in the field of
 computational chemistry and represents and warrants to the
 licensee that it is not a competitor of Gaussian, Inc. and that
 it will not use this program in any manner prohibited above.
 ---------------------------------------------------------------
  

 Cite this work as:
 Gaussian 16, Revision C.01,
 M. J. Frisch, G. W. Trucks, H. B. Schlegel, G. E. Scuseria, 
 M. A. Robb, J. R. Cheeseman, G. Scalmani, V. Barone, 
 G. A. Petersson, H. Nakatsuji, X. Li, M. Caricato, A. V. Marenich, 
 J. Bloino, B. G. Janesko, R. Gomperts, B. Mennucci, H. P. Hratchian, 
 J. V. Ortiz, A. F. Izmaylov, J. L. Sonnenberg, D. Williams-Young, 
 F. Ding, F. Lipparini, F. Egidi, J. Goings, B. Peng, A. Petrone, 
 T. Henderson, D. Ranasinghe, V. G. Zakrzewski, J. Gao, N. Rega, 
 G. Zheng, W. Liang, M. Hada, M. Ehara, K. Toyota, R. Fukuda, 
 J. Hasegawa, M. Ishida, T. Nakajima, Y. Honda, O. Kitao, H. Nakai, 
 T. Vreven, K. Throssell, J. A. Montgomery, Jr., J. E. Peralta, 
 F. Ogliaro, M. J. Bearpark, J. J. Heyd, E. N. Brothers, K. N. Kudin, 
 V. N. Staroverov, T. A. Keith, R. Kobayashi, J. Normand, 
 K. Raghavachari, A. P. Rendell, J. C. Burant, S. S. Iyengar, 
 J. Tomasi, M. Cossi, J. M. Millam, M. Klene, C. Adamo, R. Cammi, 
 J. W. Ochterski, R. L. Martin, K. Morokuma, O. Farkas, 
 J. B. Foresman, and D. J. Fox, Gaussian, Inc., Wallingford CT, 2019.
 
 ******************************************
 Gaussian 16:  ES64L-G16RevC.01  3-Jul-2019
                24-May-2022 
 ******************************************
 %mem=8gb
 %nproc=4
 Will use up to    4 processors via shared memory.
 %chk=conf-879.chk
 ----------------------------------------------------------------------
 # B3LYP/6-31G* empiricaldispersion=gd3 guess=read geom=check nosymm in
 tegral(ultrafinegrid)
 ----------------------------------------------------------------------
 1/29=2,38=1,172=1/1;
 2/12=2,15=1,40=1/2;
 3/5=1,6=6,7=1,11=2,14=-4,25=1,30=1,74=-5,75=-5,116=-2,124=31/1,2,3;
 4/5=1/1;
 5/5=2,38=6/2;
 6/7=2,8=2,9=2,10=2,28=1/1;
 99/5=1,9=1/99;
 ------------------------------------------------------
 Candidate Structure: Conf:879 Charge calc in gas phase
 ------------------------------------------------------
 Structure from the checkpoint file:  "conf-879.chk"
 Charge =  1 Multiplicity = 1
 Redundant internal coordinates found in file.  (old form).
 N,0,8.8880280423,17.0924475571,12.0998125054
 C,0,10.137396197,16.8968417166,11.2828542502
 C,0,10.1765429726,18.0934939514,10.3240598896
 O,0,9.2542296929,18.2218414892,9.529877472
 C,0,10.1070779665,15.5551905886,10.5352613189
 C,0,9.6395648627,14.3408623597,11.3792263922
 C,0,10.1967534532,14.33075126,12.8086948792
 O,0,9.6719611266,15.2006547909,13.6157514282
 O,0,11.1076384833,13.5480808826,13.1170448491
 H,0,8.0640668757,17.0850324113,11.4911162145
 H,0,10.9453947473,16.885567543,12.013201598
 H,0,11.1250252693,15.3802162983,10.1691461217
 H,0,9.4646457406,15.6603021564,9.655314523
 H,0,8.5449071237,14.339534302,11.4454125794
 H,0,9.9395745071,13.4231738999,10.8699827816
 H,0,8.9273333646,16.2831471973,12.838394968
 H,0,8.9499344603,18.0016696369,12.5777914533
 N,0,11.1984282367,18.9874880253,10.416879912
 C,0,12.2405386939,19.1054921008,11.427501131
 C,0,11.6613132618,19.012570139,12.8637577117
 O,0,10.4870312591,19.2567997071,13.1126038024
 C,0,12.9342254997,20.4767255013,11.2081234321
 C,0,14.1821798243,20.8016274052,12.0516872168
 C,0,15.3259957863,19.798057014,11.8303835506
 C,0,14.6561344485,22.2247874246,11.7153710557
 H,0,11.0779104963,19.7763211981,9.7901994258
 H,0,12.9755037723,18.3013623712,11.2925042187
 H,0,12.1758673618,21.2542614414,11.3676460101
 H,0,13.220258378,20.5176080021,10.1482587014
 H,0,13.9018208318,20.7991998054,13.1153852664
 H,0,15.6210558921,19.7781510502,10.7744546465
 H,0,16.2065461618,20.0787053934,12.4168072042
 H,0,15.071113491,18.7645245388,12.105809201
 H,0,14.9551441641,22.2978355052,10.6627341969
 H,0,13.866437622,22.9625811807,11.8945924292
 H,0,15.5207045613,22.5004431149,12.3277006892
 N,0,12.5867167968,18.5896528204,13.7884580218
 C,0,12.5503342048,18.7474722843,15.2603453343
 C,0,13.2857867696,17.5798412135,15.9378695556
 O,0,13.4450417127,17.5624858743,17.138432523
 C,0,11.1809656729,18.9965535748,15.9279892497
 C,0,10.1092297154,17.8940455583,15.9106146547
 C,0,10.3762693216,16.6317422071,16.7522093288
 N,0,11.0846895945,15.6179138596,15.9590423189
 C,0,11.8913736328,14.6609162863,16.4386787956
 N,0,12.5038626708,14.8120785915,17.6380835643
 N,0,12.0645539803,13.5487842887,15.7222976591
 O,0,13.7768486558,16.6023882505,15.1554629297
 H,0,13.3446539009,16.6503360378,14.281641449
 H,0,13.5376125167,18.6162322851,13.4332653465
 H,0,13.1628112839,19.6269598207,15.5036663775
 H,0,10.7582915032,19.8977808349,15.4802428779
 H,0,11.4248494369,19.2375928966,16.9683547139
 H,0,9.1947164091,18.3565607879,16.2991404984
 H,0,9.8844831946,17.6004029381,14.8813750372
 H,0,9.4198825197,16.2058530295,17.0804714855
 H,0,10.9453648056,16.879104727,17.6496539239
 H,0,10.5943301014,15.3854934693,15.0732274176
 H,0,12.8076509218,15.7529688963,17.8785886141
 H,0,13.1540660556,14.0895247711,17.917323327
 H,0,12.8467102782,12.9427359064,15.9266355587
 H,0,11.6337582056,13.4650679502,14.7778236713
 Recover connectivity data from disk.
                           ----------------------------
                           !    Current Parameters    !
                           ! (Angstroms and Degrees)  !
 --------------------------                            --------------------------
 ! Name  Definition              Value                                          !
 --------------------------------------------------------------------------------
 ! R1    R(1,2)                  1.5055                                         !
 ! R2    R(1,10)                 1.0244                                         !
 ! R3    R(1,16)                 1.0964                                         !
 ! R4    R(1,17)                 1.0291                                         !
 ! R5    R(2,3)                  1.5339                                         !
 ! R6    R(2,5)                  1.5362                                         !
 ! R7    R(2,11)                 1.0892                                         !
 ! R8    R(3,4)                  1.2239                                         !
 ! R9    R(3,18)                 1.3609                                         !
 ! R10   R(5,6)                  1.5509                                         !
 ! R11   R(5,12)                 1.0958                                         !
 ! R12   R(5,13)                 1.0946                                         !
 ! R13   R(6,7)                  1.5343                                         !
 ! R14   R(6,14)                 1.0967                                         !
 ! R15   R(6,15)                 1.0916                                         !
 ! R16   R(7,8)                  1.2975                                         !
 ! R17   R(7,9)                  1.2399                                         !
 ! R18   R(18,19)                1.4565                                         !
 ! R19   R(18,26)                1.0146                                         !
 ! R20   R(19,20)                1.5514                                         !
 ! R21   R(19,22)                1.5523                                         !
 ! R22   R(19,27)                1.0977                                         !
 ! R23   R(20,21)                1.225                                          !
 ! R24   R(20,37)                1.3749                                         !
 ! R25   R(22,23)                1.541                                          !
 ! R26   R(22,28)                1.0978                                         !
 ! R27   R(22,29)                1.0985                                         !
 ! R28   R(23,24)                1.5377                                         !
 ! R29   R(23,25)                1.5372                                         !
 ! R30   R(23,30)                1.1                                            !
 ! R31   R(24,31)                1.0966                                         !
 ! R32   R(24,32)                1.0945                                         !
 ! R33   R(24,33)                1.0996                                         !
 ! R34   R(25,34)                1.0967                                         !
 ! R35   R(25,35)                1.0955                                         !
 ! R36   R(25,36)                1.0947                                         !
 ! R37   R(37,38)                1.4808                                         !
 ! R38   R(37,50)                1.0154                                         !
 ! R39   R(38,39)                1.5373                                         !
 ! R40   R(38,41)                1.5437                                         !
 ! R41   R(38,51)                1.099                                          !
 ! R42   R(39,40)                1.2112                                         !
 ! R43   R(39,48)                1.3449                                         !
 ! R44   R(41,42)                1.5377                                         !
 ! R45   R(41,52)                1.0915                                         !
 ! R46   R(41,53)                1.0954                                         !
 ! R47   R(42,43)                1.5405                                         !
 ! R48   R(42,54)                1.096                                          !
 ! R49   R(42,55)                1.0937                                         !
 ! R50   R(43,44)                1.4693                                         !
 ! R51   R(43,56)                1.0972                                         !
 ! R52   R(43,57)                1.0911                                         !
 ! R53   R(44,45)                1.3404                                         !
 ! R54   R(44,58)                1.0388                                         !
 ! R55   R(45,46)                1.3552                                         !
 ! R56   R(45,47)                1.3342                                         !
 ! R57   R(46,59)                1.0175                                         !
 ! R58   R(46,60)                1.0113                                         !
 ! R59   R(47,61)                1.0104                                         !
 ! R60   R(47,62)                1.0415                                         !
 ! R61   R(48,49)                0.976                                          !
 ! A1    A(2,1,10)             110.1264                                         !
 ! A2    A(2,1,16)             103.8807                                         !
 ! A3    A(2,1,17)             108.4765                                         !
 ! A4    A(10,1,16)            115.0726                                         !
 ! A5    A(10,1,17)            109.315                                          !
 ! A6    A(16,1,17)            109.7028                                         !
 ! A7    A(1,2,3)              105.0113                                         !
 ! A8    A(1,2,5)              111.1724                                         !
 ! A9    A(1,2,11)             104.6605                                         !
 ! A10   A(3,2,5)              112.1889                                         !
 ! A11   A(3,2,11)             114.0963                                         !
 ! A12   A(5,2,11)             109.3851                                         !
 ! A13   A(2,3,4)              117.9175                                         !
 ! A14   A(2,3,18)             119.2758                                         !
 ! A15   A(4,3,18)             122.7677                                         !
 ! A16   A(2,5,6)              115.147                                          !
 ! A17   A(2,5,12)             106.4816                                         !
 ! A18   A(2,5,13)             108.5994                                         !
 ! A19   A(6,5,12)             109.6817                                         !
 ! A20   A(6,5,13)             109.6169                                         !
 ! A21   A(12,5,13)            106.975                                          !
 ! A22   A(5,6,7)              113.7461                                         !
 ! A23   A(5,6,14)             109.5529                                         !
 ! A24   A(5,6,15)             108.7555                                         !
 ! A25   A(7,6,14)             107.8343                                         !
 ! A26   A(7,6,15)             109.2271                                         !
 ! A27   A(14,6,15)            107.5467                                         !
 ! A28   A(6,7,8)              115.3549                                         !
 ! A29   A(6,7,9)              120.1761                                         !
 ! A30   A(8,7,9)              124.4483                                         !
 ! A31   A(3,18,19)            129.6288                                         !
 ! A32   A(3,18,26)            112.2962                                         !
 ! A33   A(19,18,26)           116.78                                           !
 ! A34   A(18,19,20)           111.7395                                         !
 ! A35   A(18,19,22)           107.0528                                         !
 ! A36   A(18,19,27)           109.5342                                         !
 ! A37   A(20,19,22)           110.5229                                         !
 ! A38   A(20,19,27)           108.6592                                         !
 ! A39   A(22,19,27)           109.3                                            !
 ! A40   A(19,20,21)           122.2779                                         !
 ! A41   A(19,20,37)           112.9399                                         !
 ! A42   A(21,20,37)           124.7457                                         !
 ! A43   A(19,22,23)           118.0858                                         !
 ! A44   A(19,22,28)           107.2428                                         !
 ! A45   A(19,22,29)           106.5935                                         !
 ! A46   A(23,22,28)           109.3035                                         !
 ! A47   A(23,22,29)           108.0255                                         !
 ! A48   A(28,22,29)           107.0801                                         !
 ! A49   A(22,23,24)           112.7074                                         !
 ! A50   A(22,23,25)           108.9729                                         !
 ! A51   A(22,23,30)           108.8129                                         !
 ! A52   A(24,23,25)           110.0835                                         !
 ! A53   A(24,23,30)           109.1057                                         !
 ! A54   A(25,23,30)           106.9882                                         !
 ! A55   A(23,24,31)           110.5236                                         !
 ! A56   A(23,24,32)           110.7307                                         !
 ! A57   A(23,24,33)           113.8903                                         !
 ! A58   A(31,24,32)           107.7041                                         !
 ! A59   A(31,24,33)           106.6496                                         !
 ! A60   A(32,24,33)           107.0552                                         !
 ! A61   A(23,25,34)           110.8368                                         !
 ! A62   A(23,25,35)           111.4359                                         !
 ! A63   A(23,25,36)           110.7468                                         !
 ! A64   A(34,25,35)           107.9812                                         !
 ! A65   A(34,25,36)           107.7445                                         !
 ! A66   A(35,25,36)           107.9518                                         !
 ! A67   A(20,37,38)           128.2585                                         !
 ! A68   A(20,37,50)           112.7676                                         !
 ! A69   A(38,37,50)           111.5874                                         !
 ! A70   A(37,38,39)           110.2047                                         !
 ! A71   A(37,38,41)           117.9628                                         !
 ! A72   A(37,38,51)           106.9579                                         !
 ! A73   A(39,38,41)           110.8746                                         !
 ! A74   A(39,38,51)           104.1008                                         !
 ! A75   A(41,38,51)           105.6337                                         !
 ! A76   A(38,39,40)           120.7063                                         !
 ! A77   A(38,39,48)           118.0543                                         !
 ! A78   A(40,39,48)           121.2136                                         !
 ! A79   A(38,41,42)           119.8481                                         !
 ! A80   A(38,41,52)           107.4172                                         !
 ! A81   A(38,41,53)           104.4048                                         !
 ! A82   A(42,41,52)           108.5104                                         !
 ! A83   A(42,41,53)           108.8855                                         !
 ! A84   A(52,41,53)           107.1054                                         !
 ! A85   A(41,42,43)           117.4217                                         !
 ! A86   A(41,42,54)           105.9615                                         !
 ! A87   A(41,42,55)           110.2659                                         !
 ! A88   A(43,42,54)           107.2643                                         !
 ! A89   A(43,42,55)           109.2542                                         !
 ! A90   A(54,42,55)           105.9889                                         !
 ! A91   A(42,43,44)           110.7369                                         !
 ! A92   A(42,43,56)           109.2946                                         !
 ! A93   A(42,43,57)           110.7328                                         !
 ! A94   A(44,43,56)           108.2974                                         !
 ! A95   A(44,43,57)           110.4246                                         !
 ! A96   A(56,43,57)           107.2516                                         !
 ! A97   A(43,44,45)           126.1323                                         !
 ! A98   A(43,44,58)           112.7747                                         !
 ! A99   A(45,44,58)           115.4343                                         !
 ! A100  A(44,45,46)           120.6012                                         !
 ! A101  A(44,45,47)           118.7591                                         !
 ! A102  A(46,45,47)           120.6326                                         !
 ! A103  A(45,46,59)           116.5678                                         !
 ! A104  A(45,46,60)           117.0804                                         !
 ! A105  A(59,46,60)           113.7924                                         !
 ! A106  A(45,47,61)           119.4655                                         !
 ! A107  A(45,47,62)           120.0171                                         !
 ! A108  A(61,47,62)           117.0917                                         !
 ! A109  A(39,48,49)           108.8718                                         !
 ! D1    D(10,1,2,3)            61.3833                                         !
 ! D2    D(10,1,2,5)           -60.162                                          !
 ! D3    D(10,1,2,11)         -178.1475                                         !
 ! D4    D(16,1,2,3)          -174.874                                          !
 ! D5    D(16,1,2,5)            63.5807                                         !
 ! D6    D(16,1,2,11)          -54.4048                                         !
 ! D7    D(17,1,2,3)           -58.2119                                         !
 ! D8    D(17,1,2,5)          -179.7572                                         !
 ! D9    D(17,1,2,11)           62.2573                                         !
 ! D10   D(1,2,3,4)            -61.4304                                         !
 ! D11   D(1,2,3,18)           116.3617                                         !
 ! D12   D(5,2,3,4)             59.4479                                         !
 ! D13   D(5,2,3,18)          -122.76                                           !
 ! D14   D(11,2,3,4)          -175.4456                                         !
 ! D15   D(11,2,3,18)            2.3464                                         !
 ! D16   D(1,2,5,6)            -44.9708                                         !
 ! D17   D(1,2,5,12)          -166.7664                                         !
 ! D18   D(1,2,5,13)            78.3479                                         !
 ! D19   D(3,2,5,6)           -162.2256                                         !
 ! D20   D(3,2,5,12)            75.9788                                         !
 ! D21   D(3,2,5,13)           -38.9069                                         !
 ! D22   D(11,2,5,6)            70.1171                                         !
 ! D23   D(11,2,5,12)          -51.6785                                         !
 ! D24   D(11,2,5,13)         -166.5642                                         !
 ! D25   D(2,3,18,19)           -8.6587                                         !
 ! D26   D(2,3,18,26)         -175.0319                                         !
 ! D27   D(4,3,18,19)          169.021                                          !
 ! D28   D(4,3,18,26)            2.6479                                         !
 ! D29   D(2,5,6,7)            -40.9358                                         !
 ! D30   D(2,5,6,14)            79.8154                                         !
 ! D31   D(2,5,6,15)          -162.896                                          !
 ! D32   D(12,5,6,7)            79.1153                                         !
 ! D33   D(12,5,6,14)         -160.1335                                         !
 ! D34   D(12,5,6,15)          -42.8449                                         !
 ! D35   D(13,5,6,7)          -163.7127                                         !
 ! D36   D(13,5,6,14)          -42.9615                                         !
 ! D37   D(13,5,6,15)           74.3271                                         !
 ! D38   D(5,6,7,8)             73.3519                                         !
 ! D39   D(5,6,7,9)           -105.067                                          !
 ! D40   D(14,6,7,8)           -48.3584                                         !
 ! D41   D(14,6,7,9)           133.2227                                         !
 ! D42   D(15,6,7,8)          -164.9494                                         !
 ! D43   D(15,6,7,9)            16.6318                                         !
 ! D44   D(3,18,19,20)         -46.4645                                         !
 ! D45   D(3,18,19,22)        -167.6019                                         !
 ! D46   D(3,18,19,27)          73.996                                          !
 ! D47   D(26,18,19,20)        119.4025                                         !
 ! D48   D(26,18,19,22)         -1.7349                                         !
 ! D49   D(26,18,19,27)       -120.137                                          !
 ! D50   D(18,19,20,21)        -22.3017                                         !
 ! D51   D(18,19,20,37)        155.5968                                         !
 ! D52   D(22,19,20,21)         96.8005                                         !
 ! D53   D(22,19,20,37)        -85.301                                          !
 ! D54   D(27,19,20,21)       -143.272                                          !
 ! D55   D(27,19,20,37)         34.6264                                         !
 ! D56   D(18,19,22,23)       -173.6837                                         !
 ! D57   D(18,19,22,28)         62.4021                                         !
 ! D58   D(18,19,22,29)        -52.0153                                         !
 ! D59   D(20,19,22,23)         64.4122                                         !
 ! D60   D(20,19,22,28)        -59.502                                          !
 ! D61   D(20,19,22,29)       -173.9194                                         !
 ! D62   D(27,19,22,23)        -55.1294                                         !
 ! D63   D(27,19,22,28)       -179.0436                                         !
 ! D64   D(27,19,22,29)         66.539                                          !
 ! D65   D(19,20,37,38)        160.4995                                         !
 ! D66   D(19,20,37,50)         13.4532                                         !
 ! D67   D(21,20,37,38)        -21.6629                                         !
 ! D68   D(21,20,37,50)       -168.7092                                         !
 ! D69   D(19,22,23,24)         60.1151                                         !
 ! D70   D(19,22,23,25)       -177.3717                                         !
 ! D71   D(19,22,23,30)        -61.0429                                         !
 ! D72   D(28,22,23,24)       -177.0027                                         !
 ! D73   D(28,22,23,25)        -54.4896                                         !
 ! D74   D(28,22,23,30)         61.8393                                         !
 ! D75   D(29,22,23,24)        -60.8192                                         !
 ! D76   D(29,22,23,25)         61.6939                                         !
 ! D77   D(29,22,23,30)        178.0228                                         !
 ! D78   D(22,23,24,31)         58.7338                                         !
 ! D79   D(22,23,24,32)        178.0006                                         !
 ! D80   D(22,23,24,33)        -61.2939                                         !
 ! D81   D(25,23,24,31)        -63.1538                                         !
 ! D82   D(25,23,24,32)         56.113                                          !
 ! D83   D(25,23,24,33)        176.8184                                         !
 ! D84   D(30,23,24,31)        179.725                                          !
 ! D85   D(30,23,24,32)        -61.0082                                         !
 ! D86   D(30,23,24,33)         59.6972                                         !
 ! D87   D(22,23,25,34)        -62.6369                                         !
 ! D88   D(22,23,25,35)         57.6469                                         !
 ! D89   D(22,23,25,36)        177.8328                                         !
 ! D90   D(24,23,25,34)         61.4418                                         !
 ! D91   D(24,23,25,35)       -178.2744                                         !
 ! D92   D(24,23,25,36)        -58.0886                                         !
 ! D93   D(30,23,25,34)        179.873                                          !
 ! D94   D(30,23,25,35)        -59.8432                                         !
 ! D95   D(30,23,25,36)         60.3426                                         !
 ! D96   D(20,37,38,39)        150.0024                                         !
 ! D97   D(20,37,38,41)         21.3019                                         !
 ! D98   D(20,37,38,51)        -97.4393                                         !
 ! D99   D(50,37,38,39)        -62.6412                                         !
 ! D100  D(50,37,38,41)        168.6583                                         !
 ! D101  D(50,37,38,51)         49.9171                                         !
 ! D102  D(37,38,39,40)        175.2774                                         !
 ! D103  D(37,38,39,48)         -2.8973                                         !
 ! D104  D(41,38,39,40)        -52.2615                                         !
 ! D105  D(41,38,39,48)        129.5639                                         !
 ! D106  D(51,38,39,40)         60.8906                                         !
 ! D107  D(51,38,39,48)       -117.2841                                         !
 ! D108  D(37,38,41,42)         66.6289                                         !
 ! D109  D(37,38,41,52)        -57.6786                                         !
 ! D110  D(37,38,41,53)       -171.1846                                         !
 ! D111  D(39,38,41,42)        -61.7565                                         !
 ! D112  D(39,38,41,52)        173.936                                          !
 ! D113  D(39,38,41,53)         60.43                                           !
 ! D114  D(51,38,41,42)       -173.934                                          !
 ! D115  D(51,38,41,52)         61.7585                                         !
 ! D116  D(51,38,41,53)        -51.7475                                         !
 ! D117  D(38,39,48,49)        -17.6304                                         !
 ! D118  D(40,39,48,49)        164.2047                                         !
 ! D119  D(38,41,42,43)         68.7596                                         !
 ! D120  D(38,41,42,54)       -171.4948                                         !
 ! D121  D(38,41,42,55)        -57.2264                                         !
 ! D122  D(52,41,42,43)       -167.4575                                         !
 ! D123  D(52,41,42,54)        -47.7119                                         !
 ! D124  D(52,41,42,55)         66.5565                                         !
 ! D125  D(53,41,42,43)        -51.2032                                         !
 ! D126  D(53,41,42,54)         68.5425                                         !
 ! D127  D(53,41,42,55)       -177.1891                                         !
 ! D128  D(41,42,43,44)        -90.1186                                         !
 ! D129  D(41,42,43,56)        150.6578                                         !
 ! D130  D(41,42,43,57)         32.7215                                         !
 ! D131  D(54,42,43,44)        150.8256                                         !
 ! D132  D(54,42,43,56)         31.602                                          !
 ! D133  D(54,42,43,57)        -86.3343                                         !
 ! D134  D(55,42,43,44)         36.3633                                         !
 ! D135  D(55,42,43,56)        -82.8603                                         !
 ! D136  D(55,42,43,57)        159.2034                                         !
 ! D137  D(42,43,44,45)        153.5204                                         !
 ! D138  D(42,43,44,58)        -54.4446                                         !
 ! D139  D(56,43,44,45)        -86.6567                                         !
 ! D140  D(56,43,44,58)         65.3783                                         !
 ! D141  D(57,43,44,45)         30.5016                                         !
 ! D142  D(57,43,44,58)       -177.4633                                         !
 ! D143  D(43,44,45,46)        -23.6084                                         !
 ! D144  D(43,44,45,47)        155.429                                          !
 ! D145  D(58,44,45,46)       -175.003                                          !
 ! D146  D(58,44,45,47)          4.0344                                         !
 ! D147  D(44,45,46,59)        -35.8993                                         !
 ! D148  D(44,45,46,60)       -175.5637                                         !
 ! D149  D(47,45,46,59)        145.0814                                         !
 ! D150  D(47,45,46,60)          5.417                                          !
 ! D151  D(44,45,47,61)        162.9907                                         !
 ! D152  D(44,45,47,62)          4.4758                                         !
 ! D153  D(46,45,47,61)        -17.9722                                         !
 ! D154  D(46,45,47,62)       -176.4871                                         !
 --------------------------------------------------------------------------------
 Symmetry turned off by external request.
 Stoichiometry    C17H33N6O6(1+)
 Framework group  C1[X(C17H33N6O6)]
 Deg. of freedom   180
 Full point group                 C1      NOp   1
                          Input orientation:                          
 ---------------------------------------------------------------------
 Center     Atomic      Atomic             Coordinates (Angstroms)
 Number     Number       Type             X           Y           Z
 ---------------------------------------------------------------------
      1          7           0        8.888028   17.092448   12.099813
      2          6           0       10.137396   16.896842   11.282854
      3          6           0       10.176543   18.093494   10.324060
      4          8           0        9.254230   18.221841    9.529877
      5          6           0       10.107078   15.555191   10.535261
      6          6           0        9.639565   14.340862   11.379226
      7          6           0       10.196753   14.330751   12.808695
      8          8           0        9.671961   15.200655   13.615751
      9          8           0       11.107638   13.548081   13.117045
     10          1           0        8.064067   17.085032   11.491116
     11          1           0       10.945395   16.885568   12.013202
     12          1           0       11.125025   15.380216   10.169146
     13          1           0        9.464646   15.660302    9.655315
     14          1           0        8.544907   14.339534   11.445413
     15          1           0        9.939575   13.423174   10.869983
     16          1           0        8.927333   16.283147   12.838395
     17          1           0        8.949934   18.001670   12.577791
     18          7           0       11.198428   18.987488   10.416880
     19          6           0       12.240539   19.105492   11.427501
     20          6           0       11.661313   19.012570   12.863758
     21          8           0       10.487031   19.256800   13.112604
     22          6           0       12.934225   20.476726   11.208123
     23          6           0       14.182180   20.801627   12.051687
     24          6           0       15.325996   19.798057   11.830384
     25          6           0       14.656134   22.224787   11.715371
     26          1           0       11.077910   19.776321    9.790199
     27          1           0       12.975504   18.301362   11.292504
     28          1           0       12.175867   21.254261   11.367646
     29          1           0       13.220258   20.517608   10.148259
     30          1           0       13.901821   20.799200   13.115385
     31          1           0       15.621056   19.778151   10.774455
     32          1           0       16.206546   20.078705   12.416807
     33          1           0       15.071113   18.764525   12.105809
     34          1           0       14.955144   22.297836   10.662734
     35          1           0       13.866438   22.962581   11.894592
     36          1           0       15.520705   22.500443   12.327701
     37          7           0       12.586717   18.589653   13.788458
     38          6           0       12.550334   18.747472   15.260345
     39          6           0       13.285787   17.579841   15.937870
     40          8           0       13.445042   17.562486   17.138433
     41          6           0       11.180966   18.996554   15.927989
     42          6           0       10.109230   17.894046   15.910615
     43          6           0       10.376269   16.631742   16.752209
     44          7           0       11.084690   15.617914   15.959042
     45          6           0       11.891374   14.660916   16.438679
     46          7           0       12.503863   14.812079   17.638084
     47          7           0       12.064554   13.548784   15.722298
     48          8           0       13.776849   16.602388   15.155463
     49          1           0       13.344654   16.650336   14.281641
     50          1           0       13.537613   18.616232   13.433265
     51          1           0       13.162811   19.626960   15.503666
     52          1           0       10.758292   19.897781   15.480243
     53          1           0       11.424849   19.237593   16.968355
     54          1           0        9.194716   18.356561   16.299140
     55          1           0        9.884483   17.600403   14.881375
     56          1           0        9.419883   16.205853   17.080471
     57          1           0       10.945365   16.879105   17.649654
     58          1           0       10.594330   15.385493   15.073227
     59          1           0       12.807651   15.752969   17.878589
     60          1           0       13.154066   14.089525   17.917323
     61          1           0       12.846710   12.942736   15.926636
     62          1           0       11.633758   13.465068   14.777824
 ---------------------------------------------------------------------
 Rotational constants (GHZ):           0.1880795           0.1418493           0.0986832
 Standard basis: 6-31G(d) (6D, 7F)
   501 basis functions,   944 primitive gaussians,   501 cartesian basis functions
   112 alpha electrons      112 beta electrons
       nuclear repulsion energy      3281.6087290881 Hartrees.
 NAtoms=   62 NActive=   62 NUniq=   62 SFac= 1.00D+00 NAtFMM=   60 NAOKFM=T Big=T
 Integral buffers will be    131072 words long.
 Raffenetti 2 integral format.
 Two-electron integral symmetry is turned off.
 Nuclear repulsion after empirical dispersion term =     3281.5182646820 Hartrees.
 One-electron integrals computed using PRISM.
 NBasis=   501 RedAO= T EigKep=  1.66D-03  NBF=   501
 NBsUse=   501 1.00D-06 EigRej= -1.00D+00 NBFU=   501
 Initial guess from the checkpoint file:  "conf-879.chk"
 B after Tr=     0.000000    0.000000    0.000000
         Rot=    1.000000    0.000000    0.000000    0.000000 Ang=   0.00 deg.
 Requested convergence on RMS density matrix=1.00D-08 within 128 cycles.
 Requested convergence on MAX density matrix=1.00D-06.
 Requested convergence on             energy=1.00D-06.
 No special actions if energy rises.
 SCF Done:  E(RB3LYP) =  -1447.51230680     A.U. after    1 cycles
            NFock=  1  Conv=0.52D-08     -V/T= 2.0094

 **********************************************************************

            Population analysis using the SCF Density.

 **********************************************************************

 Alpha  occ. eigenvalues --  -19.32375 -19.27018 -19.26514 -19.23935 -19.22667
 Alpha  occ. eigenvalues --  -19.21285 -14.54360 -14.51522 -14.48883 -14.47793
 Alpha  occ. eigenvalues --  -14.47152 -14.47017 -10.45074 -10.44237 -10.44041
 Alpha  occ. eigenvalues --  -10.41633 -10.39440 -10.37898 -10.37671 -10.37619
 Alpha  occ. eigenvalues --  -10.33752 -10.31860 -10.31625 -10.31272 -10.31248
 Alpha  occ. eigenvalues --  -10.30353 -10.29575 -10.29178 -10.27593  -1.23275
 Alpha  occ. eigenvalues --   -1.18839  -1.16356  -1.15133  -1.14936  -1.12595
 Alpha  occ. eigenvalues --   -1.09921  -1.07532  -1.05947  -1.05483  -1.02138
 Alpha  occ. eigenvalues --   -1.00659  -0.93848  -0.92213  -0.91391  -0.88163
 Alpha  occ. eigenvalues --   -0.86199  -0.83883  -0.80844  -0.79628  -0.77635
 Alpha  occ. eigenvalues --   -0.75570  -0.74937  -0.74412  -0.73163  -0.72033
 Alpha  occ. eigenvalues --   -0.70553  -0.70096  -0.68952  -0.68665  -0.67500
 Alpha  occ. eigenvalues --   -0.67117  -0.66890  -0.65007  -0.63463  -0.63187
 Alpha  occ. eigenvalues --   -0.61737  -0.61113  -0.60948  -0.60027  -0.59166
 Alpha  occ. eigenvalues --   -0.58813  -0.58176  -0.57541  -0.56966  -0.56576
 Alpha  occ. eigenvalues --   -0.56263  -0.55645  -0.55470  -0.54692  -0.54393
 Alpha  occ. eigenvalues --   -0.53908  -0.53318  -0.53039  -0.52673  -0.52205
 Alpha  occ. eigenvalues --   -0.51414  -0.50974  -0.50757  -0.50354  -0.49960
 Alpha  occ. eigenvalues --   -0.49062  -0.48419  -0.47822  -0.47007  -0.46558
 Alpha  occ. eigenvalues --   -0.46465  -0.46029  -0.45675  -0.44932  -0.44555
 Alpha  occ. eigenvalues --   -0.44416  -0.44226  -0.42396  -0.40592  -0.39610
 Alpha  occ. eigenvalues --   -0.39088  -0.38244  -0.37950  -0.37779  -0.37172
 Alpha  occ. eigenvalues --   -0.36844  -0.35228
 Alpha virt. eigenvalues --   -0.13859  -0.12621  -0.11472  -0.09475  -0.08008
 Alpha virt. eigenvalues --   -0.07031  -0.05167  -0.04214  -0.03840  -0.02327
 Alpha virt. eigenvalues --   -0.02210  -0.00780  -0.00160   0.00360   0.00836
 Alpha virt. eigenvalues --    0.00916   0.01591   0.02110   0.02530   0.02708
 Alpha virt. eigenvalues --    0.03417   0.03653   0.03932   0.04404   0.04851
 Alpha virt. eigenvalues --    0.04944   0.05960   0.06077   0.06197   0.06327
 Alpha virt. eigenvalues --    0.06864   0.07134   0.07318   0.08242   0.08353
 Alpha virt. eigenvalues --    0.08809   0.09213   0.09408   0.09722   0.10223
 Alpha virt. eigenvalues --    0.10357   0.10824   0.11378   0.11629   0.12068
 Alpha virt. eigenvalues --    0.12759   0.13714   0.13860   0.14504   0.14597
 Alpha virt. eigenvalues --    0.15419   0.15939   0.16301   0.16985   0.18102
 Alpha virt. eigenvalues --    0.19130   0.21044   0.23737   0.24371   0.25662
 Alpha virt. eigenvalues --    0.26937   0.27333   0.28800   0.29905   0.30527
 Alpha virt. eigenvalues --    0.34603   0.36001   0.36579   0.37824   0.38301
 Alpha virt. eigenvalues --    0.38849   0.39671   0.40564   0.40829   0.41099
 Alpha virt. eigenvalues --    0.41365   0.41920   0.42104   0.42555   0.44484
 Alpha virt. eigenvalues --    0.44800   0.45526   0.45757   0.46972   0.47214
 Alpha virt. eigenvalues --    0.47712   0.49066   0.49249   0.50140   0.50227
 Alpha virt. eigenvalues --    0.51257   0.51604   0.52093   0.53011   0.53168
 Alpha virt. eigenvalues --    0.53510   0.53860   0.54632   0.55709   0.56600
 Alpha virt. eigenvalues --    0.57186   0.57462   0.58259   0.59112   0.59287
 Alpha virt. eigenvalues --    0.60017   0.60396   0.60990   0.61490   0.61933
 Alpha virt. eigenvalues --    0.61979   0.62779   0.64276   0.64416   0.65077
 Alpha virt. eigenvalues --    0.65375   0.67261   0.67745   0.68493   0.68911
 Alpha virt. eigenvalues --    0.69239   0.70002   0.70989   0.71075   0.72462
 Alpha virt. eigenvalues --    0.72884   0.73372   0.73728   0.74037   0.74592
 Alpha virt. eigenvalues --    0.74988   0.75860   0.75953   0.76190   0.77027
 Alpha virt. eigenvalues --    0.77340   0.77617   0.78337   0.79278   0.79718
 Alpha virt. eigenvalues --    0.79811   0.80223   0.80924   0.82270   0.82558
 Alpha virt. eigenvalues --    0.82666   0.83155   0.83318   0.83691   0.83726
 Alpha virt. eigenvalues --    0.84734   0.84872   0.85272   0.85902   0.87010
 Alpha virt. eigenvalues --    0.87325   0.87962   0.88431   0.89401   0.90033
 Alpha virt. eigenvalues --    0.90419   0.90797   0.91808   0.93333   0.93791
 Alpha virt. eigenvalues --    0.94415   0.94771   0.95961   0.96123   0.97898
 Alpha virt. eigenvalues --    0.99123   0.99369   1.00079   1.00479   1.01737
 Alpha virt. eigenvalues --    1.02457   1.02986   1.04126   1.04795   1.05724
 Alpha virt. eigenvalues --    1.07601   1.08279   1.08571   1.09563   1.10091
 Alpha virt. eigenvalues --    1.11398   1.12398   1.14561   1.15787   1.17047
 Alpha virt. eigenvalues --    1.18585   1.20098   1.20664   1.22614   1.23642
 Alpha virt. eigenvalues --    1.24083   1.25825   1.26911   1.28522   1.29675
 Alpha virt. eigenvalues --    1.29908   1.30861   1.32166   1.33072   1.34039
 Alpha virt. eigenvalues --    1.34701   1.35450   1.36782   1.36979   1.37626
 Alpha virt. eigenvalues --    1.38158   1.39558   1.41108   1.42669   1.44029
 Alpha virt. eigenvalues --    1.45800   1.46791   1.48277   1.50198   1.51441
 Alpha virt. eigenvalues --    1.51959   1.52863   1.53363   1.54048   1.54519
 Alpha virt. eigenvalues --    1.56344   1.57199   1.58276   1.58709   1.60338
 Alpha virt. eigenvalues --    1.61305   1.61817   1.62530   1.64063   1.65025
 Alpha virt. eigenvalues --    1.66391   1.66532   1.67202   1.68673   1.68986
 Alpha virt. eigenvalues --    1.69084   1.70096   1.70556   1.71249   1.71725
 Alpha virt. eigenvalues --    1.72692   1.73270   1.73349   1.74208   1.75908
 Alpha virt. eigenvalues --    1.76128   1.76175   1.77185   1.78234   1.78577
 Alpha virt. eigenvalues --    1.79399   1.80588   1.81581   1.81847   1.82898
 Alpha virt. eigenvalues --    1.83629   1.84024   1.85845   1.86546   1.86800
 Alpha virt. eigenvalues --    1.87335   1.87707   1.89045   1.89730   1.89796
 Alpha virt. eigenvalues --    1.90884   1.92422   1.92567   1.93698   1.94702
 Alpha virt. eigenvalues --    1.95198   1.96004   1.96420   1.96681   1.98102
 Alpha virt. eigenvalues --    1.98709   1.99038   2.00398   2.00614   2.02814
 Alpha virt. eigenvalues --    2.03677   2.05016   2.05525   2.08405   2.09682
 Alpha virt. eigenvalues --    2.10725   2.11755   2.13067   2.13365   2.14334
 Alpha virt. eigenvalues --    2.14968   2.16301   2.17434   2.17902   2.20146
 Alpha virt. eigenvalues --    2.20672   2.21982   2.22144   2.25547   2.25777
 Alpha virt. eigenvalues --    2.26339   2.26993   2.27472   2.28724   2.29033
 Alpha virt. eigenvalues --    2.30948   2.31657   2.31987   2.33043   2.34737
 Alpha virt. eigenvalues --    2.35399   2.37001   2.37995   2.38653   2.40487
 Alpha virt. eigenvalues --    2.41217   2.41711   2.42023   2.43128   2.46401
 Alpha virt. eigenvalues --    2.48276   2.49413   2.51258   2.51616   2.52100
 Alpha virt. eigenvalues --    2.53217   2.54206   2.55232   2.56207   2.57062
 Alpha virt. eigenvalues --    2.58091   2.59178   2.60312   2.62365   2.63537
 Alpha virt. eigenvalues --    2.64882   2.65528   2.66263   2.67438   2.69689
 Alpha virt. eigenvalues --    2.71947   2.73861   2.79141   2.83307   2.86676
 Alpha virt. eigenvalues --    2.88194   2.89303   2.90277   2.91596   2.93968
 Alpha virt. eigenvalues --    2.98526   2.99066   3.02036   3.02875   3.06550
 Alpha virt. eigenvalues --    3.73282   3.74874   3.77542   3.83679   3.86551
 Alpha virt. eigenvalues --    3.90069   3.96247   4.02072   4.02763   4.04523
 Alpha virt. eigenvalues --    4.05005   4.11834   4.13855   4.15756   4.17751
 Alpha virt. eigenvalues --    4.18270   4.20559   4.22961   4.26980   4.28361
 Alpha virt. eigenvalues --    4.30682   4.33944   4.37128   4.44267   4.46254
 Alpha virt. eigenvalues --    4.48600   4.54470   4.59754   4.65036
          Condensed to atoms (all electrons):
 Mulliken charges:
               1
     1  N   -0.780635
     2  C   -0.104287
     3  C    0.624602
     4  O   -0.495764
     5  C   -0.294733
     6  C   -0.368103
     7  C    0.619043
     8  O   -0.652004
     9  O   -0.538795
    10  H    0.398271
    11  H    0.177694
    12  H    0.182272
    13  H    0.200755
    14  H    0.165466
    15  H    0.198268
    16  H    0.447386
    17  H    0.422426
    18  N   -0.613905
    19  C   -0.037984
    20  C    0.619591
    21  O   -0.527142
    22  C   -0.305444
    23  C   -0.106325
    24  C   -0.465068
    25  C   -0.448705
    26  H    0.360009
    27  H    0.172290
    28  H    0.176309
    29  H    0.174374
    30  H    0.125708
    31  H    0.173342
    32  H    0.179686
    33  H    0.123511
    34  H    0.162182
    35  H    0.161261
    36  H    0.167891
    37  N   -0.674882
    38  C   -0.060093
    39  C    0.640878
    40  O   -0.474962
    41  C   -0.275705
    42  C   -0.291289
    43  C   -0.152067
    44  N   -0.670165
    45  C    0.761183
    46  N   -0.752981
    47  N   -0.788068
    48  O   -0.566685
    49  H    0.427174
    50  H    0.358735
    51  H    0.212827
    52  H    0.187950
    53  H    0.185262
    54  H    0.172570
    55  H    0.146165
    56  H    0.185732
    57  H    0.182695
    58  H    0.418767
    59  H    0.396680
    60  H    0.357143
    61  H    0.353696
    62  H    0.426001
 Sum of Mulliken charges =   1.00000
 Mulliken charges with hydrogens summed into heavy atoms:
               1
     1  N    0.487447
     2  C    0.073407
     3  C    0.624602
     4  O   -0.495764
     5  C    0.088294
     6  C   -0.004369
     7  C    0.619043
     8  O   -0.652004
     9  O   -0.538795
    18  N   -0.253896
    19  C    0.134306
    20  C    0.619591
    21  O   -0.527142
    22  C    0.045239
    23  C    0.019382
    24  C    0.011471
    25  C    0.042630
    37  N   -0.316147
    38  C    0.152734
    39  C    0.640878
    40  O   -0.474962
    41  C    0.097507
    42  C    0.027445
    43  C    0.216360
    44  N   -0.251398
    45  C    0.761183
    46  N    0.000841
    47  N   -0.008371
    48  O   -0.139512
 Electronic spatial extent (au):  <R**2>=         507243.7954
 Charge=              1.0000 electrons
 Dipole moment (field-independent basis, Debye):
    X=             57.6679    Y=             84.5086    Z=             65.9156  Tot=            121.7053
 Quadrupole moment (field-independent basis, Debye-Ang):
   XX=            545.4544   YY=           1346.2325   ZZ=            762.0728
   XY=           1021.4750   XZ=            789.9034   YZ=           1141.4743
 Traceless Quadrupole moment (field-independent basis, Debye-Ang):
   XX=           -339.1322   YY=            461.6460   ZZ=           -122.5137
   XY=           1021.4750   XZ=            789.9034   YZ=           1141.4743
 Octapole moment (field-independent basis, Debye-Ang**2):
  XXX=           3147.4272  YYY=          18807.0354  ZZZ=           6736.6747  XYY=          16526.4829
  XXY=           9777.4473  XXZ=           7478.6831  XZZ=           9195.7920  YZZ=          12876.9502
  YYZ=          17907.3319  XYZ=          13703.0516
 Hexadecapole moment (field-independent basis, Debye-Ang**3):
 XXXX=         -24269.4221 YYYY=         198812.0525 ZZZZ=          13913.0199 XXXY=          58055.8740
 XXXZ=          43226.0799 YYYX=         237525.1889 YYYZ=         245601.9503 ZZZX=          83073.2963
 ZZZY=         107647.3477 XXYY=         156490.3730 XXZZ=          82524.5654 YYZZ=         191284.8627
 XXYZ=         130089.7956 YYXZ=         217089.6541 ZZXY=         154472.2498
 N-N= 3.281518264682D+03 E-N=-9.910783530468D+03  KE= 1.434090368826D+03
 Unable to Open any file for archive entry.
 1\1\GINC-VIM-000\SP\RB3LYP\6-31G(d)\C17H33N6O6(1+)\KENGMITH\24-May-202
 2\0\\# B3LYP/6-31G* empiricaldispersion=gd3 guess=read geom=check nosy
 mm integral(ultrafinegrid)\\Candidate Structure: Conf:879 Charge calc 
 in gas phase\\1,1\N,0,8.8880280423,17.0924475571,12.0998125054\C,0,10.
 137396197,16.8968417166,11.2828542502\C,0,10.1765429726,18.0934939514,
 10.3240598896\O,0,9.2542296929,18.2218414892,9.529877472\C,0,10.107077
 9665,15.5551905886,10.5352613189\C,0,9.6395648627,14.3408623597,11.379
 2263922\C,0,10.1967534532,14.33075126,12.8086948792\O,0,9.6719611266,1
 5.2006547909,13.6157514282\O,0,11.1076384833,13.5480808826,13.11704484
 91\H,0,8.0640668757,17.0850324113,11.4911162145\H,0,10.9453947473,16.8
 85567543,12.013201598\H,0,11.1250252693,15.3802162983,10.1691461217\H,
 0,9.4646457406,15.6603021564,9.655314523\H,0,8.5449071237,14.339534302
 ,11.4454125794\H,0,9.9395745071,13.4231738999,10.8699827816\H,0,8.9273
 333646,16.2831471973,12.838394968\H,0,8.9499344603,18.0016696369,12.57
 77914533\N,0,11.1984282367,18.9874880253,10.416879912\C,0,12.240538693
 9,19.1054921008,11.427501131\C,0,11.6613132618,19.012570139,12.8637577
 117\O,0,10.4870312591,19.2567997071,13.1126038024\C,0,12.9342254997,20
 .4767255013,11.2081234321\C,0,14.1821798243,20.8016274052,12.051687216
 8\C,0,15.3259957863,19.798057014,11.8303835506\C,0,14.6561344485,22.22
 47874246,11.7153710557\H,0,11.0779104963,19.7763211981,9.7901994258\H,
 0,12.9755037723,18.3013623712,11.2925042187\H,0,12.1758673618,21.25426
 14414,11.3676460101\H,0,13.220258378,20.5176080021,10.1482587014\H,0,1
 3.9018208318,20.7991998054,13.1153852664\H,0,15.6210558921,19.77815105
 02,10.7744546465\H,0,16.2065461618,20.0787053934,12.4168072042\H,0,15.
 071113491,18.7645245388,12.105809201\H,0,14.9551441641,22.2978355052,1
 0.6627341969\H,0,13.866437622,22.9625811807,11.8945924292\H,0,15.52070
 45613,22.5004431149,12.3277006892\N,0,12.5867167968,18.5896528204,13.7
 884580218\C,0,12.5503342048,18.7474722843,15.2603453343\C,0,13.2857867
 696,17.5798412135,15.9378695556\O,0,13.4450417127,17.5624858743,17.138
 432523\C,0,11.1809656729,18.9965535748,15.9279892497\C,0,10.1092297154
 ,17.8940455583,15.9106146547\C,0,10.3762693216,16.6317422071,16.752209
 3288\N,0,11.0846895945,15.6179138596,15.9590423189\C,0,11.8913736328,1
 4.6609162863,16.4386787956\N,0,12.5038626708,14.8120785915,17.63808356
 43\N,0,12.0645539803,13.5487842887,15.7222976591\O,0,13.7768486558,16.
 6023882505,15.1554629297\H,0,13.3446539009,16.6503360378,14.281641449\
 H,0,13.5376125167,18.6162322851,13.4332653465\H,0,13.1628112839,19.626
 9598207,15.5036663775\H,0,10.7582915032,19.8977808349,15.4802428779\H,
 0,11.4248494369,19.2375928966,16.9683547139\H,0,9.1947164091,18.356560
 7879,16.2991404984\H,0,9.8844831946,17.6004029381,14.8813750372\H,0,9.
 4198825197,16.2058530295,17.0804714855\H,0,10.9453648056,16.879104727,
 17.6496539239\H,0,10.5943301014,15.3854934693,15.0732274176\H,0,12.807
 6509218,15.7529688963,17.8785886141\H,0,13.1540660556,14.0895247711,17
 .917323327\H,0,12.8467102782,12.9427359064,15.9266355587\H,0,11.633758
 2056,13.4650679502,14.7778236713\\Version=ES64L-G16RevC.01\HF=-1447.51
 23068\RMSD=5.214e-09\Dipole=0.7053526,0.3808458,0.4449105\Quadrupole=-
 252.1364954,343.2224529,-91.0859575,759.441602,587.2737943,848.6581503
 \PG=C01 [X(C17H33N6O6)]\\@
 The archive entry for this job was punched.


 IF GOD HAD MEANT MAN TO SEE THE SUN RISE, HE
 WOULD HAVE SCHEDULED IT FOR A LATER HOUR.
 Job cpu time:       0 days  0 hours  1 minutes 40.7 seconds.
 Elapsed time:       0 days  0 hours  0 minutes 25.7 seconds.
 File lengths (MBytes):  RWF=    248 Int=      0 D2E=      0 Chk=     32 Scr=     16
 Normal termination of Gaussian 16 at Tue May 24 03:34:04 2022.
