 Entering Gaussian System, Link 0=/opt/software/Gaussian/g16-AVX2-C.01/g16/g16
 Input=charge-conf-684.com
 Output=charge-conf-684.log
 Initial command:
 /opt/software/Gaussian/g16-AVX2-C.01/g16/l1.exe "/mnt/gs18/scratch/users/kengmith/Gau-48887.inp" -scrdir="/mnt/gs18/scratch/users/kengmith/"
 Entering Link 1 = /opt/software/Gaussian/g16-AVX2-C.01/g16/l1.exe PID=     48907.
  
 Copyright (c) 1988-2019, Gaussian, Inc.  All Rights Reserved.
  
 This is part of the Gaussian(R) 16 program.  It is based on
 the Gaussian(R) 09 system (copyright 2009, Gaussian, Inc.),
 the Gaussian(R) 03 system (copyright 2003, Gaussian, Inc.),
 the Gaussian(R) 98 system (copyright 1998, Gaussian, Inc.),
 the Gaussian(R) 94 system (copyright 1995, Gaussian, Inc.),
 the Gaussian 92(TM) system (copyright 1992, Gaussian, Inc.),
 the Gaussian 90(TM) system (copyright 1990, Gaussian, Inc.),
 the Gaussian 88(TM) system (copyright 1988, Gaussian, Inc.),
 the Gaussian 86(TM) system (copyright 1986, Carnegie Mellon
 University), and the Gaussian 82(TM) system (copyright 1983,
 Carnegie Mellon University). Gaussian is a federally registered
 trademark of Gaussian, Inc.
  
 This software contains proprietary and confidential information,
 including trade secrets, belonging to Gaussian, Inc.
  
 This software is provided under written license and may be
 used, copied, transmitted, or stored only in accord with that
 written license.
  
 The following legend is applicable only to US Government
 contracts under FAR:
  
                    RESTRICTED RIGHTS LEGEND
  
 Use, reproduction and disclosure by the US Government is
 subject to restrictions as set forth in subparagraphs (a)
 and (c) of the Commercial Computer Software - Restricted
 Rights clause in FAR 52.227-19.
  
 Gaussian, Inc.
 340 Quinnipiac St., Bldg. 40, Wallingford CT 06492
  
  
 ---------------------------------------------------------------
 Warning -- This program may not be used in any manner that
 competes with the business of Gaussian, Inc. or will provide
 assistance to any competitor of Gaussian, Inc.  The licensee
 of this program is prohibited from giving any competitor of
 Gaussian, Inc. access to this program.  By using this program,
 the user acknowledges that Gaussian, Inc. is engaged in the
 business of creating and licensing software in the field of
 computational chemistry and represents and warrants to the
 licensee that it is not a competitor of Gaussian, Inc. and that
 it will not use this program in any manner prohibited above.
 ---------------------------------------------------------------
  

 Cite this work as:
 Gaussian 16, Revision C.01,
 M. J. Frisch, G. W. Trucks, H. B. Schlegel, G. E. Scuseria, 
 M. A. Robb, J. R. Cheeseman, G. Scalmani, V. Barone, 
 G. A. Petersson, H. Nakatsuji, X. Li, M. Caricato, A. V. Marenich, 
 J. Bloino, B. G. Janesko, R. Gomperts, B. Mennucci, H. P. Hratchian, 
 J. V. Ortiz, A. F. Izmaylov, J. L. Sonnenberg, D. Williams-Young, 
 F. Ding, F. Lipparini, F. Egidi, J. Goings, B. Peng, A. Petrone, 
 T. Henderson, D. Ranasinghe, V. G. Zakrzewski, J. Gao, N. Rega, 
 G. Zheng, W. Liang, M. Hada, M. Ehara, K. Toyota, R. Fukuda, 
 J. Hasegawa, M. Ishida, T. Nakajima, Y. Honda, O. Kitao, H. Nakai, 
 T. Vreven, K. Throssell, J. A. Montgomery, Jr., J. E. Peralta, 
 F. Ogliaro, M. J. Bearpark, J. J. Heyd, E. N. Brothers, K. N. Kudin, 
 V. N. Staroverov, T. A. Keith, R. Kobayashi, J. Normand, 
 K. Raghavachari, A. P. Rendell, J. C. Burant, S. S. Iyengar, 
 J. Tomasi, M. Cossi, J. M. Millam, M. Klene, C. Adamo, R. Cammi, 
 J. W. Ochterski, R. L. Martin, K. Morokuma, O. Farkas, 
 J. B. Foresman, and D. J. Fox, Gaussian, Inc., Wallingford CT, 2019.
 
 ******************************************
 Gaussian 16:  ES64L-G16RevC.01  3-Jul-2019
                24-May-2022 
 ******************************************
 %mem=8gb
 %nproc=4
 Will use up to    4 processors via shared memory.
 %chk=conf-684.chk
 ----------------------------------------------------------------------
 # B3LYP/6-31G* empiricaldispersion=gd3 guess=read geom=check nosymm in
 tegral(ultrafinegrid)
 ----------------------------------------------------------------------
 1/29=2,38=1,172=1/1;
 2/12=2,15=1,40=1/2;
 3/5=1,6=6,7=1,11=2,14=-4,25=1,30=1,74=-5,75=-5,116=-2,124=31/1,2,3;
 4/5=1/1;
 5/5=2,38=6/2;
 6/7=2,8=2,9=2,10=2,28=1/1;
 99/5=1,9=1/99;
 ------------------------------------------------------
 Candidate Structure: Conf:684 Charge calc in gas phase
 ------------------------------------------------------
 Structure from the checkpoint file:  "conf-684.chk"
 Charge =  1 Multiplicity = 1
 Redundant internal coordinates found in file.  (old form).
 N,0,9.0494039197,16.5653257461,14.5594644625
 C,0,9.722153625,15.9134817741,13.3814246709
 C,0,8.8732999952,16.3112481912,12.1674569895
 O,0,7.6945128263,15.9841504753,12.1567382133
 C,0,9.8111958821,14.3924704022,13.5683156493
 C,0,10.3039971676,13.9357765627,14.9670185566
 C,0,11.4501554762,14.7925132563,15.5231422591
 O,0,11.1105458788,15.973079435,15.9396867742
 O,0,12.6107282064,14.3554695473,15.5205258293
 H,0,9.002338416,17.5778747028,14.3848480654
 H,0,10.7261132401,16.3343201092,13.3752003237
 H,0,10.4964498199,14.0233566231,12.7968446674
 H,0,8.8297561461,13.9542945492,13.3599201882
 H,0,9.4732590756,13.9792937503,15.6814826511
 H,0,10.6298727303,12.8959744193,14.9033552457
 H,0,8.1006567298,16.1968960877,14.6749262983
 H,0,9.7320738746,16.3669116317,15.3919282887
 N,0,9.4488331629,17.0447592462,11.1748636804
 C,0,10.756250458,17.674692498,11.1599072994
 C,0,10.9759300778,18.5741500612,12.4112212808
 O,0,10.0681696738,18.8628903535,13.1806508221
 C,0,10.9087481632,18.4980669845,9.8601169912
 C,0,10.8025569175,17.6902559145,8.5488884959
 C,0,10.9505275792,18.6459648219,7.3555879126
 C,0,11.835316224,16.5573926806,8.4812821868
 H,0,8.7831059363,17.337075611,10.4680489213
 H,0,11.5351645749,16.900790965,11.1763413374
 H,0,11.8861238731,18.998604213,9.8709355184
 H,0,10.1557438097,19.2976684128,9.8725114833
 H,0,9.8014514252,17.2398615113,8.4932301726
 H,0,11.9465620167,19.1064440685,7.3437125321
 H,0,10.8222339104,18.1075452844,6.4112725018
 H,0,10.2068564036,19.4503424522,7.3877224278
 H,0,11.7813878737,16.0475524464,7.514304312
 H,0,12.8556245341,16.9487965177,8.5903945137
 H,0,11.6726427834,15.7978294091,9.2547900083
 N,0,12.2923470608,18.92609126,12.5865173183
 C,0,12.8786081394,19.9256691867,13.5073225281
 C,0,14.2277777424,19.4213740116,14.0483660942
 O,0,14.9144228397,20.1246691579,14.7565045324
 C,0,11.9956053148,20.4621352717,14.6562927381
 C,0,11.5688950999,19.533160625,15.8059881016
 C,0,12.6652112266,19.0257047945,16.761588631
 N,0,13.2164682169,17.7482178894,16.2863955285
 C,0,14.4457938828,17.2772048406,16.5450424343
 N,0,15.457605554,18.1224776027,16.8551679235
 N,0,14.6479830663,15.9594566941,16.5073126798
 O,0,14.6322985392,18.1913710051,13.6874949843
 H,0,13.8667527499,17.7036448354,13.3285709553
 H,0,12.8594715462,18.7923788696,11.754660232
 H,0,13.1412040121,20.8042839387,12.9029209157
 H,0,11.0976134135,20.8886733561,14.2052582855
 H,0,12.5730574186,21.2942753839,15.0733985959
 H,0,10.855975199,20.1105555944,16.4058547134
 H,0,11.0102888176,18.6782095516,15.4159234653
 H,0,12.2315687506,18.8639885374,17.7563545678
 H,0,13.4582979086,19.7665800613,16.8707861002
 H,0,12.4847194322,17.0230464428,16.1540954759
 H,0,15.4580325695,19.0293003512,16.3928053376
 H,0,16.3780466648,17.7197224342,16.9698766093
 H,0,15.5905217841,15.5996400955,16.4552072233
 H,0,13.8746825232,15.3159234534,16.2355629174
 Recover connectivity data from disk.
                           ----------------------------
                           !    Current Parameters    !
                           ! (Angstroms and Degrees)  !
 --------------------------                            --------------------------
 ! Name  Definition              Value                                          !
 --------------------------------------------------------------------------------
 ! R1    R(1,2)                  1.5051                                         !
 ! R2    R(1,10)                 1.0286                                         !
 ! R3    R(1,16)                 1.0243                                         !
 ! R4    R(1,17)                 1.0947                                         !
 ! R5    R(2,3)                  1.5338                                         !
 ! R6    R(2,5)                  1.535                                          !
 ! R7    R(2,11)                 1.0886                                         !
 ! R8    R(3,4)                  1.2234                                         !
 ! R9    R(3,18)                 1.3618                                         !
 ! R10   R(5,6)                  1.5517                                         !
 ! R11   R(5,12)                 1.0959                                         !
 ! R12   R(5,13)                 1.0948                                         !
 ! R13   R(6,7)                  1.5352                                         !
 ! R14   R(6,14)                 1.0966                                         !
 ! R15   R(6,15)                 1.0915                                         !
 ! R16   R(7,8)                  1.2971                                         !
 ! R17   R(7,9)                  1.2401                                         !
 ! R18   R(18,19)                1.4513                                         !
 ! R19   R(18,26)                1.014                                          !
 ! R20   R(19,20)                1.5566                                         !
 ! R21   R(19,22)                1.5462                                         !
 ! R22   R(19,27)                1.0981                                         !
 ! R23   R(20,21)                1.2245                                         !
 ! R24   R(20,37)                1.3739                                         !
 ! R25   R(22,23)                1.5437                                         !
 ! R26   R(22,28)                1.0981                                         !
 ! R27   R(22,29)                1.0984                                         !
 ! R28   R(23,24)                1.536                                          !
 ! R29   R(23,25)                1.5345                                         !
 ! R30   R(23,30)                1.0992                                         !
 ! R31   R(24,31)                1.0974                                         !
 ! R32   R(24,32)                1.0946                                         !
 ! R33   R(24,33)                1.0959                                         !
 ! R34   R(25,34)                1.0945                                         !
 ! R35   R(25,35)                1.0982                                         !
 ! R36   R(25,36)                1.0962                                         !
 ! R37   R(37,38)                1.4801                                         !
 ! R38   R(37,50)                1.0156                                         !
 ! R39   R(38,39)                1.5386                                         !
 ! R40   R(38,41)                1.5452                                         !
 ! R41   R(38,51)                1.0983                                         !
 ! R42   R(39,40)                1.2114                                         !
 ! R43   R(39,48)                1.3442                                         !
 ! R44   R(41,42)                1.5385                                         !
 ! R45   R(41,52)                1.0917                                         !
 ! R46   R(41,53)                1.0954                                         !
 ! R47   R(42,43)                1.5403                                         !
 ! R48   R(42,54)                1.0961                                         !
 ! R49   R(42,55)                1.0932                                         !
 ! R50   R(43,44)                1.4703                                         !
 ! R51   R(43,56)                1.0972                                         !
 ! R52   R(43,57)                1.0908                                         !
 ! R53   R(44,45)                1.3416                                         !
 ! R54   R(44,58)                1.0387                                         !
 ! R55   R(45,46)                1.3544                                         !
 ! R56   R(45,47)                1.3337                                         !
 ! R57   R(46,59)                1.0179                                         !
 ! R58   R(46,60)                1.0112                                         !
 ! R59   R(47,61)                1.0102                                         !
 ! R60   R(47,62)                1.0421                                         !
 ! R61   R(48,49)                0.9761                                         !
 ! A1    A(2,1,10)             108.2959                                         !
 ! A2    A(2,1,16)             110.2712                                         !
 ! A3    A(2,1,17)             103.7663                                         !
 ! A4    A(10,1,16)            109.3197                                         !
 ! A5    A(10,1,17)            109.6367                                         !
 ! A6    A(16,1,17)            115.258                                          !
 ! A7    A(1,2,3)              105.0586                                         !
 ! A8    A(1,2,5)              111.0862                                         !
 ! A9    A(1,2,11)             104.4346                                         !
 ! A10   A(3,2,5)              112.6707                                         !
 ! A11   A(3,2,11)             113.93                                           !
 ! A12   A(5,2,11)             109.284                                          !
 ! A13   A(2,3,4)              118.0903                                         !
 ! A14   A(2,3,18)             118.8611                                         !
 ! A15   A(4,3,18)             123.0144                                         !
 ! A16   A(2,5,6)              114.8217                                         !
 ! A17   A(2,5,12)             106.5171                                         !
 ! A18   A(2,5,13)             108.7472                                         !
 ! A19   A(6,5,12)             109.6843                                         !
 ! A20   A(6,5,13)             109.7842                                         !
 ! A21   A(12,5,13)            106.9618                                         !
 ! A22   A(5,6,7)              113.5393                                         !
 ! A23   A(5,6,14)             109.5738                                         !
 ! A24   A(5,6,15)             108.8209                                         !
 ! A25   A(7,6,14)             107.9039                                         !
 ! A26   A(7,6,15)             109.2593                                         !
 ! A27   A(14,6,15)            107.5765                                         !
 ! A28   A(6,7,8)              115.3888                                         !
 ! A29   A(6,7,9)              120.0821                                         !
 ! A30   A(8,7,9)              124.5021                                         !
 ! A31   A(3,18,19)            128.4632                                         !
 ! A32   A(3,18,26)            112.6979                                         !
 ! A33   A(19,18,26)           117.3301                                         !
 ! A34   A(18,19,20)           111.6937                                         !
 ! A35   A(18,19,22)           109.1866                                         !
 ! A36   A(18,19,27)           109.4468                                         !
 ! A37   A(20,19,22)           110.7409                                         !
 ! A38   A(20,19,27)           107.1628                                         !
 ! A39   A(22,19,27)           108.5368                                         !
 ! A40   A(19,20,21)           122.4625                                         !
 ! A41   A(19,20,37)           112.694                                          !
 ! A42   A(21,20,37)           124.7323                                         !
 ! A43   A(19,22,23)           115.378                                          !
 ! A44   A(19,22,28)           108.7976                                         !
 ! A45   A(19,22,29)           108.0926                                         !
 ! A46   A(23,22,28)           107.945                                          !
 ! A47   A(23,22,29)           110.0812                                         !
 ! A48   A(28,22,29)           106.1544                                         !
 ! A49   A(22,23,24)           109.127                                          !
 ! A50   A(22,23,25)           112.1761                                         !
 ! A51   A(22,23,30)           108.6678                                         !
 ! A52   A(24,23,25)           111.1188                                         !
 ! A53   A(24,23,30)           107.6596                                         !
 ! A54   A(25,23,30)           107.9539                                         !
 ! A55   A(23,24,31)           110.912                                          !
 ! A56   A(23,24,32)           110.6643                                         !
 ! A57   A(23,24,33)           111.6248                                         !
 ! A58   A(31,24,32)           107.6652                                         !
 ! A59   A(31,24,33)           107.9527                                         !
 ! A60   A(32,24,33)           107.8662                                         !
 ! A61   A(23,25,34)           110.4676                                         !
 ! A62   A(23,25,35)           110.9646                                         !
 ! A63   A(23,25,36)           112.3699                                         !
 ! A64   A(34,25,35)           107.4319                                         !
 ! A65   A(34,25,36)           107.0574                                         !
 ! A66   A(35,25,36)           108.3427                                         !
 ! A67   A(20,37,38)           129.1905                                         !
 ! A68   A(20,37,50)           113.3791                                         !
 ! A69   A(38,37,50)           112.1656                                         !
 ! A70   A(37,38,39)           110.1659                                         !
 ! A71   A(37,38,41)           118.0805                                         !
 ! A72   A(37,38,51)           107.0141                                         !
 ! A73   A(39,38,41)           110.6961                                         !
 ! A74   A(39,38,51)           104.2447                                         !
 ! A75   A(41,38,51)           105.5507                                         !
 ! A76   A(38,39,40)           120.8166                                         !
 ! A77   A(38,39,48)           117.9961                                         !
 ! A78   A(40,39,48)           121.1714                                         !
 ! A79   A(38,41,42)           120.3003                                         !
 ! A80   A(38,41,52)           107.3676                                         !
 ! A81   A(38,41,53)           104.2195                                         !
 ! A82   A(42,41,52)           108.4532                                         !
 ! A83   A(42,41,53)           108.6854                                         !
 ! A84   A(52,41,53)           107.106                                          !
 ! A85   A(41,42,43)           117.7192                                         !
 ! A86   A(41,42,54)           105.7411                                         !
 ! A87   A(41,42,55)           110.3229                                         !
 ! A88   A(43,42,54)           107.2742                                         !
 ! A89   A(43,42,55)           109.1108                                         !
 ! A90   A(54,42,55)           105.9549                                         !
 ! A91   A(42,43,44)           110.6465                                         !
 ! A92   A(42,43,56)           109.253                                          !
 ! A93   A(42,43,57)           110.8447                                         !
 ! A94   A(44,43,56)           108.2499                                         !
 ! A95   A(44,43,57)           110.4815                                         !
 ! A96   A(56,43,57)           107.2606                                         !
 ! A97   A(43,44,45)           125.8938                                         !
 ! A98   A(43,44,58)           112.5602                                         !
 ! A99   A(45,44,58)           115.1491                                         !
 ! A100  A(44,45,46)           120.6341                                         !
 ! A101  A(44,45,47)           118.7069                                         !
 ! A102  A(46,45,47)           120.6537                                         !
 ! A103  A(45,46,59)           116.891                                          !
 ! A104  A(45,46,60)           117.2188                                         !
 ! A105  A(59,46,60)           113.9518                                         !
 ! A106  A(45,47,61)           119.6575                                         !
 ! A107  A(45,47,62)           120.3332                                         !
 ! A108  A(61,47,62)           117.3186                                         !
 ! A109  A(39,48,49)           108.6583                                         !
 ! D1    D(10,1,2,3)           -57.2085                                         !
 ! D2    D(10,1,2,5)          -179.3171                                         !
 ! D3    D(10,1,2,11)           62.9895                                         !
 ! D4    D(16,1,2,3)            62.3676                                         !
 ! D5    D(16,1,2,5)           -59.741                                          !
 ! D6    D(16,1,2,11)         -177.4344                                         !
 ! D7    D(17,1,2,3)          -173.6588                                         !
 ! D8    D(17,1,2,5)            64.2325                                         !
 ! D9    D(17,1,2,11)          -53.4609                                         !
 ! D10   D(1,2,3,4)            -59.6565                                         !
 ! D11   D(1,2,3,18)           118.2829                                         !
 ! D12   D(5,2,3,4)             61.4175                                         !
 ! D13   D(5,2,3,18)          -120.6431                                         !
 ! D14   D(11,2,3,4)          -173.3478                                         !
 ! D15   D(11,2,3,18)            4.5916                                         !
 ! D16   D(1,2,5,6)            -46.1062                                         !
 ! D17   D(1,2,5,12)          -167.724                                          !
 ! D18   D(1,2,5,13)            77.3161                                         !
 ! D19   D(3,2,5,6)           -163.6762                                         !
 ! D20   D(3,2,5,12)            74.706                                          !
 ! D21   D(3,2,5,13)           -40.2539                                         !
 ! D22   D(11,2,5,6)            68.5994                                         !
 ! D23   D(11,2,5,12)          -53.0184                                         !
 ! D24   D(11,2,5,13)         -167.9783                                         !
 ! D25   D(2,3,18,19)           -8.58                                           !
 ! D26   D(2,3,18,26)         -174.0097                                         !
 ! D27   D(4,3,18,19)          169.2521                                         !
 ! D28   D(4,3,18,26)            3.8224                                         !
 ! D29   D(2,5,6,7)            -40.45                                           !
 ! D30   D(2,5,6,14)            80.2663                                         !
 ! D31   D(2,5,6,15)          -162.3597                                         !
 ! D32   D(12,5,6,7)            79.4273                                         !
 ! D33   D(12,5,6,14)         -159.8564                                         !
 ! D34   D(12,5,6,15)          -42.4825                                         !
 ! D35   D(13,5,6,7)          -163.3172                                         !
 ! D36   D(13,5,6,14)          -42.6009                                         !
 ! D37   D(13,5,6,15)           74.773                                          !
 ! D38   D(5,6,7,8)             73.6761                                         !
 ! D39   D(5,6,7,9)           -104.5164                                         !
 ! D40   D(14,6,7,8)           -47.9762                                         !
 ! D41   D(14,6,7,9)           133.8313                                         !
 ! D42   D(15,6,7,8)          -164.6582                                         !
 ! D43   D(15,6,7,9)            17.1493                                         !
 ! D44   D(3,18,19,20)         -52.295                                          !
 ! D45   D(3,18,19,22)        -175.114                                          !
 ! D46   D(3,18,19,27)          66.2112                                         !
 ! D47   D(26,18,19,20)        112.561                                          !
 ! D48   D(26,18,19,22)        -10.258                                          !
 ! D49   D(26,18,19,27)       -128.9328                                         !
 ! D50   D(18,19,20,21)        -10.7014                                         !
 ! D51   D(18,19,20,37)        165.6305                                         !
 ! D52   D(22,19,20,21)        111.2269                                         !
 ! D53   D(22,19,20,37)        -72.4412                                         !
 ! D54   D(27,19,20,21)       -130.5607                                         !
 ! D55   D(27,19,20,37)         45.7712                                         !
 ! D56   D(18,19,22,23)        -60.423                                          !
 ! D57   D(18,19,22,28)        178.1314                                         !
 ! D58   D(18,19,22,29)         63.2718                                         !
 ! D59   D(20,19,22,23)        176.1907                                         !
 ! D60   D(20,19,22,28)         54.7451                                         !
 ! D61   D(20,19,22,29)        -60.1145                                         !
 ! D62   D(27,19,22,23)         58.8178                                         !
 ! D63   D(27,19,22,28)        -62.6278                                         !
 ! D64   D(27,19,22,29)       -177.4874                                         !
 ! D65   D(19,20,37,38)        169.2232                                         !
 ! D66   D(19,20,37,50)         17.2424                                         !
 ! D67   D(21,20,37,38)        -14.5429                                         !
 ! D68   D(21,20,37,50)       -166.5237                                         !
 ! D69   D(19,22,23,24)        179.0743                                         !
 ! D70   D(19,22,23,25)        -57.3402                                         !
 ! D71   D(19,22,23,30)         61.9394                                         !
 ! D72   D(28,22,23,24)        -59.0211                                         !
 ! D73   D(28,22,23,25)         64.5644                                         !
 ! D74   D(28,22,23,30)       -176.156                                          !
 ! D75   D(29,22,23,24)         56.4324                                         !
 ! D76   D(29,22,23,25)       -179.9822                                         !
 ! D77   D(29,22,23,30)        -60.7026                                         !
 ! D78   D(22,23,24,31)         63.7916                                         !
 ! D79   D(22,23,24,32)       -176.7822                                         !
 ! D80   D(22,23,24,33)        -56.6345                                         !
 ! D81   D(25,23,24,31)        -60.4184                                         !
 ! D82   D(25,23,24,32)         59.0078                                         !
 ! D83   D(25,23,24,33)        179.1555                                         !
 ! D84   D(30,23,24,31)       -178.4368                                         !
 ! D85   D(30,23,24,32)        -59.0106                                         !
 ! D86   D(30,23,24,33)         61.1372                                         !
 ! D87   D(22,23,25,34)       -176.1299                                         !
 ! D88   D(22,23,25,35)        -57.089                                          !
 ! D89   D(22,23,25,36)         64.3859                                         !
 ! D90   D(24,23,25,34)        -53.6673                                         !
 ! D91   D(24,23,25,35)         65.3737                                         !
 ! D92   D(24,23,25,36)       -173.1514                                         !
 ! D93   D(30,23,25,34)         64.1727                                         !
 ! D94   D(30,23,25,35)       -176.7863                                         !
 ! D95   D(30,23,25,36)        -55.3114                                         !
 ! D96   D(20,37,38,39)        143.293                                          !
 ! D97   D(20,37,38,41)         14.7826                                         !
 ! D98   D(20,37,38,51)       -103.9695                                         !
 ! D99   D(50,37,38,39)        -64.4567                                         !
 ! D100  D(50,37,38,41)        167.0329                                         !
 ! D101  D(50,37,38,51)         48.2808                                         !
 ! D102  D(37,38,39,40)        175.4487                                         !
 ! D103  D(37,38,39,48)         -3.1165                                         !
 ! D104  D(41,38,39,40)        -52.1135                                         !
 ! D105  D(41,38,39,48)        129.3212                                         !
 ! D106  D(51,38,39,40)         60.9396                                         !
 ! D107  D(51,38,39,48)       -117.6256                                         !
 ! D108  D(37,38,41,42)         67.6042                                         !
 ! D109  D(37,38,41,52)        -56.9293                                         !
 ! D110  D(37,38,41,53)       -170.3317                                         !
 ! D111  D(39,38,41,42)        -60.6568                                         !
 ! D112  D(39,38,41,52)        174.8097                                         !
 ! D113  D(39,38,41,53)         61.4073                                         !
 ! D114  D(51,38,41,42)       -172.8767                                         !
 ! D115  D(51,38,41,52)         62.5897                                         !
 ! D116  D(51,38,41,53)        -50.8127                                         !
 ! D117  D(38,39,48,49)        -16.1795                                         !
 ! D118  D(40,39,48,49)        165.2606                                         !
 ! D119  D(38,41,42,43)         67.3386                                         !
 ! D120  D(38,41,42,54)       -172.8854                                         !
 ! D121  D(38,41,42,55)        -58.7471                                         !
 ! D122  D(52,41,42,43)       -168.6427                                         !
 ! D123  D(52,41,42,54)        -48.8666                                         !
 ! D124  D(52,41,42,55)         65.2717                                         !
 ! D125  D(53,41,42,43)        -52.5267                                         !
 ! D126  D(53,41,42,54)         67.2494                                         !
 ! D127  D(53,41,42,55)       -178.6124                                         !
 ! D128  D(41,42,43,44)        -91.0465                                         !
 ! D129  D(41,42,43,56)        149.8698                                         !
 ! D130  D(41,42,43,57)         31.881                                          !
 ! D131  D(54,42,43,44)        149.9847                                         !
 ! D132  D(54,42,43,56)         30.901                                          !
 ! D133  D(54,42,43,57)        -87.0878                                         !
 ! D134  D(55,42,43,44)         35.6288                                         !
 ! D135  D(55,42,43,56)        -83.4549                                         !
 ! D136  D(55,42,43,57)        158.5563                                         !
 ! D137  D(42,43,44,45)        153.8875                                         !
 ! D138  D(42,43,44,58)        -55.8014                                         !
 ! D139  D(56,43,44,45)        -86.424                                          !
 ! D140  D(56,43,44,58)         63.887                                          !
 ! D141  D(57,43,44,45)         30.7493                                         !
 ! D142  D(57,43,44,58)       -178.9396                                         !
 ! D143  D(43,44,45,46)        -24.3752                                         !
 ! D144  D(43,44,45,47)        154.7914                                         !
 ! D145  D(58,44,45,46)       -174.0246                                         !
 ! D146  D(58,44,45,47)          5.1419                                         !
 ! D147  D(44,45,46,59)        -34.7647                                         !
 ! D148  D(44,45,46,60)       -175.3626                                         !
 ! D149  D(47,45,46,59)        146.085                                          !
 ! D150  D(47,45,46,60)          5.4871                                         !
 ! D151  D(44,45,47,61)        163.906                                          !
 ! D152  D(44,45,47,62)          2.9858                                         !
 ! D153  D(46,45,47,61)        -16.9275                                         !
 ! D154  D(46,45,47,62)       -177.8477                                         !
 --------------------------------------------------------------------------------
 Symmetry turned off by external request.
 Stoichiometry    C17H33N6O6(1+)
 Framework group  C1[X(C17H33N6O6)]
 Deg. of freedom   180
 Full point group                 C1      NOp   1
                          Input orientation:                          
 ---------------------------------------------------------------------
 Center     Atomic      Atomic             Coordinates (Angstroms)
 Number     Number       Type             X           Y           Z
 ---------------------------------------------------------------------
      1          7           0        9.049404   16.565326   14.559464
      2          6           0        9.722154   15.913482   13.381425
      3          6           0        8.873300   16.311248   12.167457
      4          8           0        7.694513   15.984150   12.156738
      5          6           0        9.811196   14.392470   13.568316
      6          6           0       10.303997   13.935777   14.967019
      7          6           0       11.450155   14.792513   15.523142
      8          8           0       11.110546   15.973079   15.939687
      9          8           0       12.610728   14.355470   15.520526
     10          1           0        9.002338   17.577875   14.384848
     11          1           0       10.726113   16.334320   13.375200
     12          1           0       10.496450   14.023357   12.796845
     13          1           0        8.829756   13.954295   13.359920
     14          1           0        9.473259   13.979294   15.681483
     15          1           0       10.629873   12.895974   14.903355
     16          1           0        8.100657   16.196896   14.674926
     17          1           0        9.732074   16.366912   15.391928
     18          7           0        9.448833   17.044759   11.174864
     19          6           0       10.756250   17.674692   11.159907
     20          6           0       10.975930   18.574150   12.411221
     21          8           0       10.068170   18.862890   13.180651
     22          6           0       10.908748   18.498067    9.860117
     23          6           0       10.802557   17.690256    8.548888
     24          6           0       10.950528   18.645965    7.355588
     25          6           0       11.835316   16.557393    8.481282
     26          1           0        8.783106   17.337076   10.468049
     27          1           0       11.535165   16.900791   11.176341
     28          1           0       11.886124   18.998604    9.870936
     29          1           0       10.155744   19.297668    9.872511
     30          1           0        9.801451   17.239862    8.493230
     31          1           0       11.946562   19.106444    7.343713
     32          1           0       10.822234   18.107545    6.411273
     33          1           0       10.206856   19.450342    7.387722
     34          1           0       11.781388   16.047552    7.514304
     35          1           0       12.855625   16.948797    8.590395
     36          1           0       11.672643   15.797829    9.254790
     37          7           0       12.292347   18.926091   12.586517
     38          6           0       12.878608   19.925669   13.507323
     39          6           0       14.227778   19.421374   14.048366
     40          8           0       14.914423   20.124669   14.756505
     41          6           0       11.995605   20.462135   14.656293
     42          6           0       11.568895   19.533161   15.805988
     43          6           0       12.665211   19.025705   16.761589
     44          7           0       13.216468   17.748218   16.286396
     45          6           0       14.445794   17.277205   16.545042
     46          7           0       15.457606   18.122478   16.855168
     47          7           0       14.647983   15.959457   16.507313
     48          8           0       14.632299   18.191371   13.687495
     49          1           0       13.866753   17.703645   13.328571
     50          1           0       12.859472   18.792379   11.754660
     51          1           0       13.141204   20.804284   12.902921
     52          1           0       11.097613   20.888673   14.205258
     53          1           0       12.573057   21.294275   15.073399
     54          1           0       10.855975   20.110556   16.405855
     55          1           0       11.010289   18.678210   15.415923
     56          1           0       12.231569   18.863989   17.756355
     57          1           0       13.458298   19.766580   16.870786
     58          1           0       12.484719   17.023046   16.154095
     59          1           0       15.458033   19.029300   16.392805
     60          1           0       16.378047   17.719722   16.969877
     61          1           0       15.590522   15.599640   16.455207
     62          1           0       13.874683   15.315923   16.235563
 ---------------------------------------------------------------------
 Rotational constants (GHZ):           0.2013905           0.1248703           0.0969573
 Standard basis: 6-31G(d) (6D, 7F)
   501 basis functions,   944 primitive gaussians,   501 cartesian basis functions
   112 alpha electrons      112 beta electrons
       nuclear repulsion energy      3257.9637291799 Hartrees.
 NAtoms=   62 NActive=   62 NUniq=   62 SFac= 1.00D+00 NAtFMM=   60 NAOKFM=T Big=T
 Integral buffers will be    131072 words long.
 Raffenetti 2 integral format.
 Two-electron integral symmetry is turned off.
 Nuclear repulsion after empirical dispersion term =     3257.8748541037 Hartrees.
 One-electron integrals computed using PRISM.
 NBasis=   501 RedAO= T EigKep=  1.75D-03  NBF=   501
 NBsUse=   501 1.00D-06 EigRej= -1.00D+00 NBFU=   501
 Initial guess from the checkpoint file:  "conf-684.chk"
 B after Tr=     0.000000    0.000000    0.000000
         Rot=    1.000000    0.000000    0.000000    0.000000 Ang=   0.00 deg.
 Requested convergence on RMS density matrix=1.00D-08 within 128 cycles.
 Requested convergence on MAX density matrix=1.00D-06.
 Requested convergence on             energy=1.00D-06.
 No special actions if energy rises.
 SCF Done:  E(RB3LYP) =  -1447.51304641     A.U. after    2 cycles
            NFock=  2  Conv=0.82D-08     -V/T= 2.0094

 **********************************************************************

            Population analysis using the SCF Density.

 **********************************************************************

 Alpha  occ. eigenvalues --  -19.32447 -19.27122 -19.26573 -19.24002 -19.22579
 Alpha  occ. eigenvalues --  -19.21231 -14.54384 -14.51704 -14.48907 -14.47785
 Alpha  occ. eigenvalues --  -14.47133 -14.47029 -10.45103 -10.44240 -10.44100
 Alpha  occ. eigenvalues --  -10.41666 -10.39382 -10.37980 -10.37627 -10.37605
 Alpha  occ. eigenvalues --  -10.33697 -10.31999 -10.31686 -10.31305 -10.30316
 Alpha  occ. eigenvalues --  -10.30294 -10.29570 -10.27745 -10.27015  -1.23366
 Alpha  occ. eigenvalues --   -1.18921  -1.16399  -1.15058  -1.14993  -1.12576
 Alpha  occ. eigenvalues --   -1.09945  -1.07573  -1.05876  -1.05635  -1.02106
 Alpha  occ. eigenvalues --   -1.00644  -0.93575  -0.92115  -0.91365  -0.88126
 Alpha  occ. eigenvalues --   -0.85843  -0.83910  -0.80750  -0.78756  -0.77429
 Alpha  occ. eigenvalues --   -0.75605  -0.74915  -0.74469  -0.73198  -0.72033
 Alpha  occ. eigenvalues --   -0.70481  -0.70090  -0.68973  -0.68685  -0.67629
 Alpha  occ. eigenvalues --   -0.67286  -0.66913  -0.64694  -0.63484  -0.62981
 Alpha  occ. eigenvalues --   -0.61691  -0.61197  -0.60738  -0.59792  -0.59310
 Alpha  occ. eigenvalues --   -0.58840  -0.57896  -0.57498  -0.56878  -0.56533
 Alpha  occ. eigenvalues --   -0.56256  -0.55872  -0.55264  -0.54530  -0.53860
 Alpha  occ. eigenvalues --   -0.53602  -0.53203  -0.52795  -0.52648  -0.52001
 Alpha  occ. eigenvalues --   -0.51401  -0.51072  -0.50746  -0.50419  -0.50187
 Alpha  occ. eigenvalues --   -0.48621  -0.48334  -0.47257  -0.46956  -0.46601
 Alpha  occ. eigenvalues --   -0.46482  -0.46027  -0.45677  -0.44372  -0.44248
 Alpha  occ. eigenvalues --   -0.43601  -0.43483  -0.42647  -0.40401  -0.39693
 Alpha  occ. eigenvalues --   -0.39108  -0.38295  -0.37903  -0.37738  -0.37138
 Alpha  occ. eigenvalues --   -0.36790  -0.35197
 Alpha virt. eigenvalues --   -0.13562  -0.12630  -0.11581  -0.09460  -0.08251
 Alpha virt. eigenvalues --   -0.06979  -0.05129  -0.04605  -0.03839  -0.03130
 Alpha virt. eigenvalues --   -0.01702  -0.00808   0.00071   0.00342   0.00691
 Alpha virt. eigenvalues --    0.01291   0.02203   0.02264   0.02784   0.03135
 Alpha virt. eigenvalues --    0.03400   0.03633   0.03880   0.04608   0.04951
 Alpha virt. eigenvalues --    0.05655   0.05845   0.06066   0.06203   0.06497
 Alpha virt. eigenvalues --    0.06729   0.07096   0.07647   0.08239   0.08480
 Alpha virt. eigenvalues --    0.08787   0.09112   0.09309   0.09951   0.10388
 Alpha virt. eigenvalues --    0.10662   0.11005   0.11318   0.11736   0.12522
 Alpha virt. eigenvalues --    0.12914   0.13889   0.14041   0.14443   0.14552
 Alpha virt. eigenvalues --    0.15315   0.16323   0.16682   0.17379   0.18058
 Alpha virt. eigenvalues --    0.19433   0.20418   0.23411   0.24196   0.25879
 Alpha virt. eigenvalues --    0.26693   0.27347   0.28682   0.29595   0.30505
 Alpha virt. eigenvalues --    0.34621   0.35825   0.36299   0.37731   0.38416
 Alpha virt. eigenvalues --    0.39045   0.39968   0.40045   0.40990   0.41055
 Alpha virt. eigenvalues --    0.41436   0.41846   0.42109   0.42334   0.44219
 Alpha virt. eigenvalues --    0.44752   0.45373   0.46080   0.46853   0.47530
 Alpha virt. eigenvalues --    0.47810   0.48416   0.49710   0.49922   0.50480
 Alpha virt. eigenvalues --    0.50949   0.51547   0.51880   0.52619   0.52947
 Alpha virt. eigenvalues --    0.53847   0.54010   0.55281   0.55779   0.56248
 Alpha virt. eigenvalues --    0.56876   0.57364   0.58222   0.59215   0.59789
 Alpha virt. eigenvalues --    0.60380   0.60507   0.60736   0.61263   0.61534
 Alpha virt. eigenvalues --    0.62079   0.62662   0.63542   0.64394   0.64470
 Alpha virt. eigenvalues --    0.66199   0.67271   0.67867   0.68365   0.69263
 Alpha virt. eigenvalues --    0.69797   0.70392   0.70918   0.71552   0.72662
 Alpha virt. eigenvalues --    0.73093   0.73350   0.73768   0.74276   0.74548
 Alpha virt. eigenvalues --    0.74853   0.75589   0.75941   0.76087   0.76990
 Alpha virt. eigenvalues --    0.77101   0.77718   0.78142   0.78538   0.79338
 Alpha virt. eigenvalues --    0.79861   0.80347   0.81641   0.82114   0.82508
 Alpha virt. eigenvalues --    0.82791   0.83080   0.83584   0.83689   0.83865
 Alpha virt. eigenvalues --    0.84434   0.84821   0.85486   0.85716   0.86295
 Alpha virt. eigenvalues --    0.86996   0.87479   0.88085   0.88805   0.89177
 Alpha virt. eigenvalues --    0.90273   0.90722   0.91482   0.91970   0.93674
 Alpha virt. eigenvalues --    0.93895   0.94001   0.94269   0.96257   0.97299
 Alpha virt. eigenvalues --    0.98356   0.98669   0.99621   1.00784   1.01785
 Alpha virt. eigenvalues --    1.02122   1.03754   1.04837   1.05558   1.07246
 Alpha virt. eigenvalues --    1.07608   1.08962   1.09068   1.09373   1.10763
 Alpha virt. eigenvalues --    1.11328   1.13231   1.14992   1.15865   1.16884
 Alpha virt. eigenvalues --    1.18140   1.20307   1.20779   1.22101   1.23494
 Alpha virt. eigenvalues --    1.24675   1.25915   1.27024   1.28634   1.29617
 Alpha virt. eigenvalues --    1.30597   1.30898   1.31711   1.33092   1.34006
 Alpha virt. eigenvalues --    1.35153   1.35936   1.36727   1.36850   1.37259
 Alpha virt. eigenvalues --    1.38611   1.39589   1.41656   1.42605   1.43556
 Alpha virt. eigenvalues --    1.45946   1.46613   1.48575   1.49345   1.51547
 Alpha virt. eigenvalues --    1.52524   1.53336   1.53600   1.54461   1.55416
 Alpha virt. eigenvalues --    1.56110   1.57529   1.57553   1.58456   1.60025
 Alpha virt. eigenvalues --    1.60844   1.61686   1.62707   1.63102   1.64076
 Alpha virt. eigenvalues --    1.66219   1.66449   1.67126   1.68224   1.68936
 Alpha virt. eigenvalues --    1.69209   1.70423   1.70965   1.71083   1.72112
 Alpha virt. eigenvalues --    1.72518   1.73458   1.73676   1.74468   1.75473
 Alpha virt. eigenvalues --    1.76052   1.76544   1.76806   1.77186   1.78877
 Alpha virt. eigenvalues --    1.79569   1.80317   1.80619   1.81713   1.82265
 Alpha virt. eigenvalues --    1.83156   1.83496   1.84251   1.86177   1.86649
 Alpha virt. eigenvalues --    1.87260   1.87477   1.88412   1.89482   1.90288
 Alpha virt. eigenvalues --    1.91124   1.91640   1.92615   1.93619   1.94503
 Alpha virt. eigenvalues --    1.95049   1.96278   1.96319   1.96673   1.98243
 Alpha virt. eigenvalues --    1.98519   1.98995   2.00151   2.00820   2.03382
 Alpha virt. eigenvalues --    2.04145   2.05065   2.05862   2.08413   2.08809
 Alpha virt. eigenvalues --    2.10360   2.11185   2.13389   2.13445   2.14481
 Alpha virt. eigenvalues --    2.15085   2.16574   2.17777   2.17938   2.19555
 Alpha virt. eigenvalues --    2.20590   2.22030   2.22295   2.24732   2.25468
 Alpha virt. eigenvalues --    2.25812   2.27385   2.27602   2.27874   2.28870
 Alpha virt. eigenvalues --    2.29876   2.31898   2.32857   2.33715   2.35408
 Alpha virt. eigenvalues --    2.36591   2.36960   2.37500   2.40166   2.40705
 Alpha virt. eigenvalues --    2.41094   2.41255   2.42339   2.43757   2.46237
 Alpha virt. eigenvalues --    2.48068   2.48983   2.51213   2.51987   2.52681
 Alpha virt. eigenvalues --    2.53165   2.54384   2.55240   2.56523   2.57147
 Alpha virt. eigenvalues --    2.57774   2.58663   2.60302   2.61520   2.62910
 Alpha virt. eigenvalues --    2.64745   2.65454   2.66301   2.68488   2.70882
 Alpha virt. eigenvalues --    2.72865   2.74387   2.79396   2.83477   2.86123
 Alpha virt. eigenvalues --    2.88339   2.89389   2.90166   2.91801   2.93506
 Alpha virt. eigenvalues --    2.98241   2.98817   3.02070   3.02874   3.06601
 Alpha virt. eigenvalues --    3.73364   3.74482   3.75864   3.83769   3.87110
 Alpha virt. eigenvalues --    3.90507   3.95881   3.99888   4.02667   4.04258
 Alpha virt. eigenvalues --    4.05643   4.11095   4.12520   4.15464   4.18052
 Alpha virt. eigenvalues --    4.18889   4.20409   4.23802   4.26493   4.27277
 Alpha virt. eigenvalues --    4.30813   4.31999   4.36707   4.43375   4.44574
 Alpha virt. eigenvalues --    4.48495   4.52722   4.59793   4.64822
          Condensed to atoms (all electrons):
 Mulliken charges:
               1
     1  N   -0.777476
     2  C   -0.103847
     3  C    0.625561
     4  O   -0.496226
     5  C   -0.293719
     6  C   -0.367087
     7  C    0.618419
     8  O   -0.650624
     9  O   -0.538507
    10  H    0.422430
    11  H    0.177622
    12  H    0.181852
    13  H    0.198668
    14  H    0.165222
    15  H    0.197986
    16  H    0.398313
    17  H    0.445670
    18  N   -0.603004
    19  C   -0.053979
    20  C    0.630884
    21  O   -0.525773
    22  C   -0.309878
    23  C   -0.080928
    24  C   -0.448539
    25  C   -0.456720
    26  H    0.359543
    27  H    0.172315
    28  H    0.143563
    29  H    0.172793
    30  H    0.142803
    31  H    0.151176
    32  H    0.171763
    33  H    0.156913
    34  H    0.178615
    35  H    0.142538
    36  H    0.146159
    37  N   -0.673731
    38  C   -0.052465
    39  C    0.638755
    40  O   -0.474192
    41  C   -0.275438
    42  C   -0.291585
    43  C   -0.154566
    44  N   -0.671206
    45  C    0.763709
    46  N   -0.755112
    47  N   -0.790409
    48  O   -0.564689
    49  H    0.425445
    50  H    0.351190
    51  H    0.214196
    52  H    0.187881
    53  H    0.186010
    54  H    0.172037
    55  H    0.146708
    56  H    0.185526
    57  H    0.184516
    58  H    0.417527
    59  H    0.397558
    60  H    0.357091
    61  H    0.353770
    62  H    0.426974
 Sum of Mulliken charges =   1.00000
 Mulliken charges with hydrogens summed into heavy atoms:
               1
     1  N    0.488936
     2  C    0.073775
     3  C    0.625561
     4  O   -0.496226
     5  C    0.086802
     6  C   -0.003879
     7  C    0.618419
     8  O   -0.650624
     9  O   -0.538507
    18  N   -0.243461
    19  C    0.118337
    20  C    0.630884
    21  O   -0.525773
    22  C    0.006478
    23  C    0.061875
    24  C    0.031312
    25  C    0.010592
    37  N   -0.322541
    38  C    0.161730
    39  C    0.638755
    40  O   -0.474192
    41  C    0.098453
    42  C    0.027160
    43  C    0.215476
    44  N   -0.253679
    45  C    0.763709
    46  N   -0.000463
    47  N   -0.009665
    48  O   -0.139244
 Electronic spatial extent (au):  <R**2>=         511247.7379
 Charge=              1.0000 electrons
 Dipole moment (field-independent basis, Debye):
    X=             58.1158    Y=             85.5644    Z=             64.2830  Tot=            121.7827
 Quadrupole moment (field-independent basis, Debye-Ang):
   XX=            559.7585   YY=           1364.3530   ZZ=            733.8306
   XY=           1035.8487   XZ=            788.0103   YZ=           1142.2374
 Traceless Quadrupole moment (field-independent basis, Debye-Ang):
   XX=           -326.2222   YY=            478.3723   ZZ=           -152.1501
   XY=           1035.8487   XZ=            788.0103   YZ=           1142.2374
 Octapole moment (field-independent basis, Debye-Ang**2):
  XXX=           3601.6490  YYY=          18779.6196  ZZZ=           6329.6163  XYY=          16572.2907
  XXY=          10002.0869  XXZ=           7846.2146  XZZ=           9232.7945  YZZ=          13067.1412
  YYZ=          18151.4825  XYZ=          14013.2443
 Hexadecapole moment (field-independent basis, Debye-Ang**3):
 XXXX=         -12599.6036 YYYY=         187918.3144 ZZZZ=           5682.1387 XXXY=          64062.4049
 XXXZ=          55604.2767 YYYX=         229467.7064 YYYZ=         248543.3978 ZZZX=          84471.5831
 ZZZY=         114391.8030 XXYY=         155083.9803 XXZZ=          91584.5607 YYZZ=         202077.6425
 XXYZ=         139684.2948 YYXZ=         223398.0268 ZZXY=         164293.3657
 N-N= 3.257874854104D+03 E-N=-9.863677853340D+03  KE= 1.434079419604D+03
 Unable to Open any file for archive entry.
 1\1\GINC-VIM-000\SP\RB3LYP\6-31G(d)\C17H33N6O6(1+)\KENGMITH\24-May-202
 2\0\\# B3LYP/6-31G* empiricaldispersion=gd3 guess=read geom=check nosy
 mm integral(ultrafinegrid)\\Candidate Structure: Conf:684 Charge calc 
 in gas phase\\1,1\N,0,9.0494039197,16.5653257461,14.5594644625\C,0,9.7
 22153625,15.9134817741,13.3814246709\C,0,8.8732999952,16.3112481912,12
 .1674569895\O,0,7.6945128263,15.9841504753,12.1567382133\C,0,9.8111958
 821,14.3924704022,13.5683156493\C,0,10.3039971676,13.9357765627,14.967
 0185566\C,0,11.4501554762,14.7925132563,15.5231422591\O,0,11.110545878
 8,15.973079435,15.9396867742\O,0,12.6107282064,14.3554695473,15.520525
 8293\H,0,9.002338416,17.5778747028,14.3848480654\H,0,10.7261132401,16.
 3343201092,13.3752003237\H,0,10.4964498199,14.0233566231,12.7968446674
 \H,0,8.8297561461,13.9542945492,13.3599201882\H,0,9.4732590756,13.9792
 937503,15.6814826511\H,0,10.6298727303,12.8959744193,14.9033552457\H,0
 ,8.1006567298,16.1968960877,14.6749262983\H,0,9.7320738746,16.36691163
 17,15.3919282887\N,0,9.4488331629,17.0447592462,11.1748636804\C,0,10.7
 56250458,17.674692498,11.1599072994\C,0,10.9759300778,18.5741500612,12
 .4112212808\O,0,10.0681696738,18.8628903535,13.1806508221\C,0,10.90874
 81632,18.4980669845,9.8601169912\C,0,10.8025569175,17.6902559145,8.548
 8884959\C,0,10.9505275792,18.6459648219,7.3555879126\C,0,11.835316224,
 16.5573926806,8.4812821868\H,0,8.7831059363,17.337075611,10.4680489213
 \H,0,11.5351645749,16.900790965,11.1763413374\H,0,11.8861238731,18.998
 604213,9.8709355184\H,0,10.1557438097,19.2976684128,9.8725114833\H,0,9
 .8014514252,17.2398615113,8.4932301726\H,0,11.9465620167,19.1064440685
 ,7.3437125321\H,0,10.8222339104,18.1075452844,6.4112725018\H,0,10.2068
 564036,19.4503424522,7.3877224278\H,0,11.7813878737,16.0475524464,7.51
 4304312\H,0,12.8556245341,16.9487965177,8.5903945137\H,0,11.6726427834
 ,15.7978294091,9.2547900083\N,0,12.2923470608,18.92609126,12.586517318
 3\C,0,12.8786081394,19.9256691867,13.5073225281\C,0,14.2277777424,19.4
 213740116,14.0483660942\O,0,14.9144228397,20.1246691579,14.7565045324\
 C,0,11.9956053148,20.4621352717,14.6562927381\C,0,11.5688950999,19.533
 160625,15.8059881016\C,0,12.6652112266,19.0257047945,16.761588631\N,0,
 13.2164682169,17.7482178894,16.2863955285\C,0,14.4457938828,17.2772048
 406,16.5450424343\N,0,15.457605554,18.1224776027,16.8551679235\N,0,14.
 6479830663,15.9594566941,16.5073126798\O,0,14.6322985392,18.1913710051
 ,13.6874949843\H,0,13.8667527499,17.7036448354,13.3285709553\H,0,12.85
 94715462,18.7923788696,11.754660232\H,0,13.1412040121,20.8042839387,12
 .9029209157\H,0,11.0976134135,20.8886733561,14.2052582855\H,0,12.57305
 74186,21.2942753839,15.0733985959\H,0,10.855975199,20.1105555944,16.40
 58547134\H,0,11.0102888176,18.6782095516,15.4159234653\H,0,12.23156875
 06,18.8639885374,17.7563545678\H,0,13.4582979086,19.7665800613,16.8707
 861002\H,0,12.4847194322,17.0230464428,16.1540954759\H,0,15.4580325695
 ,19.0293003512,16.3928053376\H,0,16.3780466648,17.7197224342,16.969876
 6093\H,0,15.5905217841,15.5996400955,16.4552072233\H,0,13.8746825232,1
 5.3159234534,16.2355629174\\Version=ES64L-G16RevC.01\HF=-1447.5130464\
 RMSD=8.219e-09\Dipole=0.730508,0.6695445,-0.2169611\Quadrupole=-242.53
 82386,355.6580877,-113.1198491,770.1280857,585.8663558,849.2254986\PG=
 C01 [X(C17H33N6O6)]\\@
 The archive entry for this job was punched.


 I WISH TO HAVE NO CONNECTION WITH ANY SHIP THAT DOES NOT SAIL FAST,
 FOR I INTEND TO GO IN HARM'S WAY.
     -- JOHN PAUL JONES, USN 1747-1792
 Job cpu time:       0 days  0 hours  2 minutes 38.4 seconds.
 Elapsed time:       0 days  0 hours  0 minutes 40.1 seconds.
 File lengths (MBytes):  RWF=    248 Int=      0 D2E=      0 Chk=     32 Scr=     16
 Normal termination of Gaussian 16 at Tue May 24 03:34:18 2022.
