 Entering Gaussian System, Link 0=/opt/software/Gaussian/g16-AVX-C.01/g16/g16
 Input=charge-conf-34.com
 Output=charge-conf-34.log
 Initial command:
 /opt/software/Gaussian/g16-AVX-C.01/g16/l1.exe "/mnt/gs18/scratch/users/kengmith/Gau-33941.inp" -scrdir="/mnt/gs18/scratch/users/kengmith/"
 Entering Link 1 = /opt/software/Gaussian/g16-AVX-C.01/g16/l1.exe PID=     33963.
  
 Copyright (c) 1988-2019, Gaussian, Inc.  All Rights Reserved.
  
 This is part of the Gaussian(R) 16 program.  It is based on
 the Gaussian(R) 09 system (copyright 2009, Gaussian, Inc.),
 the Gaussian(R) 03 system (copyright 2003, Gaussian, Inc.),
 the Gaussian(R) 98 system (copyright 1998, Gaussian, Inc.),
 the Gaussian(R) 94 system (copyright 1995, Gaussian, Inc.),
 the Gaussian 92(TM) system (copyright 1992, Gaussian, Inc.),
 the Gaussian 90(TM) system (copyright 1990, Gaussian, Inc.),
 the Gaussian 88(TM) system (copyright 1988, Gaussian, Inc.),
 the Gaussian 86(TM) system (copyright 1986, Carnegie Mellon
 University), and the Gaussian 82(TM) system (copyright 1983,
 Carnegie Mellon University). Gaussian is a federally registered
 trademark of Gaussian, Inc.
  
 This software contains proprietary and confidential information,
 including trade secrets, belonging to Gaussian, Inc.
  
 This software is provided under written license and may be
 used, copied, transmitted, or stored only in accord with that
 written license.
  
 The following legend is applicable only to US Government
 contracts under FAR:
  
                    RESTRICTED RIGHTS LEGEND
  
 Use, reproduction and disclosure by the US Government is
 subject to restrictions as set forth in subparagraphs (a)
 and (c) of the Commercial Computer Software - Restricted
 Rights clause in FAR 52.227-19.
  
 Gaussian, Inc.
 340 Quinnipiac St., Bldg. 40, Wallingford CT 06492
  
  
 ---------------------------------------------------------------
 Warning -- This program may not be used in any manner that
 competes with the business of Gaussian, Inc. or will provide
 assistance to any competitor of Gaussian, Inc.  The licensee
 of this program is prohibited from giving any competitor of
 Gaussian, Inc. access to this program.  By using this program,
 the user acknowledges that Gaussian, Inc. is engaged in the
 business of creating and licensing software in the field of
 computational chemistry and represents and warrants to the
 licensee that it is not a competitor of Gaussian, Inc. and that
 it will not use this program in any manner prohibited above.
 ---------------------------------------------------------------
  

 Cite this work as:
 Gaussian 16, Revision C.01,
 M. J. Frisch, G. W. Trucks, H. B. Schlegel, G. E. Scuseria, 
 M. A. Robb, J. R. Cheeseman, G. Scalmani, V. Barone, 
 G. A. Petersson, H. Nakatsuji, X. Li, M. Caricato, A. V. Marenich, 
 J. Bloino, B. G. Janesko, R. Gomperts, B. Mennucci, H. P. Hratchian, 
 J. V. Ortiz, A. F. Izmaylov, J. L. Sonnenberg, D. Williams-Young, 
 F. Ding, F. Lipparini, F. Egidi, J. Goings, B. Peng, A. Petrone, 
 T. Henderson, D. Ranasinghe, V. G. Zakrzewski, J. Gao, N. Rega, 
 G. Zheng, W. Liang, M. Hada, M. Ehara, K. Toyota, R. Fukuda, 
 J. Hasegawa, M. Ishida, T. Nakajima, Y. Honda, O. Kitao, H. Nakai, 
 T. Vreven, K. Throssell, J. A. Montgomery, Jr., J. E. Peralta, 
 F. Ogliaro, M. J. Bearpark, J. J. Heyd, E. N. Brothers, K. N. Kudin, 
 V. N. Staroverov, T. A. Keith, R. Kobayashi, J. Normand, 
 K. Raghavachari, A. P. Rendell, J. C. Burant, S. S. Iyengar, 
 J. Tomasi, M. Cossi, J. M. Millam, M. Klene, C. Adamo, R. Cammi, 
 J. W. Ochterski, R. L. Martin, K. Morokuma, O. Farkas, 
 J. B. Foresman, and D. J. Fox, Gaussian, Inc., Wallingford CT, 2019.
 
 ******************************************
 Gaussian 16:  ES64L-G16RevC.01  3-Jul-2019
                24-May-2022 
 ******************************************
 %mem=8gb
 %nproc=4
 Will use up to    4 processors via shared memory.
 %chk=conf-34.chk
 ----------------------------------------------------------------------
 # B3LYP/6-31G* empiricaldispersion=gd3 guess=read geom=check nosymm in
 tegral(ultrafinegrid)
 ----------------------------------------------------------------------
 1/29=2,38=1,172=1/1;
 2/12=2,15=1,40=1/2;
 3/5=1,6=6,7=1,11=2,14=-4,25=1,30=1,74=-5,75=-5,116=-2,124=31/1,2,3;
 4/5=1/1;
 5/5=2,38=6/2;
 6/7=2,8=2,9=2,10=2,28=1/1;
 99/5=1,9=1/99;
 -----------------------------------------------------
 Candidate Structure: Conf:34 Charge calc in gas phase
 -----------------------------------------------------
 Structure from the checkpoint file:  "conf-34.chk"
 Charge =  1 Multiplicity = 1
 Redundant internal coordinates found in file.  (old form).
 N,0,14.5122823765,17.4621198915,13.3764582375
 C,0,13.7843449242,18.6524248187,13.9296034232
 C,0,13.8912164859,19.7368103202,12.8554293417
 O,0,15.0034063415,20.1341630795,12.5390955902
 C,0,14.4355137133,19.0536353042,15.2691806231
 C,0,13.8121457479,18.3808247364,16.504427997
 C,0,13.5421107814,16.8652667605,16.4964731556
 O,0,13.8668811871,16.1519486626,15.4680681013
 O,0,12.9484062538,16.4160957635,17.4911112751
 H,0,14.4422601527,16.7394950981,14.1885701193
 H,0,12.760541474,18.3167768189,14.0993183565
 H,0,14.3486850606,20.138546593,15.3870086295
 H,0,15.5118335863,18.8556595946,15.2071825237
 H,0,14.4257269174,18.5984357685,17.3854438051
 H,0,12.8379384773,18.8396659138,16.7160767166
 H,0,14.0396169779,17.1530110896,12.5146111821
 H,0,15.4731279853,17.7349657758,13.1457616469
 N,0,12.7381353456,20.2193551089,12.3053265343
 C,0,11.4242204851,19.59272651,12.3097891292
 C,0,11.4833530612,18.1600990208,11.6986528515
 O,0,12.5505035358,17.6503447907,11.3466235702
 C,0,10.4266457113,20.5077096998,11.566228988
 C,0,10.2973418748,21.9353565452,12.137430208
 C,0,9.2816649415,22.7259393726,11.299616983
 C,0,9.905300356,21.9312175126,13.6210669241
 H,0,12.9237859221,20.8630022508,11.5425152302
 H,0,11.0785850713,19.4825996846,13.3450735778
 H,0,9.4320638663,20.0441122481,11.5874947011
 H,0,10.7188476771,20.5534930753,10.5079111382
 H,0,11.2710430489,22.4356145479,12.046784632
 H,0,9.2148287749,23.7616736847,11.6477823371
 H,0,9.5608175229,22.7453096933,10.2398549868
 H,0,8.2803114114,22.2832961993,11.3767888418
 H,0,9.7513530075,22.9539191616,13.979712277
 H,0,8.9679963729,21.3811971185,13.7793056719
 H,0,10.6799780986,21.4810886924,14.2526855738
 N,0,10.3014239413,17.5002478773,11.645367776
 C,0,10.0951421406,16.2545438798,10.8835662543
 C,0,8.6050672798,15.9049050646,10.8695508881
 O,0,8.1730216127,14.7857304611,10.7455158127
 C,0,10.9393723402,15.0397587233,11.3146899438
 C,0,10.6949212342,14.4543562609,12.7138348814
 C,0,11.0172436691,15.42185151,13.8682597998
 N,0,11.5430811024,14.7864192723,15.0786053426
 C,0,10.809671585,14.2725712242,16.0677866776
 N,0,9.5555424182,13.8257979822,15.8145397005
 N,0,11.3271542466,14.2304035082,17.293852394
 O,0,7.8181177099,17.0040925531,10.9780171977
 H,0,6.8893458695,16.7070072488,10.9200297816
 H,0,9.4588558335,18.025103677,11.8416433377
 H,0,10.3571623947,16.4602911966,9.8342879916
 H,0,11.9896752785,15.3179730415,11.2064673472
 H,0,10.7319997112,14.258044135,10.5778234485
 H,0,9.659227363,14.0968160658,12.7786702939
 H,0,11.3424611878,13.5758510677,12.8150669788
 H,0,10.14724908,16.0389587655,14.1215256786
 H,0,11.8124875185,16.1021180878,13.5548404296
 H,0,12.5115798369,15.07100453,15.3191298056
 H,0,9.3252784082,13.4970733243,14.8877784573
 H,0,8.9872890704,13.4697348217,16.5697249515
 H,0,10.874657986,13.7150118872,18.0348473625
 H,0,12.0744615136,14.9236738076,17.5193338367
 Recover connectivity data from disk.
                           ----------------------------
                           !    Current Parameters    !
                           ! (Angstroms and Degrees)  !
 --------------------------                            --------------------------
 ! Name  Definition              Value                                          !
 --------------------------------------------------------------------------------
 ! R1    R(1,2)                  1.5009                                         !
 ! R2    R(1,10)                 1.0893                                         !
 ! R3    R(1,16)                 1.0304                                         !
 ! R4    R(1,17)                 1.0251                                         !
 ! R5    R(2,3)                  1.5301                                         !
 ! R6    R(2,5)                  1.5425                                         !
 ! R7    R(2,11)                 1.0907                                         !
 ! R8    R(3,4)                  1.2227                                         !
 ! R9    R(3,18)                 1.3657                                         !
 ! R10   R(5,6)                  1.5385                                         !
 ! R11   R(5,12)                 1.0947                                         !
 ! R12   R(5,13)                 1.0961                                         !
 ! R13   R(6,7)                  1.5394                                         !
 ! R14   R(6,14)                 1.0955                                         !
 ! R15   R(6,15)                 1.0975                                         !
 ! R16   R(7,8)                  1.293                                          !
 ! R17   R(7,9)                  1.2424                                         !
 ! R18   R(18,19)                1.4557                                         !
 ! R19   R(18,26)                1.0152                                         !
 ! R20   R(19,20)                1.5587                                         !
 ! R21   R(19,22)                1.5444                                         !
 ! R22   R(19,27)                1.097                                          !
 ! R23   R(20,21)                1.2339                                         !
 ! R24   R(20,37)                1.3547                                         !
 ! R25   R(22,23)                1.5431                                         !
 ! R26   R(22,28)                1.0975                                         !
 ! R27   R(22,29)                1.0989                                         !
 ! R28   R(23,24)                1.5358                                         !
 ! R29   R(23,25)                1.5346                                         !
 ! R30   R(23,30)                1.0984                                         !
 ! R31   R(24,31)                1.0947                                         !
 ! R32   R(24,32)                1.0961                                         !
 ! R33   R(24,33)                1.0975                                         !
 ! R34   R(25,34)                1.0946                                         !
 ! R35   R(25,35)                1.0982                                         !
 ! R36   R(25,36)                1.0962                                         !
 ! R37   R(37,38)                1.4747                                         !
 ! R38   R(37,50)                1.0119                                         !
 ! R39   R(38,39)                1.5306                                         !
 ! R40   R(38,41)                1.5409                                         !
 ! R41   R(38,51)                1.1009                                         !
 ! R42   R(39,40)                1.2061                                         !
 ! R43   R(39,48)                1.3562                                         !
 ! R44   R(41,42)                1.5362                                         !
 ! R45   R(41,52)                1.0919                                         !
 ! R46   R(41,53)                1.0941                                         !
 ! R47   R(42,43)                1.5403                                         !
 ! R48   R(42,54)                1.0976                                         !
 ! R49   R(42,55)                1.0961                                         !
 ! R50   R(43,44)                1.4647                                         !
 ! R51   R(43,56)                1.0963                                         !
 ! R52   R(43,57)                1.0924                                         !
 ! R53   R(44,45)                1.3343                                         !
 ! R54   R(44,58)                1.0377                                         !
 ! R55   R(45,46)                1.3552                                         !
 ! R56   R(45,47)                1.3315                                         !
 ! R57   R(46,59)                1.0099                                         !
 ! R58   R(46,60)                1.0099                                         !
 ! R59   R(47,61)                1.0097                                         !
 ! R60   R(47,62)                1.044                                          !
 ! R61   R(48,49)                0.9769                                         !
 ! A1    A(2,1,10)             102.7186                                         !
 ! A2    A(2,1,16)             108.8859                                         !
 ! A3    A(2,1,17)             109.0532                                         !
 ! A4    A(10,1,16)            113.2707                                         !
 ! A5    A(10,1,17)            113.8651                                         !
 ! A6    A(16,1,17)            108.7578                                         !
 ! A7    A(1,2,3)              105.6312                                         !
 ! A8    A(1,2,5)              108.7588                                         !
 ! A9    A(1,2,11)             105.5777                                         !
 ! A10   A(3,2,5)              113.3185                                         !
 ! A11   A(3,2,11)             113.1347                                         !
 ! A12   A(5,2,11)             109.9475                                         !
 ! A13   A(2,3,4)              118.3913                                         !
 ! A14   A(2,3,18)             118.3089                                         !
 ! A15   A(4,3,18)             123.2979                                         !
 ! A16   A(2,5,6)              114.3588                                         !
 ! A17   A(2,5,12)             108.5268                                         !
 ! A18   A(2,5,13)             108.567                                          !
 ! A19   A(6,5,12)             108.3505                                         !
 ! A20   A(6,5,13)             111.3629                                         !
 ! A21   A(12,5,13)            105.2458                                         !
 ! A22   A(5,6,7)              119.8309                                         !
 ! A23   A(5,6,14)             109.3838                                         !
 ! A24   A(5,6,15)             109.3701                                         !
 ! A25   A(7,6,14)             107.3358                                         !
 ! A26   A(7,6,15)             104.8858                                         !
 ! A27   A(14,6,15)            105.014                                          !
 ! A28   A(6,7,8)              120.2091                                         !
 ! A29   A(6,7,9)              115.8243                                         !
 ! A30   A(8,7,9)              123.8707                                         !
 ! A31   A(3,18,19)            127.4999                                         !
 ! A32   A(3,18,26)            111.8565                                         !
 ! A33   A(19,18,26)           116.122                                          !
 ! A34   A(18,19,20)           111.1134                                         !
 ! A35   A(18,19,22)           109.0569                                         !
 ! A36   A(18,19,27)           109.2987                                         !
 ! A37   A(20,19,22)           112.3507                                         !
 ! A38   A(20,19,27)           106.8409                                         !
 ! A39   A(22,19,27)           108.0789                                         !
 ! A40   A(19,20,21)           121.6266                                         !
 ! A41   A(19,20,37)           115.469                                          !
 ! A42   A(21,20,37)           122.8268                                         !
 ! A43   A(19,22,23)           115.0891                                         !
 ! A44   A(19,22,28)           109.0115                                         !
 ! A45   A(19,22,29)           108.4579                                         !
 ! A46   A(23,22,28)           107.9201                                         !
 ! A47   A(23,22,29)           109.8914                                         !
 ! A48   A(28,22,29)           106.0949                                         !
 ! A49   A(22,23,24)           109.2534                                         !
 ! A50   A(22,23,25)           112.1351                                         !
 ! A51   A(22,23,30)           108.4529                                         !
 ! A52   A(24,23,25)           111.0917                                         !
 ! A53   A(24,23,30)           107.8656                                         !
 ! A54   A(25,23,30)           107.9071                                         !
 ! A55   A(23,24,31)           110.7271                                         !
 ! A56   A(23,24,32)           111.5999                                         !
 ! A57   A(23,24,33)           110.9418                                         !
 ! A58   A(31,24,32)           107.8381                                         !
 ! A59   A(31,24,33)           107.6683                                         !
 ! A60   A(32,24,33)           107.907                                          !
 ! A61   A(23,25,34)           110.4978                                         !
 ! A62   A(23,25,35)           111.02                                           !
 ! A63   A(23,25,36)           112.1868                                         !
 ! A64   A(34,25,35)           107.4981                                         !
 ! A65   A(34,25,36)           107.1121                                         !
 ! A66   A(35,25,36)           108.3286                                         !
 ! A67   A(20,37,38)           123.6293                                         !
 ! A68   A(20,37,50)           117.7881                                         !
 ! A69   A(38,37,50)           114.9533                                         !
 ! A70   A(37,38,39)           109.5039                                         !
 ! A71   A(37,38,41)           116.4096                                         !
 ! A72   A(37,38,51)           107.5298                                         !
 ! A73   A(39,38,41)           110.8458                                         !
 ! A74   A(39,38,51)           105.4066                                         !
 ! A75   A(41,38,51)           106.4759                                         !
 ! A76   A(38,39,40)           124.1703                                         !
 ! A77   A(38,39,48)           112.2731                                         !
 ! A78   A(40,39,48)           123.5359                                         !
 ! A79   A(38,41,42)           117.9083                                         !
 ! A80   A(38,41,52)           107.3621                                         !
 ! A81   A(38,41,53)           105.7236                                         !
 ! A82   A(42,41,52)           109.9025                                         !
 ! A83   A(42,41,53)           108.1174                                         !
 ! A84   A(52,41,53)           107.3143                                         !
 ! A85   A(41,42,43)           114.2007                                         !
 ! A86   A(41,42,54)           109.1522                                         !
 ! A87   A(41,42,55)           107.1897                                         !
 ! A88   A(43,42,54)           110.9645                                         !
 ! A89   A(43,42,55)           108.0949                                         !
 ! A90   A(54,42,55)           106.9135                                         !
 ! A91   A(42,43,44)           114.9583                                         !
 ! A92   A(42,43,56)           111.1398                                         !
 ! A93   A(42,43,57)           109.1738                                         !
 ! A94   A(44,43,56)           109.7681                                         !
 ! A95   A(44,43,57)           104.2347                                         !
 ! A96   A(56,43,57)           107.0644                                         !
 ! A97   A(43,44,45)           125.6165                                         !
 ! A98   A(43,44,58)           114.0564                                         !
 ! A99   A(45,44,58)           116.5369                                         !
 ! A100  A(44,45,46)           119.8069                                         !
 ! A101  A(44,45,47)           118.7653                                         !
 ! A102  A(46,45,47)           121.4198                                         !
 ! A103  A(45,46,59)           119.3261                                         !
 ! A104  A(45,46,60)           119.8141                                         !
 ! A105  A(59,46,60)           116.3035                                         !
 ! A106  A(45,47,61)           121.1835                                         !
 ! A107  A(45,47,62)           117.1329                                         !
 ! A108  A(61,47,62)           120.0833                                         !
 ! A109  A(39,48,49)           107.4854                                         !
 ! D1    D(10,1,2,3)           177.7928                                         !
 ! D2    D(10,1,2,5)            55.8462                                         !
 ! D3    D(10,1,2,11)          -62.105                                          !
 ! D4    D(16,1,2,3)           -61.8579                                         !
 ! D5    D(16,1,2,5)           176.1955                                         !
 ! D6    D(16,1,2,11)           58.2443                                         !
 ! D7    D(17,1,2,3)            56.6782                                         !
 ! D8    D(17,1,2,5)           -65.2683                                         !
 ! D9    D(17,1,2,11)          176.7804                                         !
 ! D10   D(1,2,3,4)            -61.2944                                         !
 ! D11   D(1,2,3,18)           119.1896                                         !
 ! D12   D(5,2,3,4)             57.6684                                         !
 ! D13   D(5,2,3,18)          -121.8476                                         !
 ! D14   D(11,2,3,4)          -176.3051                                         !
 ! D15   D(11,2,3,18)            4.1789                                         !
 ! D16   D(1,2,5,6)            -90.8604                                         !
 ! D17   D(1,2,5,12)           148.0614                                         !
 ! D18   D(1,2,5,13)            34.1625                                         !
 ! D19   D(3,2,5,6)            151.9931                                         !
 ! D20   D(3,2,5,12)            30.9149                                         !
 ! D21   D(3,2,5,13)           -82.984                                          !
 ! D22   D(11,2,5,6)            24.2885                                         !
 ! D23   D(11,2,5,12)          -96.7897                                         !
 ! D24   D(11,2,5,13)          149.3114                                         !
 ! D25   D(2,3,18,19)          -19.3637                                         !
 ! D26   D(2,3,18,26)         -174.2856                                         !
 ! D27   D(4,3,18,19)          161.1457                                         !
 ! D28   D(4,3,18,26)            6.2238                                         !
 ! D29   D(2,5,6,7)             46.9208                                         !
 ! D30   D(2,5,6,14)           171.3839                                         !
 ! D31   D(2,5,6,15)           -74.1098                                         !
 ! D32   D(12,5,6,7)           168.0963                                         !
 ! D33   D(12,5,6,14)          -67.4406                                         !
 ! D34   D(12,5,6,15)           47.0658                                         !
 ! D35   D(13,5,6,7)           -76.6117                                         !
 ! D36   D(13,5,6,14)           47.8514                                         !
 ! D37   D(13,5,6,15)          162.3578                                         !
 ! D38   D(5,6,7,8)              1.6589                                         !
 ! D39   D(5,6,7,9)           -174.9161                                         !
 ! D40   D(14,6,7,8)          -123.7767                                         !
 ! D41   D(14,6,7,9)            59.6483                                         !
 ! D42   D(15,6,7,8)           124.8907                                         !
 ! D43   D(15,6,7,9)           -51.6843                                         !
 ! D44   D(3,18,19,20)         -55.5982                                         !
 ! D45   D(3,18,19,22)        -179.977                                          !
 ! D46   D(3,18,19,27)          62.0646                                         !
 ! D47   D(26,18,19,20)         98.4167                                         !
 ! D48   D(26,18,19,22)        -25.9622                                         !
 ! D49   D(26,18,19,27)       -143.9205                                         !
 ! D50   D(18,19,20,21)          3.8416                                         !
 ! D51   D(18,19,20,37)       -179.2744                                         !
 ! D52   D(22,19,20,21)        126.3347                                         !
 ! D53   D(22,19,20,37)        -56.7812                                         !
 ! D54   D(27,19,20,21)       -115.3042                                         !
 ! D55   D(27,19,20,37)         61.5799                                         !
 ! D56   D(18,19,22,23)        -57.4999                                         !
 ! D57   D(18,19,22,28)       -178.8768                                         !
 ! D58   D(18,19,22,29)         66.0276                                         !
 ! D59   D(20,19,22,23)        178.8521                                         !
 ! D60   D(20,19,22,28)         57.4752                                         !
 ! D61   D(20,19,22,29)        -57.6205                                         !
 ! D62   D(27,19,22,23)         61.2235                                         !
 ! D63   D(27,19,22,28)        -60.1534                                         !
 ! D64   D(27,19,22,29)       -175.2491                                         !
 ! D65   D(19,20,37,38)        168.0822                                         !
 ! D66   D(19,20,37,50)         10.6786                                         !
 ! D67   D(21,20,37,38)        -15.0752                                         !
 ! D68   D(21,20,37,50)       -172.4788                                         !
 ! D69   D(19,22,23,24)        179.7883                                         !
 ! D70   D(19,22,23,25)        -56.5981                                         !
 ! D71   D(19,22,23,30)         62.4578                                         !
 ! D72   D(28,22,23,24)        -58.2439                                         !
 ! D73   D(28,22,23,25)         65.3696                                         !
 ! D74   D(28,22,23,30)       -175.5745                                         !
 ! D75   D(29,22,23,24)         57.0243                                         !
 ! D76   D(29,22,23,25)       -179.3621                                         !
 ! D77   D(29,22,23,30)        -60.3062                                         !
 ! D78   D(22,23,24,31)       -176.6537                                         !
 ! D79   D(22,23,24,32)        -56.5156                                         !
 ! D80   D(22,23,24,33)         63.8559                                         !
 ! D81   D(25,23,24,31)         59.118                                          !
 ! D82   D(25,23,24,32)        179.2561                                         !
 ! D83   D(25,23,24,33)        -60.3724                                         !
 ! D84   D(30,23,24,31)        -58.9534                                         !
 ! D85   D(30,23,24,32)         61.1847                                         !
 ! D86   D(30,23,24,33)       -178.4438                                         !
 ! D87   D(22,23,25,34)       -175.9629                                         !
 ! D88   D(22,23,25,35)        -56.7841                                         !
 ! D89   D(22,23,25,36)         64.584                                          !
 ! D90   D(24,23,25,34)        -53.3855                                         !
 ! D91   D(24,23,25,35)         65.7932                                         !
 ! D92   D(24,23,25,36)       -172.8387                                         !
 ! D93   D(30,23,25,34)         64.6607                                         !
 ! D94   D(30,23,25,35)       -176.1606                                         !
 ! D95   D(30,23,25,36)        -54.7925                                         !
 ! D96   D(20,37,38,39)       -171.4241                                         !
 ! D97   D(20,37,38,41)         61.8918                                         !
 ! D98   D(20,37,38,51)        -57.3796                                         !
 ! D99   D(50,37,38,39)        -13.4437                                         !
 ! D100  D(50,37,38,41)       -140.1279                                         !
 ! D101  D(50,37,38,51)        100.6008                                         !
 ! D102  D(37,38,39,40)       -153.7698                                         !
 ! D103  D(37,38,39,48)         27.838                                          !
 ! D104  D(41,38,39,40)        -23.9942                                         !
 ! D105  D(41,38,39,48)        157.6136                                         !
 ! D106  D(51,38,39,40)         90.8227                                         !
 ! D107  D(51,38,39,48)        -87.5695                                         !
 ! D108  D(37,38,41,42)         64.9977                                         !
 ! D109  D(37,38,41,52)        -59.6976                                         !
 ! D110  D(37,38,41,53)       -174.0259                                         !
 ! D111  D(39,38,41,42)        -61.0164                                         !
 ! D112  D(39,38,41,52)        174.2882                                         !
 ! D113  D(39,38,41,53)         59.96                                           !
 ! D114  D(51,38,41,42)       -175.1626                                         !
 ! D115  D(51,38,41,52)         60.1421                                         !
 ! D116  D(51,38,41,53)        -54.1861                                         !
 ! D117  D(38,39,48,49)        177.4204                                         !
 ! D118  D(40,39,48,49)         -0.9837                                         !
 ! D119  D(38,41,42,43)        -63.2565                                         !
 ! D120  D(38,41,42,54)         61.5869                                         !
 ! D121  D(38,41,42,55)        177.0425                                         !
 ! D122  D(52,41,42,43)         60.1717                                         !
 ! D123  D(52,41,42,54)       -174.9849                                         !
 ! D124  D(52,41,42,55)        -59.5292                                         !
 ! D125  D(53,41,42,43)        177.0107                                         !
 ! D126  D(53,41,42,54)        -58.1459                                         !
 ! D127  D(53,41,42,55)         57.3097                                         !
 ! D128  D(41,42,43,44)       -146.2829                                         !
 ! D129  D(41,42,43,56)         88.2715                                         !
 ! D130  D(41,42,43,57)        -29.604                                          !
 ! D131  D(54,42,43,44)         89.8417                                         !
 ! D132  D(54,42,43,56)        -35.604                                          !
 ! D133  D(54,42,43,57)       -153.4794                                         !
 ! D134  D(55,42,43,44)        -27.0919                                         !
 ! D135  D(55,42,43,56)       -152.5375                                         !
 ! D136  D(55,42,43,57)         89.587                                          !
 ! D137  D(42,43,44,45)        -86.3416                                         !
 ! D138  D(42,43,44,58)        116.4899                                         !
 ! D139  D(56,43,44,45)         39.8134                                         !
 ! D140  D(56,43,44,58)       -117.3551                                         !
 ! D141  D(57,43,44,45)        154.1988                                         !
 ! D142  D(57,43,44,58)         -2.9697                                         !
 ! D143  D(43,44,45,46)         26.1627                                         !
 ! D144  D(43,44,45,47)       -152.8301                                         !
 ! D145  D(58,44,45,46)       -177.1685                                         !
 ! D146  D(58,44,45,47)          3.8387                                         !
 ! D147  D(44,45,46,59)         27.1621                                         !
 ! D148  D(44,45,46,60)       -177.6471                                         !
 ! D149  D(47,45,46,59)       -153.8726                                         !
 ! D150  D(47,45,46,60)          1.3182                                         !
 ! D151  D(44,45,47,61)       -169.675                                          !
 ! D152  D(44,45,47,62)         24.7401                                         !
 ! D153  D(46,45,47,61)         11.3492                                         !
 ! D154  D(46,45,47,62)       -154.2357                                         !
 --------------------------------------------------------------------------------
 Symmetry turned off by external request.
 Stoichiometry    C17H33N6O6(1+)
 Framework group  C1[X(C17H33N6O6)]
 Deg. of freedom   180
 Full point group                 C1      NOp   1
                          Input orientation:                          
 ---------------------------------------------------------------------
 Center     Atomic      Atomic             Coordinates (Angstroms)
 Number     Number       Type             X           Y           Z
 ---------------------------------------------------------------------
      1          7           0       14.512282   17.462120   13.376458
      2          6           0       13.784345   18.652425   13.929603
      3          6           0       13.891216   19.736810   12.855429
      4          8           0       15.003406   20.134163   12.539096
      5          6           0       14.435514   19.053635   15.269181
      6          6           0       13.812146   18.380825   16.504428
      7          6           0       13.542111   16.865267   16.496473
      8          8           0       13.866881   16.151949   15.468068
      9          8           0       12.948406   16.416096   17.491111
     10          1           0       14.442260   16.739495   14.188570
     11          1           0       12.760541   18.316777   14.099318
     12          1           0       14.348685   20.138547   15.387009
     13          1           0       15.511834   18.855660   15.207183
     14          1           0       14.425727   18.598436   17.385444
     15          1           0       12.837938   18.839666   16.716077
     16          1           0       14.039617   17.153011   12.514611
     17          1           0       15.473128   17.734966   13.145762
     18          7           0       12.738135   20.219355   12.305327
     19          6           0       11.424220   19.592727   12.309789
     20          6           0       11.483353   18.160099   11.698653
     21          8           0       12.550504   17.650345   11.346624
     22          6           0       10.426646   20.507710   11.566229
     23          6           0       10.297342   21.935357   12.137430
     24          6           0        9.281665   22.725939   11.299617
     25          6           0        9.905300   21.931218   13.621067
     26          1           0       12.923786   20.863002   11.542515
     27          1           0       11.078585   19.482600   13.345074
     28          1           0        9.432064   20.044112   11.587495
     29          1           0       10.718848   20.553493   10.507911
     30          1           0       11.271043   22.435615   12.046785
     31          1           0        9.214829   23.761674   11.647782
     32          1           0        9.560818   22.745310   10.239855
     33          1           0        8.280311   22.283296   11.376789
     34          1           0        9.751353   22.953919   13.979712
     35          1           0        8.967996   21.381197   13.779306
     36          1           0       10.679978   21.481089   14.252686
     37          7           0       10.301424   17.500248   11.645368
     38          6           0       10.095142   16.254544   10.883566
     39          6           0        8.605067   15.904905   10.869551
     40          8           0        8.173022   14.785730   10.745516
     41          6           0       10.939372   15.039759   11.314690
     42          6           0       10.694921   14.454356   12.713835
     43          6           0       11.017244   15.421852   13.868260
     44          7           0       11.543081   14.786419   15.078605
     45          6           0       10.809672   14.272571   16.067787
     46          7           0        9.555542   13.825798   15.814540
     47          7           0       11.327154   14.230404   17.293852
     48          8           0        7.818118   17.004093   10.978017
     49          1           0        6.889346   16.707007   10.920030
     50          1           0        9.458856   18.025104   11.841643
     51          1           0       10.357162   16.460291    9.834288
     52          1           0       11.989675   15.317973   11.206467
     53          1           0       10.732000   14.258044   10.577823
     54          1           0        9.659227   14.096816   12.778670
     55          1           0       11.342461   13.575851   12.815067
     56          1           0       10.147249   16.038959   14.121526
     57          1           0       11.812488   16.102118   13.554840
     58          1           0       12.511580   15.071005   15.319130
     59          1           0        9.325278   13.497073   14.887778
     60          1           0        8.987289   13.469735   16.569725
     61          1           0       10.874658   13.715012   18.034847
     62          1           0       12.074462   14.923674   17.519334
 ---------------------------------------------------------------------
 Rotational constants (GHZ):           0.1579661           0.1332544           0.0906212
 Standard basis: 6-31G(d) (6D, 7F)
   501 basis functions,   944 primitive gaussians,   501 cartesian basis functions
   112 alpha electrons      112 beta electrons
       nuclear repulsion energy      3179.6905421789 Hartrees.
 NAtoms=   62 NActive=   62 NUniq=   62 SFac= 1.00D+00 NAtFMM=   60 NAOKFM=T Big=T
 Integral buffers will be    131072 words long.
 Raffenetti 2 integral format.
 Two-electron integral symmetry is turned off.
 Nuclear repulsion after empirical dispersion term =     3179.6065541436 Hartrees.
 One-electron integrals computed using PRISM.
 NBasis=   501 RedAO= T EigKep=  1.75D-03  NBF=   501
 NBsUse=   501 1.00D-06 EigRej= -1.00D+00 NBFU=   501
 Initial guess from the checkpoint file:  "conf-34.chk"
 B after Tr=     0.000000    0.000000    0.000000
         Rot=    1.000000    0.000000    0.000000    0.000000 Ang=   0.00 deg.
 Requested convergence on RMS density matrix=1.00D-08 within 128 cycles.
 Requested convergence on MAX density matrix=1.00D-06.
 Requested convergence on             energy=1.00D-06.
 No special actions if energy rises.
 SCF Done:  E(RB3LYP) =  -1447.51202292     A.U. after    2 cycles
            NFock=  2  Conv=0.81D-08     -V/T= 2.0094

 **********************************************************************

            Population analysis using the SCF Density.

 **********************************************************************

 Alpha  occ. eigenvalues --  -19.32342 -19.26275 -19.25682 -19.23086 -19.21961
 Alpha  occ. eigenvalues --  -19.20027 -14.53277 -14.50092 -14.49555 -14.47828
 Alpha  occ. eigenvalues --  -14.47753 -14.47505 -10.45106 -10.44590 -10.42396
 Alpha  occ. eigenvalues --  -10.40678 -10.38769 -10.36824 -10.36802 -10.36570
 Alpha  occ. eigenvalues --  -10.34777 -10.30999 -10.30730 -10.30570 -10.30367
 Alpha  occ. eigenvalues --  -10.29411 -10.28873 -10.27096 -10.26405  -1.23033
 Alpha  occ. eigenvalues --   -1.17423  -1.15395  -1.14402  -1.14134  -1.13441
 Alpha  occ. eigenvalues --   -1.09091  -1.05953  -1.05044  -1.04582  -1.03035
 Alpha  occ. eigenvalues --   -1.01687  -0.92833  -0.91529  -0.90470  -0.87907
 Alpha  occ. eigenvalues --   -0.85254  -0.82806  -0.81277  -0.78080  -0.76713
 Alpha  occ. eigenvalues --   -0.76653  -0.75117  -0.74282  -0.72029  -0.70947
 Alpha  occ. eigenvalues --   -0.70815  -0.69465  -0.68794  -0.67808  -0.67354
 Alpha  occ. eigenvalues --   -0.66807  -0.65832  -0.63205  -0.62934  -0.62067
 Alpha  occ. eigenvalues --   -0.61961  -0.61238  -0.60380  -0.59940  -0.59567
 Alpha  occ. eigenvalues --   -0.58781  -0.58455  -0.57701  -0.56720  -0.56008
 Alpha  occ. eigenvalues --   -0.55242  -0.54790  -0.54308  -0.53840  -0.53537
 Alpha  occ. eigenvalues --   -0.53072  -0.52781  -0.52290  -0.51957  -0.51323
 Alpha  occ. eigenvalues --   -0.50837  -0.50225  -0.49891  -0.49561  -0.48780
 Alpha  occ. eigenvalues --   -0.48317  -0.47645  -0.47415  -0.46949  -0.46501
 Alpha  occ. eigenvalues --   -0.46394  -0.45971  -0.44430  -0.44194  -0.43473
 Alpha  occ. eigenvalues --   -0.42831  -0.42664  -0.40856  -0.40034  -0.39293
 Alpha  occ. eigenvalues --   -0.39104  -0.37945  -0.37451  -0.36743  -0.36481
 Alpha  occ. eigenvalues --   -0.36272  -0.34384
 Alpha virt. eigenvalues --   -0.12317  -0.11545  -0.10274  -0.10172  -0.06495
 Alpha virt. eigenvalues --   -0.05575  -0.05494  -0.04730  -0.03392  -0.02582
 Alpha virt. eigenvalues --   -0.02438  -0.01537  -0.00801   0.00091   0.00207
 Alpha virt. eigenvalues --    0.00891   0.01349   0.01565   0.02088   0.02597
 Alpha virt. eigenvalues --    0.03553   0.04253   0.04962   0.05422   0.05803
 Alpha virt. eigenvalues --    0.06108   0.06317   0.06877   0.07207   0.07356
 Alpha virt. eigenvalues --    0.07513   0.07786   0.08612   0.09003   0.09279
 Alpha virt. eigenvalues --    0.09756   0.09904   0.10216   0.10753   0.11074
 Alpha virt. eigenvalues --    0.11679   0.12375   0.12635   0.13149   0.13770
 Alpha virt. eigenvalues --    0.13917   0.14354   0.14431   0.15517   0.15694
 Alpha virt. eigenvalues --    0.16205   0.16928   0.17351   0.17590   0.18429
 Alpha virt. eigenvalues --    0.18521   0.20061   0.23673   0.24518   0.25334
 Alpha virt. eigenvalues --    0.26470   0.28295   0.28858   0.29311   0.31244
 Alpha virt. eigenvalues --    0.34827   0.36877   0.37436   0.38251   0.39348
 Alpha virt. eigenvalues --    0.39626   0.40192   0.41002   0.41868   0.42195
 Alpha virt. eigenvalues --    0.42274   0.42921   0.44148   0.44383   0.44768
 Alpha virt. eigenvalues --    0.45476   0.46652   0.47062   0.47225   0.47870
 Alpha virt. eigenvalues --    0.48298   0.48703   0.49033   0.49588   0.50495
 Alpha virt. eigenvalues --    0.50953   0.51319   0.52016   0.52694   0.53132
 Alpha virt. eigenvalues --    0.53790   0.54671   0.55256   0.55725   0.56073
 Alpha virt. eigenvalues --    0.56431   0.57313   0.57714   0.58398   0.59154
 Alpha virt. eigenvalues --    0.59255   0.60252   0.60599   0.61531   0.61890
 Alpha virt. eigenvalues --    0.62758   0.63184   0.64034   0.64244   0.65204
 Alpha virt. eigenvalues --    0.66388   0.66936   0.68079   0.68337   0.68931
 Alpha virt. eigenvalues --    0.69724   0.70439   0.70978   0.71642   0.72361
 Alpha virt. eigenvalues --    0.73499   0.73623   0.74262   0.74689   0.74950
 Alpha virt. eigenvalues --    0.75156   0.75754   0.75916   0.76628   0.76659
 Alpha virt. eigenvalues --    0.77071   0.77700   0.78323   0.78739   0.79289
 Alpha virt. eigenvalues --    0.79873   0.80382   0.80685   0.81435   0.81895
 Alpha virt. eigenvalues --    0.82027   0.82475   0.82834   0.83631   0.83916
 Alpha virt. eigenvalues --    0.84117   0.84418   0.85425   0.85676   0.85749
 Alpha virt. eigenvalues --    0.86343   0.86650   0.87631   0.87900   0.89140
 Alpha virt. eigenvalues --    0.89837   0.90078   0.90511   0.91158   0.91979
 Alpha virt. eigenvalues --    0.93481   0.94166   0.94541   0.95497   0.96577
 Alpha virt. eigenvalues --    0.97182   0.98498   0.99588   1.00496   1.01793
 Alpha virt. eigenvalues --    1.02737   1.03375   1.03582   1.04837   1.05077
 Alpha virt. eigenvalues --    1.06870   1.07760   1.08374   1.09018   1.11788
 Alpha virt. eigenvalues --    1.12965   1.13246   1.14413   1.17611   1.18572
 Alpha virt. eigenvalues --    1.19167   1.20118   1.21010   1.21940   1.22943
 Alpha virt. eigenvalues --    1.23722   1.25080   1.26212   1.27043   1.27966
 Alpha virt. eigenvalues --    1.28550   1.29856   1.31311   1.32750   1.33138
 Alpha virt. eigenvalues --    1.34717   1.35385   1.36147   1.37379   1.38734
 Alpha virt. eigenvalues --    1.39395   1.39890   1.42150   1.42590   1.44443
 Alpha virt. eigenvalues --    1.45956   1.46302   1.49841   1.50555   1.51638
 Alpha virt. eigenvalues --    1.52789   1.53415   1.54004   1.54620   1.55972
 Alpha virt. eigenvalues --    1.56727   1.57379   1.57880   1.59017   1.59366
 Alpha virt. eigenvalues --    1.60590   1.61861   1.62557   1.63784   1.64182
 Alpha virt. eigenvalues --    1.65490   1.66150   1.67491   1.68274   1.68642
 Alpha virt. eigenvalues --    1.69736   1.70146   1.70552   1.71468   1.72277
 Alpha virt. eigenvalues --    1.72462   1.73350   1.74268   1.74544   1.75272
 Alpha virt. eigenvalues --    1.76249   1.76979   1.77189   1.78320   1.78700
 Alpha virt. eigenvalues --    1.79607   1.80366   1.81370   1.81968   1.82971
 Alpha virt. eigenvalues --    1.83787   1.84044   1.84384   1.84885   1.85483
 Alpha virt. eigenvalues --    1.86449   1.87150   1.87873   1.88809   1.89386
 Alpha virt. eigenvalues --    1.90459   1.90662   1.92250   1.92693   1.93724
 Alpha virt. eigenvalues --    1.94993   1.95376   1.95795   1.97080   1.97865
 Alpha virt. eigenvalues --    1.98259   1.99096   1.99340   2.00994   2.01178
 Alpha virt. eigenvalues --    2.02231   2.05231   2.06485   2.07593   2.08010
 Alpha virt. eigenvalues --    2.08418   2.10625   2.12579   2.14556   2.14777
 Alpha virt. eigenvalues --    2.15209   2.17003   2.17715   2.18433   2.20181
 Alpha virt. eigenvalues --    2.20416   2.21104   2.22117   2.22892   2.24019
 Alpha virt. eigenvalues --    2.26222   2.27490   2.27715   2.29710   2.30459
 Alpha virt. eigenvalues --    2.30676   2.31850   2.32470   2.33459   2.34363
 Alpha virt. eigenvalues --    2.36257   2.37767   2.39007   2.40496   2.41197
 Alpha virt. eigenvalues --    2.41269   2.41506   2.43564   2.44450   2.45643
 Alpha virt. eigenvalues --    2.45997   2.47472   2.49022   2.50449   2.51961
 Alpha virt. eigenvalues --    2.52974   2.53700   2.54136   2.55173   2.57203
 Alpha virt. eigenvalues --    2.57902   2.59842   2.59987   2.61243   2.62794
 Alpha virt. eigenvalues --    2.64405   2.64880   2.65513   2.69272   2.73077
 Alpha virt. eigenvalues --    2.74804   2.75660   2.78594   2.83208   2.85697
 Alpha virt. eigenvalues --    2.87907   2.89393   2.90041   2.93732   2.94246
 Alpha virt. eigenvalues --    2.99315   3.00457   3.02245   3.05010   3.06454
 Alpha virt. eigenvalues --    3.70207   3.74571   3.76177   3.78993   3.83414
 Alpha virt. eigenvalues --    3.85789   3.93995   3.97743   4.02214   4.04803
 Alpha virt. eigenvalues --    4.06790   4.07391   4.09458   4.13900   4.15451
 Alpha virt. eigenvalues --    4.19621   4.20605   4.23090   4.24512   4.26406
 Alpha virt. eigenvalues --    4.31885   4.32979   4.36574   4.43424   4.47060
 Alpha virt. eigenvalues --    4.48187   4.49537   4.54649   4.61213
          Condensed to atoms (all electrons):
 Mulliken charges:
               1
     1  N   -0.774907
     2  C   -0.101265
     3  C    0.623194
     4  O   -0.495620
     5  C   -0.283785
     6  C   -0.371535
     7  C    0.624240
     8  O   -0.659598
     9  O   -0.547326
    10  H    0.446699
    11  H    0.169634
    12  H    0.190525
    13  H    0.176866
    14  H    0.201555
    15  H    0.173162
    16  H    0.420198
    17  H    0.396388
    18  N   -0.590195
    19  C   -0.076439
    20  C    0.639422
    21  O   -0.555157
    22  C   -0.311245
    23  C   -0.074774
    24  C   -0.448628
    25  C   -0.454977
    26  H    0.354904
    27  H    0.179882
    28  H    0.148072
    29  H    0.164634
    30  H    0.144431
    31  H    0.168624
    32  H    0.154818
    33  H    0.148154
    34  H    0.174043
    35  H    0.141624
    36  H    0.142272
    37  N   -0.635301
    38  C   -0.032954
    39  C    0.588126
    40  O   -0.434821
    41  C   -0.288109
    42  C   -0.298887
    43  C   -0.153697
    44  N   -0.618268
    45  C    0.761586
    46  N   -0.758364
    47  N   -0.770896
    48  O   -0.585286
    49  H    0.437070
    50  H    0.372298
    51  H    0.215962
    52  H    0.179547
    53  H    0.189211
    54  H    0.158871
    55  H    0.176357
    56  H    0.164411
    57  H    0.151052
    58  H    0.414535
    59  H    0.377441
    60  H    0.368718
    61  H    0.356005
    62  H    0.427505
 Sum of Mulliken charges =   1.00000
 Mulliken charges with hydrogens summed into heavy atoms:
               1
     1  N    0.488378
     2  C    0.068369
     3  C    0.623194
     4  O   -0.495620
     5  C    0.083606
     6  C    0.003183
     7  C    0.624240
     8  O   -0.659598
     9  O   -0.547326
    18  N   -0.235292
    19  C    0.103443
    20  C    0.639422
    21  O   -0.555157
    22  C    0.001461
    23  C    0.069657
    24  C    0.022967
    25  C    0.002961
    37  N   -0.263003
    38  C    0.183007
    39  C    0.588126
    40  O   -0.434821
    41  C    0.080649
    42  C    0.036340
    43  C    0.161766
    44  N   -0.203734
    45  C    0.761586
    46  N   -0.012205
    47  N    0.012614
    48  O   -0.148216
 Electronic spatial extent (au):  <R**2>=         508938.8781
 Charge=              1.0000 electrons
 Dipole moment (field-independent basis, Debye):
    X=             49.6290    Y=             80.8718    Z=             65.5817  Tot=            115.3440
 Quadrupole moment (field-independent basis, Debye-Ang):
   XX=            365.0351   YY=           1233.2552   ZZ=            747.6319
   XY=            838.7417   XZ=            677.6772   YZ=           1081.0559
 Traceless Quadrupole moment (field-independent basis, Debye-Ang):
   XX=           -416.9390   YY=            451.2812   ZZ=            -34.3422
   XY=            838.7417   XZ=            677.6772   YZ=           1081.0559
 Octapole moment (field-independent basis, Debye-Ang**2):
  XXX=            139.8395  YYY=          16079.4186  ZZZ=           6330.8985  XYY=          12612.9267
  XXY=           6063.1652  XXZ=           5034.8802  XZZ=           7485.1816  YZZ=          11782.6225
  YYZ=          16158.3579  XYZ=          11275.8165
 Hexadecapole moment (field-independent basis, Debye-Ang**3):
 XXXX=         -68903.9476 YYYY=         136476.0970 ZZZZ=           5799.9141 XXXY=          -2190.3645
 XXXZ=           2877.9860 YYYX=         156040.9765 YYYZ=         205421.5815 ZZZX=          54682.1880
 ZZZY=          87159.4093 XXYY=          79703.1248 XXZZ=          46936.7278 YYZZ=         161884.8050
 XXYZ=          82926.8434 YYXZ=         166983.7793 ZZXY=         119777.7569
 N-N= 3.179606554144D+03 E-N=-9.708242199836D+03  KE= 1.434056969471D+03
 Unable to Open any file for archive entry.
 1\1\GINC-QML-000\SP\RB3LYP\6-31G(d)\C17H33N6O6(1+)\KENGMITH\24-May-202
 2\0\\# B3LYP/6-31G* empiricaldispersion=gd3 guess=read geom=check nosy
 mm integral(ultrafinegrid)\\Candidate Structure: Conf:34 Charge calc i
 n gas phase\\1,1\N,0,14.5122823765,17.4621198915,13.3764582375\C,0,13.
 7843449242,18.6524248187,13.9296034232\C,0,13.8912164859,19.7368103202
 ,12.8554293417\O,0,15.0034063415,20.1341630795,12.5390955902\C,0,14.43
 55137133,19.0536353042,15.2691806231\C,0,13.8121457479,18.3808247364,1
 6.504427997\C,0,13.5421107814,16.8652667605,16.4964731556\O,0,13.86688
 11871,16.1519486626,15.4680681013\O,0,12.9484062538,16.4160957635,17.4
 911112751\H,0,14.4422601527,16.7394950981,14.1885701193\H,0,12.7605414
 74,18.3167768189,14.0993183565\H,0,14.3486850606,20.138546593,15.38700
 86295\H,0,15.5118335863,18.8556595946,15.2071825237\H,0,14.4257269174,
 18.5984357685,17.3854438051\H,0,12.8379384773,18.8396659138,16.7160767
 166\H,0,14.0396169779,17.1530110896,12.5146111821\H,0,15.4731279853,17
 .7349657758,13.1457616469\N,0,12.7381353456,20.2193551089,12.305326534
 3\C,0,11.4242204851,19.59272651,12.3097891292\C,0,11.4833530612,18.160
 0990208,11.6986528515\O,0,12.5505035358,17.6503447907,11.3466235702\C,
 0,10.4266457113,20.5077096998,11.566228988\C,0,10.2973418748,21.935356
 5452,12.137430208\C,0,9.2816649415,22.7259393726,11.299616983\C,0,9.90
 5300356,21.9312175126,13.6210669241\H,0,12.9237859221,20.8630022508,11
 .5425152302\H,0,11.0785850713,19.4825996846,13.3450735778\H,0,9.432063
 8663,20.0441122481,11.5874947011\H,0,10.7188476771,20.5534930753,10.50
 79111382\H,0,11.2710430489,22.4356145479,12.046784632\H,0,9.2148287749
 ,23.7616736847,11.6477823371\H,0,9.5608175229,22.7453096933,10.2398549
 868\H,0,8.2803114114,22.2832961993,11.3767888418\H,0,9.7513530075,22.9
 539191616,13.979712277\H,0,8.9679963729,21.3811971185,13.7793056719\H,
 0,10.6799780986,21.4810886924,14.2526855738\N,0,10.3014239413,17.50024
 78773,11.645367776\C,0,10.0951421406,16.2545438798,10.8835662543\C,0,8
 .6050672798,15.9049050646,10.8695508881\O,0,8.1730216127,14.7857304611
 ,10.7455158127\C,0,10.9393723402,15.0397587233,11.3146899438\C,0,10.69
 49212342,14.4543562609,12.7138348814\C,0,11.0172436691,15.42185151,13.
 8682597998\N,0,11.5430811024,14.7864192723,15.0786053426\C,0,10.809671
 585,14.2725712242,16.0677866776\N,0,9.5555424182,13.8257979822,15.8145
 397005\N,0,11.3271542466,14.2304035082,17.293852394\O,0,7.8181177099,1
 7.0040925531,10.9780171977\H,0,6.8893458695,16.7070072488,10.920029781
 6\H,0,9.4588558335,18.025103677,11.8416433377\H,0,10.3571623947,16.460
 2911966,9.8342879916\H,0,11.9896752785,15.3179730415,11.2064673472\H,0
 ,10.7319997112,14.258044135,10.5778234485\H,0,9.659227363,14.096816065
 8,12.7786702939\H,0,11.3424611878,13.5758510677,12.8150669788\H,0,10.1
 4724908,16.0389587655,14.1215256786\H,0,11.8124875185,16.1021180878,13
 .5548404296\H,0,12.5115798369,15.07100453,15.3191298056\H,0,9.32527840
 82,13.4970733243,14.8877784573\H,0,8.9872890704,13.4697348217,16.56972
 49515\H,0,10.874657986,13.7150118872,18.0348473625\H,0,12.0744615136,1
 4.9236738076,17.5193338367\\Version=ES64L-G16RevC.01\HF=-1447.5120229\
 RMSD=8.071e-09\Dipole=-2.2380522,-1.3768582,0.5171809\Quadrupole=-309.
 9839153,335.5164933,-25.532578,623.5839323,503.8364116,803.7385547\PG=
 C01 [X(C17H33N6O6)]\\@
 The archive entry for this job was punched.


     "IF I COULD JUST GET IT ON PAPER"
 LIFE AND INK, THEY RUN OUT AT THE SAME TIME,
 OR SO SAID MY OLD FRIEND THE SQUID.
     -- JIMMY BUFFETT, 1981
 Job cpu time:       0 days  0 hours  3 minutes 18.0 seconds.
 Elapsed time:       0 days  0 hours  0 minutes 50.1 seconds.
 File lengths (MBytes):  RWF=    248 Int=      0 D2E=      0 Chk=     32 Scr=     16
 Normal termination of Gaussian 16 at Tue May 24 03:32:48 2022.
