 Entering Gaussian System, Link 0=/opt/software/Gaussian/g16-AVX2-C.01/g16/g16
 Input=charge-conf-497.com
 Output=charge-conf-497.log
 Initial command:
 /opt/software/Gaussian/g16-AVX2-C.01/g16/l1.exe "/mnt/gs18/scratch/users/kengmith/Gau-44202.inp" -scrdir="/mnt/gs18/scratch/users/kengmith/"
 Entering Link 1 = /opt/software/Gaussian/g16-AVX2-C.01/g16/l1.exe PID=     44225.
  
 Copyright (c) 1988-2019, Gaussian, Inc.  All Rights Reserved.
  
 This is part of the Gaussian(R) 16 program.  It is based on
 the Gaussian(R) 09 system (copyright 2009, Gaussian, Inc.),
 the Gaussian(R) 03 system (copyright 2003, Gaussian, Inc.),
 the Gaussian(R) 98 system (copyright 1998, Gaussian, Inc.),
 the Gaussian(R) 94 system (copyright 1995, Gaussian, Inc.),
 the Gaussian 92(TM) system (copyright 1992, Gaussian, Inc.),
 the Gaussian 90(TM) system (copyright 1990, Gaussian, Inc.),
 the Gaussian 88(TM) system (copyright 1988, Gaussian, Inc.),
 the Gaussian 86(TM) system (copyright 1986, Carnegie Mellon
 University), and the Gaussian 82(TM) system (copyright 1983,
 Carnegie Mellon University). Gaussian is a federally registered
 trademark of Gaussian, Inc.
  
 This software contains proprietary and confidential information,
 including trade secrets, belonging to Gaussian, Inc.
  
 This software is provided under written license and may be
 used, copied, transmitted, or stored only in accord with that
 written license.
  
 The following legend is applicable only to US Government
 contracts under FAR:
  
                    RESTRICTED RIGHTS LEGEND
  
 Use, reproduction and disclosure by the US Government is
 subject to restrictions as set forth in subparagraphs (a)
 and (c) of the Commercial Computer Software - Restricted
 Rights clause in FAR 52.227-19.
  
 Gaussian, Inc.
 340 Quinnipiac St., Bldg. 40, Wallingford CT 06492
  
  
 ---------------------------------------------------------------
 Warning -- This program may not be used in any manner that
 competes with the business of Gaussian, Inc. or will provide
 assistance to any competitor of Gaussian, Inc.  The licensee
 of this program is prohibited from giving any competitor of
 Gaussian, Inc. access to this program.  By using this program,
 the user acknowledges that Gaussian, Inc. is engaged in the
 business of creating and licensing software in the field of
 computational chemistry and represents and warrants to the
 licensee that it is not a competitor of Gaussian, Inc. and that
 it will not use this program in any manner prohibited above.
 ---------------------------------------------------------------
  

 Cite this work as:
 Gaussian 16, Revision C.01,
 M. J. Frisch, G. W. Trucks, H. B. Schlegel, G. E. Scuseria, 
 M. A. Robb, J. R. Cheeseman, G. Scalmani, V. Barone, 
 G. A. Petersson, H. Nakatsuji, X. Li, M. Caricato, A. V. Marenich, 
 J. Bloino, B. G. Janesko, R. Gomperts, B. Mennucci, H. P. Hratchian, 
 J. V. Ortiz, A. F. Izmaylov, J. L. Sonnenberg, D. Williams-Young, 
 F. Ding, F. Lipparini, F. Egidi, J. Goings, B. Peng, A. Petrone, 
 T. Henderson, D. Ranasinghe, V. G. Zakrzewski, J. Gao, N. Rega, 
 G. Zheng, W. Liang, M. Hada, M. Ehara, K. Toyota, R. Fukuda, 
 J. Hasegawa, M. Ishida, T. Nakajima, Y. Honda, O. Kitao, H. Nakai, 
 T. Vreven, K. Throssell, J. A. Montgomery, Jr., J. E. Peralta, 
 F. Ogliaro, M. J. Bearpark, J. J. Heyd, E. N. Brothers, K. N. Kudin, 
 V. N. Staroverov, T. A. Keith, R. Kobayashi, J. Normand, 
 K. Raghavachari, A. P. Rendell, J. C. Burant, S. S. Iyengar, 
 J. Tomasi, M. Cossi, J. M. Millam, M. Klene, C. Adamo, R. Cammi, 
 J. W. Ochterski, R. L. Martin, K. Morokuma, O. Farkas, 
 J. B. Foresman, and D. J. Fox, Gaussian, Inc., Wallingford CT, 2019.
 
 ******************************************
 Gaussian 16:  ES64L-G16RevC.01  3-Jul-2019
                24-May-2022 
 ******************************************
 %mem=8gb
 %nproc=4
 Will use up to    4 processors via shared memory.
 %chk=conf-497.chk
 ----------------------------------------------------------------------
 # B3LYP/6-31G* empiricaldispersion=gd3 guess=read geom=check nosymm in
 tegral(ultrafinegrid)
 ----------------------------------------------------------------------
 1/29=2,38=1,172=1/1;
 2/12=2,15=1,40=1/2;
 3/5=1,6=6,7=1,11=2,14=-4,25=1,30=1,74=-5,75=-5,116=-2,124=31/1,2,3;
 4/5=1/1;
 5/5=2,38=6/2;
 6/7=2,8=2,9=2,10=2,28=1/1;
 99/5=1,9=1/99;
 ------------------------------------------------------
 Candidate Structure: Conf:497 Charge calc in gas phase
 ------------------------------------------------------
 Structure from the checkpoint file:  "conf-497.chk"
 Charge =  1 Multiplicity = 1
 Redundant internal coordinates found in file.  (old form).
 N,0,14.9791066669,15.1967947828,14.5350129822
 C,0,14.2487470868,16.5215102415,14.6137197684
 C,0,15.2440091765,17.5325782949,14.0144756345
 O,0,16.4123816148,17.1687928564,13.8444528299
 C,0,13.8239520085,16.8188984952,16.0617344462
 C,0,12.5956088704,15.9839143729,16.4775642914
 C,0,11.5726801747,16.0785833291,15.3392959212
 O,0,11.4709587063,15.0869973456,14.5716920787
 O,0,11.0019400328,17.2046102379,15.1635909177
 H,0,14.5664973091,14.5683252794,13.8396184223
 H,0,13.3777506509,16.4303926157,13.9651958816
 H,0,13.5748743733,17.87914768,16.133784178
 H,0,14.6793213338,16.6614955631,16.7316963094
 H,0,12.8538640931,14.9324917674,16.6426521154
 H,0,12.1875038706,16.3897998178,17.4072727539
 H,0,15.9571346558,15.4814749066,14.2533791337
 H,0,14.9939602751,14.7028059121,15.4317089094
 N,0,14.7648821344,18.7513142428,13.7205795481
 C,0,13.3485495412,19.1499891661,13.655274877
 C,0,12.7635173537,18.7675206804,12.2861466211
 O,0,13.317985587,19.115615266,11.254277623
 C,0,13.2483365443,20.6773575839,13.8330567637
 C,0,11.8188831715,21.247442778,13.7498868503
 C,0,10.9048714867,20.7156879302,14.8665544874
 C,0,11.8726719175,22.7816669053,13.781013045
 H,0,15.4222989389,19.350704714,13.2298499054
 H,0,12.7960293213,18.6563774203,14.4534169287
 H,0,13.8618263313,21.1418890322,13.0505486643
 H,0,13.693196366,20.9377696227,14.8022286698
 H,0,11.397797477,20.9574729384,12.7743563402
 H,0,11.2820198923,21.0294911859,15.8480329222
 H,0,9.8939906761,21.1266248403,14.7615165993
 H,0,10.8281761157,19.6227411595,14.8880725999
 H,0,10.868114117,23.2085297744,13.691980079
 H,0,12.3031531681,23.1362797133,14.7256964871
 H,0,12.4817329575,23.1780851573,12.9612742559
 N,0,11.562487151,18.1047380591,12.3204385973
 C,0,10.8286801821,17.880418671,11.0752073513
 C,0,9.3381496313,18.1800989761,11.2644410185
 O,0,8.4743851005,17.7116222178,10.5550617564
 C,0,11.0896684329,16.5403927609,10.3607818261
 C,0,10.86021209,15.231456159,11.1335122171
 C,0,9.4442786454,15.002306715,11.6862803853
 N,0,9.293260193,15.7553533226,12.9374977798
 C,0,8.1937547154,16.3205917162,13.4349652133
 N,0,7.0455071856,16.3921873256,12.724932658
 N,0,8.2383472006,16.7909778567,14.6950143837
 O,0,9.0181136383,19.0335092444,12.2581358365
 H,0,9.834211386,19.3132379623,12.7158735413
 H,0,11.2446458658,17.6820506034,13.1992879542
 H,0,11.192794707,18.6602523535,10.3924703644
 H,0,12.1334194219,16.5663323268,10.0289282762
 H,0,10.4690394913,16.5437117188,9.4587733407
 H,0,11.0890464231,14.4067215733,10.448611277
 H,0,11.5693643603,15.1446153907,11.9664705408
 H,0,9.2885319923,13.9380967193,11.899225799
 H,0,8.6992573663,15.3131360378,10.9532330859
 H,0,10.0619962098,15.5597696793,13.6078566478
 H,0,7.1373096488,16.4235391442,11.7151027291
 H,0,6.3375507735,17.0294123952,13.0666199714
 H,0,7.4986991694,17.4024814604,15.0105396757
 H,0,9.1736112518,16.960912881,15.0873862019
 Recover connectivity data from disk.
                           ----------------------------
                           !    Current Parameters    !
                           ! (Angstroms and Degrees)  !
 --------------------------                            --------------------------
 ! Name  Definition              Value                                          !
 --------------------------------------------------------------------------------
 ! R1    R(1,2)                  1.5148                                         !
 ! R2    R(1,10)                 1.0241                                         !
 ! R3    R(1,16)                 1.0568                                         !
 ! R4    R(1,17)                 1.0239                                         !
 ! R5    R(2,3)                  1.5401                                         !
 ! R6    R(2,5)                  1.5381                                         !
 ! R7    R(2,11)                 1.0897                                         !
 ! R8    R(3,4)                  1.2355                                         !
 ! R9    R(3,18)                 1.3421                                         !
 ! R10   R(5,6)                  1.5424                                         !
 ! R11   R(5,12)                 1.0915                                         !
 ! R12   R(5,13)                 1.0979                                         !
 ! R13   R(6,7)                  1.5333                                         !
 ! R14   R(6,14)                 1.0952                                         !
 ! R15   R(6,15)                 1.0935                                         !
 ! R16   R(7,8)                  1.2581                                         !
 ! R17   R(7,9)                  1.2746                                         !
 ! R18   R(18,19)                1.4728                                         !
 ! R19   R(18,26)                1.016                                          !
 ! R20   R(19,20)                1.5372                                         !
 ! R21   R(19,22)                1.5409                                         !
 ! R22   R(19,27)                1.089                                          !
 ! R23   R(20,21)                1.222                                          !
 ! R24   R(20,37)                1.3722                                         !
 ! R25   R(22,23)                1.5412                                         !
 ! R26   R(22,28)                1.0975                                         !
 ! R27   R(22,29)                1.0977                                         !
 ! R28   R(23,24)                1.5379                                         !
 ! R29   R(23,25)                1.5355                                         !
 ! R30   R(23,30)                1.1014                                         !
 ! R31   R(24,31)                1.0973                                         !
 ! R32   R(24,32)                1.0963                                         !
 ! R33   R(24,33)                1.0958                                         !
 ! R34   R(25,34)                1.0951                                         !
 ! R35   R(25,35)                1.097                                          !
 ! R36   R(25,36)                1.0955                                         !
 ! R37   R(37,38)                1.4627                                         !
 ! R38   R(37,50)                1.0257                                         !
 ! R39   R(38,39)                1.5321                                         !
 ! R40   R(38,41)                1.5408                                         !
 ! R41   R(38,51)                1.0986                                         !
 ! R42   R(39,40)                1.2119                                         !
 ! R43   R(39,48)                1.3484                                         !
 ! R44   R(41,42)                1.5372                                         !
 ! R45   R(41,52)                1.0955                                         !
 ! R46   R(41,53)                1.0949                                         !
 ! R47   R(42,43)                1.5372                                         !
 ! R48   R(42,54)                1.0962                                         !
 ! R49   R(42,55)                1.0974                                         !
 ! R50   R(43,44)                1.4681                                         !
 ! R51   R(43,56)                1.0964                                         !
 ! R52   R(43,57)                1.0904                                         !
 ! R53   R(44,45)                1.3326                                         !
 ! R54   R(44,58)                1.0386                                         !
 ! R55   R(45,46)                1.3519                                         !
 ! R56   R(45,47)                1.3457                                         !
 ! R57   R(46,59)                1.0145                                         !
 ! R58   R(46,60)                1.0119                                         !
 ! R59   R(47,61)                1.0102                                         !
 ! R60   R(47,62)                1.0284                                         !
 ! R61   R(48,49)                0.9766                                         !
 ! A1    A(2,1,10)             112.1915                                         !
 ! A2    A(2,1,16)             102.9723                                         !
 ! A3    A(2,1,17)             112.5463                                         !
 ! A4    A(10,1,16)            110.9288                                         !
 ! A5    A(10,1,17)            107.7249                                         !
 ! A6    A(16,1,17)            110.4828                                         !
 ! A7    A(1,2,3)              104.0238                                         !
 ! A8    A(1,2,5)              110.5595                                         !
 ! A9    A(1,2,11)             106.3398                                         !
 ! A10   A(3,2,5)              114.6997                                         !
 ! A11   A(3,2,11)             109.8678                                         !
 ! A12   A(5,2,11)             110.8361                                         !
 ! A13   A(2,3,4)              118.1242                                         !
 ! A14   A(2,3,18)             116.7854                                         !
 ! A15   A(4,3,18)             125.0901                                         !
 ! A16   A(2,5,6)              111.6601                                         !
 ! A17   A(2,5,12)             108.2395                                         !
 ! A18   A(2,5,13)             109.3666                                         !
 ! A19   A(6,5,12)             109.0462                                         !
 ! A20   A(6,5,13)             112.2317                                         !
 ! A21   A(12,5,13)            106.0683                                         !
 ! A22   A(5,6,7)              107.3219                                         !
 ! A23   A(5,6,14)             111.8742                                         !
 ! A24   A(5,6,15)             108.9966                                         !
 ! A25   A(7,6,14)             109.1775                                         !
 ! A26   A(7,6,15)             111.0561                                         !
 ! A27   A(14,6,15)            108.4336                                         !
 ! A28   A(6,7,8)              117.2722                                         !
 ! A29   A(6,7,9)              117.1049                                         !
 ! A30   A(8,7,9)              125.169                                          !
 ! A31   A(3,18,19)            126.7853                                         !
 ! A32   A(3,18,26)            114.2353                                         !
 ! A33   A(19,18,26)           116.1761                                         !
 ! A34   A(18,19,20)           109.7626                                         !
 ! A35   A(18,19,22)           109.0096                                         !
 ! A36   A(18,19,27)           109.4332                                         !
 ! A37   A(20,19,22)           108.9425                                         !
 ! A38   A(20,19,27)           110.2975                                         !
 ! A39   A(22,19,27)           109.3731                                         !
 ! A40   A(19,20,21)           120.5643                                         !
 ! A41   A(19,20,37)           115.5323                                         !
 ! A42   A(21,20,37)           123.7669                                         !
 ! A43   A(19,22,23)           114.881                                          !
 ! A44   A(19,22,28)           107.5132                                         !
 ! A45   A(19,22,29)           108.098                                          !
 ! A46   A(23,22,28)           108.8702                                         !
 ! A47   A(23,22,29)           109.6193                                         !
 ! A48   A(28,22,29)           107.611                                          !
 ! A49   A(22,23,24)           112.5913                                         !
 ! A50   A(22,23,25)           109.6341                                         !
 ! A51   A(22,23,30)           107.7592                                         !
 ! A52   A(24,23,25)           110.5843                                         !
 ! A53   A(24,23,30)           108.9578                                         !
 ! A54   A(25,23,30)           107.1221                                         !
 ! A55   A(23,24,31)           110.2619                                         !
 ! A56   A(23,24,32)           110.4173                                         !
 ! A57   A(23,24,33)           113.6223                                         !
 ! A58   A(31,24,32)           107.1843                                         !
 ! A59   A(31,24,33)           106.9609                                         !
 ! A60   A(32,24,33)           108.132                                          !
 ! A61   A(23,25,34)           110.8356                                         !
 ! A62   A(23,25,35)           110.7434                                         !
 ! A63   A(23,25,36)           111.4616                                         !
 ! A64   A(34,25,35)           107.696                                          !
 ! A65   A(34,25,36)           107.9456                                         !
 ! A66   A(35,25,36)           108.013                                          !
 ! A67   A(20,37,38)           119.4662                                         !
 ! A68   A(20,37,50)           119.4511                                         !
 ! A69   A(38,37,50)           120.7166                                         !
 ! A70   A(37,38,39)           110.6668                                         !
 ! A71   A(37,38,41)           116.3039                                         !
 ! A72   A(37,38,51)           104.7109                                         !
 ! A73   A(39,38,41)           113.0892                                         !
 ! A74   A(39,38,51)           105.0917                                         !
 ! A75   A(41,38,51)           105.8461                                         !
 ! A76   A(38,39,40)           123.0573                                         !
 ! A77   A(38,39,48)           116.47                                           !
 ! A78   A(40,39,48)           120.4542                                         !
 ! A79   A(38,41,42)           118.8268                                         !
 ! A80   A(38,41,52)           106.3336                                         !
 ! A81   A(38,41,53)           106.4589                                         !
 ! A82   A(42,41,52)           108.3389                                         !
 ! A83   A(42,41,53)           109.3957                                         !
 ! A84   A(52,41,53)           106.883                                          !
 ! A85   A(41,42,43)           116.4353                                         !
 ! A86   A(41,42,54)           107.1813                                         !
 ! A87   A(41,42,55)           110.6387                                         !
 ! A88   A(43,42,54)           107.7467                                         !
 ! A89   A(43,42,55)           108.0895                                         !
 ! A90   A(54,42,55)           106.2488                                         !
 ! A91   A(42,43,44)           108.9507                                         !
 ! A92   A(42,43,56)           110.2048                                         !
 ! A93   A(42,43,57)           110.1885                                         !
 ! A94   A(44,43,56)           108.5252                                         !
 ! A95   A(44,43,57)           110.8816                                         !
 ! A96   A(56,43,57)           108.0706                                         !
 ! A97   A(43,44,45)           128.3581                                         !
 ! A98   A(43,44,58)           112.1708                                         !
 ! A99   A(45,44,58)           116.7205                                         !
 ! A100  A(44,45,46)           121.8141                                         !
 ! A101  A(44,45,47)           118.0637                                         !
 ! A102  A(46,45,47)           120.0921                                         !
 ! A103  A(45,46,59)           116.5877                                         !
 ! A104  A(45,46,60)           116.7573                                         !
 ! A105  A(59,46,60)           112.3311                                         !
 ! A106  A(45,47,61)           118.67                                           !
 ! A107  A(45,47,62)           116.433                                          !
 ! A108  A(61,47,62)           116.5304                                         !
 ! A109  A(39,48,49)           109.1687                                         !
 ! D1    D(10,1,2,3)          -110.0178                                         !
 ! D2    D(10,1,2,5)           126.3625                                         !
 ! D3    D(10,1,2,11)            5.9752                                         !
 ! D4    D(16,1,2,3)             9.3133                                         !
 ! D5    D(16,1,2,5)          -114.3064                                         !
 ! D6    D(16,1,2,11)          125.3063                                         !
 ! D7    D(17,1,2,3)           128.2893                                         !
 ! D8    D(17,1,2,5)             4.6696                                         !
 ! D9    D(17,1,2,11)         -115.7177                                         !
 ! D10   D(1,2,3,4)            -12.6492                                         !
 ! D11   D(1,2,3,18)           167.5404                                         !
 ! D12   D(5,2,3,4)            108.2346                                         !
 ! D13   D(5,2,3,18)           -71.5757                                         !
 ! D14   D(11,2,3,4)          -126.1389                                         !
 ! D15   D(11,2,3,18)           54.0507                                         !
 ! D16   D(1,2,5,6)            -76.3701                                         !
 ! D17   D(1,2,5,12)           163.5919                                         !
 ! D18   D(1,2,5,13)            48.4577                                         !
 ! D19   D(3,2,5,6)            166.4117                                         !
 ! D20   D(3,2,5,12)            46.3736                                         !
 ! D21   D(3,2,5,13)           -68.7606                                         !
 ! D22   D(11,2,5,6)            41.2911                                         !
 ! D23   D(11,2,5,12)          -78.7469                                         !
 ! D24   D(11,2,5,13)          166.1188                                         !
 ! D25   D(2,3,18,19)          -13.0993                                         !
 ! D26   D(2,3,18,26)         -173.2555                                         !
 ! D27   D(4,3,18,19)          167.1051                                         !
 ! D28   D(4,3,18,26)            6.9489                                         !
 ! D29   D(2,5,6,7)            -46.3334                                         !
 ! D30   D(2,5,6,14)            73.4031                                         !
 ! D31   D(2,5,6,15)          -166.6912                                         !
 ! D32   D(12,5,6,7)            73.2294                                         !
 ! D33   D(12,5,6,14)         -167.034                                          !
 ! D34   D(12,5,6,15)          -47.1283                                         !
 ! D35   D(13,5,6,7)          -169.5487                                         !
 ! D36   D(13,5,6,14)          -49.8122                                         !
 ! D37   D(13,5,6,15)           70.0935                                         !
 ! D38   D(5,6,7,8)            102.9495                                         !
 ! D39   D(5,6,7,9)            -69.7255                                         !
 ! D40   D(14,6,7,8)           -18.495                                          !
 ! D41   D(14,6,7,9)           168.83                                           !
 ! D42   D(15,6,7,8)          -138.0089                                         !
 ! D43   D(15,6,7,9)            49.3162                                         !
 ! D44   D(3,18,19,20)         -82.5668                                         !
 ! D45   D(3,18,19,22)         158.1839                                         !
 ! D46   D(3,18,19,27)          38.6067                                         !
 ! D47   D(26,18,19,20)         77.2567                                         !
 ! D48   D(26,18,19,22)        -41.9926                                         !
 ! D49   D(26,18,19,27)       -161.5698                                         !
 ! D50   D(18,19,20,21)        -52.4634                                         !
 ! D51   D(18,19,20,37)        131.6267                                         !
 ! D52   D(22,19,20,21)         66.827                                          !
 ! D53   D(22,19,20,37)       -109.0828                                         !
 ! D54   D(27,19,20,21)       -173.1154                                         !
 ! D55   D(27,19,20,37)         10.9747                                         !
 ! D56   D(18,19,22,23)        178.4724                                         !
 ! D57   D(18,19,22,28)         57.1273                                         !
 ! D58   D(18,19,22,29)        -58.7788                                         !
 ! D59   D(20,19,22,23)         58.7141                                         !
 ! D60   D(20,19,22,28)        -62.631                                          !
 ! D61   D(20,19,22,29)       -178.5371                                         !
 ! D62   D(27,19,22,23)        -61.9132                                         !
 ! D63   D(27,19,22,28)        176.7417                                         !
 ! D64   D(27,19,22,29)         60.8356                                         !
 ! D65   D(19,20,37,38)        170.7096                                         !
 ! D66   D(19,20,37,50)        -16.1855                                         !
 ! D67   D(21,20,37,38)         -5.0537                                         !
 ! D68   D(21,20,37,50)        168.0513                                         !
 ! D69   D(19,22,23,24)         62.8713                                         !
 ! D70   D(19,22,23,25)       -173.5727                                         !
 ! D71   D(19,22,23,30)        -57.3101                                         !
 ! D72   D(28,22,23,24)       -176.5266                                         !
 ! D73   D(28,22,23,25)        -52.9706                                         !
 ! D74   D(28,22,23,30)         63.292                                          !
 ! D75   D(29,22,23,24)        -59.0567                                         !
 ! D76   D(29,22,23,25)         64.4993                                         !
 ! D77   D(29,22,23,30)       -179.2381                                         !
 ! D78   D(22,23,24,31)         62.9183                                         !
 ! D79   D(22,23,24,32)       -178.8225                                         !
 ! D80   D(22,23,24,33)        -57.1381                                         !
 ! D81   D(25,23,24,31)        -60.1079                                         !
 ! D82   D(25,23,24,32)         58.1513                                         !
 ! D83   D(25,23,24,33)        179.8357                                         !
 ! D84   D(30,23,24,31)       -177.5938                                         !
 ! D85   D(30,23,24,32)        -59.3346                                         !
 ! D86   D(30,23,24,33)         62.3498                                         !
 ! D87   D(22,23,25,34)        178.2651                                         !
 ! D88   D(22,23,25,35)        -62.2682                                         !
 ! D89   D(22,23,25,36)         58.0099                                         !
 ! D90   D(24,23,25,34)        -57.0077                                         !
 ! D91   D(24,23,25,35)         62.459                                          !
 ! D92   D(24,23,25,36)       -177.2629                                         !
 ! D93   D(30,23,25,34)         61.6005                                         !
 ! D94   D(30,23,25,35)       -178.9329                                         !
 ! D95   D(30,23,25,36)        -58.6548                                         !
 ! D96   D(20,37,38,39)       -136.0535                                         !
 ! D97   D(20,37,38,41)         93.1022                                         !
 ! D98   D(20,37,38,51)        -23.3018                                         !
 ! D99   D(50,37,38,39)         50.9308                                         !
 ! D100  D(50,37,38,41)        -79.9136                                         !
 ! D101  D(50,37,38,51)        163.6824                                         !
 ! D102  D(37,38,39,40)       -157.1491                                         !
 ! D103  D(37,38,39,48)         24.4093                                         !
 ! D104  D(41,38,39,40)        -24.6437                                         !
 ! D105  D(41,38,39,48)        156.9147                                         !
 ! D106  D(51,38,39,40)         90.3423                                         !
 ! D107  D(51,38,39,48)        -88.0993                                         !
 ! D108  D(37,38,41,42)         56.2664                                         !
 ! D109  D(37,38,41,52)        -66.1138                                         !
 ! D110  D(37,38,41,53)       -179.826                                          !
 ! D111  D(39,38,41,42)        -73.4296                                         !
 ! D112  D(39,38,41,52)        164.1902                                         !
 ! D113  D(39,38,41,53)         50.478                                          !
 ! D114  D(51,38,41,42)        172.0371                                         !
 ! D115  D(51,38,41,52)         49.6569                                         !
 ! D116  D(51,38,41,53)        -64.0553                                         !
 ! D117  D(38,39,48,49)         -0.9993                                         !
 ! D118  D(40,39,48,49)       -179.4841                                         !
 ! D119  D(38,41,42,43)         58.682                                          !
 ! D120  D(38,41,42,54)        179.3475                                         !
 ! D121  D(38,41,42,55)        -65.2217                                         !
 ! D122  D(52,41,42,43)       -179.9445                                         !
 ! D123  D(52,41,42,54)        -59.279                                          !
 ! D124  D(52,41,42,55)         56.1518                                         !
 ! D125  D(53,41,42,43)        -63.7725                                         !
 ! D126  D(53,41,42,54)         56.893                                          !
 ! D127  D(53,41,42,55)        172.3238                                         !
 ! D128  D(41,42,43,44)        -80.6516                                         !
 ! D129  D(41,42,43,56)        160.3802                                         !
 ! D130  D(41,42,43,57)         41.2047                                         !
 ! D131  D(54,42,43,44)        158.9847                                         !
 ! D132  D(54,42,43,56)         40.0165                                         !
 ! D133  D(54,42,43,57)        -79.1591                                         !
 ! D134  D(55,42,43,44)         44.5532                                         !
 ! D135  D(55,42,43,56)        -74.415                                          !
 ! D136  D(55,42,43,57)        166.4095                                         !
 ! D137  D(42,43,44,45)        148.0749                                         !
 ! D138  D(42,43,44,58)        -51.5885                                         !
 ! D139  D(56,43,44,45)        -91.913                                          !
 ! D140  D(56,43,44,58)         68.4236                                         !
 ! D141  D(57,43,44,45)         26.6399                                         !
 ! D142  D(57,43,44,58)       -173.0235                                         !
 ! D143  D(43,44,45,46)         -7.7761                                         !
 ! D144  D(43,44,45,47)        170.231                                          !
 ! D145  D(58,44,45,46)       -167.3579                                         !
 ! D146  D(58,44,45,47)         10.6492                                         !
 ! D147  D(44,45,46,59)        -28.2984                                         !
 ! D148  D(44,45,46,60)       -165.0335                                         !
 ! D149  D(47,45,46,59)        153.7341                                         !
 ! D150  D(47,45,46,60)         16.999                                          !
 ! D151  D(44,45,47,61)        166.1447                                         !
 ! D152  D(44,45,47,62)         18.9673                                         !
 ! D153  D(46,45,47,61)        -15.8126                                         !
 ! D154  D(46,45,47,62)       -162.99                                           !
 --------------------------------------------------------------------------------
 Symmetry turned off by external request.
 Stoichiometry    C17H33N6O6(1+)
 Framework group  C1[X(C17H33N6O6)]
 Deg. of freedom   180
 Full point group                 C1      NOp   1
                          Input orientation:                          
 ---------------------------------------------------------------------
 Center     Atomic      Atomic             Coordinates (Angstroms)
 Number     Number       Type             X           Y           Z
 ---------------------------------------------------------------------
      1          7           0       14.979107   15.196795   14.535013
      2          6           0       14.248747   16.521510   14.613720
      3          6           0       15.244009   17.532578   14.014476
      4          8           0       16.412382   17.168793   13.844453
      5          6           0       13.823952   16.818898   16.061734
      6          6           0       12.595609   15.983914   16.477564
      7          6           0       11.572680   16.078583   15.339296
      8          8           0       11.470959   15.086997   14.571692
      9          8           0       11.001940   17.204610   15.163591
     10          1           0       14.566497   14.568325   13.839618
     11          1           0       13.377751   16.430393   13.965196
     12          1           0       13.574874   17.879148   16.133784
     13          1           0       14.679321   16.661496   16.731696
     14          1           0       12.853864   14.932492   16.642652
     15          1           0       12.187504   16.389800   17.407273
     16          1           0       15.957135   15.481475   14.253379
     17          1           0       14.993960   14.702806   15.431709
     18          7           0       14.764882   18.751314   13.720580
     19          6           0       13.348550   19.149989   13.655275
     20          6           0       12.763517   18.767521   12.286147
     21          8           0       13.317986   19.115615   11.254278
     22          6           0       13.248337   20.677358   13.833057
     23          6           0       11.818883   21.247443   13.749887
     24          6           0       10.904871   20.715688   14.866554
     25          6           0       11.872672   22.781667   13.781013
     26          1           0       15.422299   19.350705   13.229850
     27          1           0       12.796029   18.656377   14.453417
     28          1           0       13.861826   21.141889   13.050549
     29          1           0       13.693196   20.937770   14.802229
     30          1           0       11.397797   20.957473   12.774356
     31          1           0       11.282020   21.029491   15.848033
     32          1           0        9.893991   21.126625   14.761517
     33          1           0       10.828176   19.622741   14.888073
     34          1           0       10.868114   23.208530   13.691980
     35          1           0       12.303153   23.136280   14.725696
     36          1           0       12.481733   23.178085   12.961274
     37          7           0       11.562487   18.104738   12.320439
     38          6           0       10.828680   17.880419   11.075207
     39          6           0        9.338150   18.180099   11.264441
     40          8           0        8.474385   17.711622   10.555062
     41          6           0       11.089668   16.540393   10.360782
     42          6           0       10.860212   15.231456   11.133512
     43          6           0        9.444279   15.002307   11.686280
     44          7           0        9.293260   15.755353   12.937498
     45          6           0        8.193755   16.320592   13.434965
     46          7           0        7.045507   16.392187   12.724933
     47          7           0        8.238347   16.790978   14.695014
     48          8           0        9.018114   19.033509   12.258136
     49          1           0        9.834211   19.313238   12.715874
     50          1           0       11.244646   17.682051   13.199288
     51          1           0       11.192795   18.660252   10.392470
     52          1           0       12.133419   16.566332   10.028928
     53          1           0       10.469039   16.543712    9.458773
     54          1           0       11.089046   14.406722   10.448611
     55          1           0       11.569364   15.144615   11.966471
     56          1           0        9.288532   13.938097   11.899226
     57          1           0        8.699257   15.313136   10.953233
     58          1           0       10.061996   15.559770   13.607857
     59          1           0        7.137310   16.423539   11.715103
     60          1           0        6.337551   17.029412   13.066620
     61          1           0        7.498699   17.402481   15.010540
     62          1           0        9.173611   16.960913   15.087386
 ---------------------------------------------------------------------
 Rotational constants (GHZ):           0.2030882           0.1434438           0.1188475
 Standard basis: 6-31G(d) (6D, 7F)
   501 basis functions,   944 primitive gaussians,   501 cartesian basis functions
   112 alpha electrons      112 beta electrons
       nuclear repulsion energy      3358.0921090836 Hartrees.
 NAtoms=   62 NActive=   62 NUniq=   62 SFac= 1.00D+00 NAtFMM=   60 NAOKFM=T Big=T
 Integral buffers will be    131072 words long.
 Raffenetti 2 integral format.
 Two-electron integral symmetry is turned off.
 Nuclear repulsion after empirical dispersion term =     3357.9967039396 Hartrees.
 One-electron integrals computed using PRISM.
 NBasis=   501 RedAO= T EigKep=  1.63D-03  NBF=   501
 NBsUse=   501 1.00D-06 EigRej= -1.00D+00 NBFU=   501
 Initial guess from the checkpoint file:  "conf-497.chk"
 B after Tr=     0.000000    0.000000    0.000000
         Rot=    1.000000    0.000000    0.000000    0.000000 Ang=   0.00 deg.
 Requested convergence on RMS density matrix=1.00D-08 within 128 cycles.
 Requested convergence on MAX density matrix=1.00D-06.
 Requested convergence on             energy=1.00D-06.
 No special actions if energy rises.
 SCF Done:  E(RB3LYP) =  -1447.51419789     A.U. after    2 cycles
            NFock=  2  Conv=0.88D-08     -V/T= 2.0093

 **********************************************************************

            Population analysis using the SCF Density.

 **********************************************************************

 Alpha  occ. eigenvalues --  -19.30406 -19.26943 -19.24504 -19.23207 -19.22077
 Alpha  occ. eigenvalues --  -19.22075 -14.60279 -14.50063 -14.48374 -14.47860
 Alpha  occ. eigenvalues --  -14.47770 -14.47600 -10.44694 -10.43869 -10.43019
 Alpha  occ. eigenvalues --  -10.40330 -10.40260 -10.39891 -10.35617 -10.34801
 Alpha  occ. eigenvalues --  -10.34235 -10.33436 -10.30953 -10.29743 -10.29527
 Alpha  occ. eigenvalues --  -10.29392 -10.29264 -10.26950 -10.26034  -1.21205
 Alpha  occ. eigenvalues --   -1.19387  -1.15485  -1.15323  -1.14139  -1.13228
 Alpha  occ. eigenvalues --   -1.12764  -1.06643  -1.06175  -1.04024  -1.02582
 Alpha  occ. eigenvalues --   -1.01315  -0.94482  -0.92223  -0.90433  -0.87004
 Alpha  occ. eigenvalues --   -0.86322  -0.84681  -0.79604  -0.77747  -0.77494
 Alpha  occ. eigenvalues --   -0.75877  -0.74674  -0.74244  -0.73694  -0.72741
 Alpha  occ. eigenvalues --   -0.72434  -0.71269  -0.70108  -0.69103  -0.67874
 Alpha  occ. eigenvalues --   -0.66749  -0.65752  -0.64832  -0.62755  -0.62456
 Alpha  occ. eigenvalues --   -0.61720  -0.60751  -0.60494  -0.60179  -0.59640
 Alpha  occ. eigenvalues --   -0.58430  -0.57954  -0.56787  -0.56757  -0.56466
 Alpha  occ. eigenvalues --   -0.56205  -0.55922  -0.54618  -0.54213  -0.53903
 Alpha  occ. eigenvalues --   -0.53374  -0.52752  -0.52659  -0.52264  -0.51438
 Alpha  occ. eigenvalues --   -0.50937  -0.50733  -0.50425  -0.49838  -0.49342
 Alpha  occ. eigenvalues --   -0.48363  -0.48154  -0.47707  -0.47284  -0.46046
 Alpha  occ. eigenvalues --   -0.45676  -0.45054  -0.44606  -0.43309  -0.42841
 Alpha  occ. eigenvalues --   -0.42509  -0.42354  -0.41425  -0.40045  -0.39820
 Alpha  occ. eigenvalues --   -0.39090  -0.38118  -0.37709  -0.36979  -0.36581
 Alpha  occ. eigenvalues --   -0.36194  -0.35784
 Alpha virt. eigenvalues --   -0.12755  -0.11103  -0.10424  -0.09984  -0.09582
 Alpha virt. eigenvalues --   -0.08649  -0.06373  -0.04810  -0.03829  -0.03478
 Alpha virt. eigenvalues --   -0.02775  -0.01408  -0.00649  -0.00073   0.00443
 Alpha virt. eigenvalues --    0.01048   0.01742   0.02155   0.02341   0.03334
 Alpha virt. eigenvalues --    0.03859   0.04503   0.04591   0.04654   0.05184
 Alpha virt. eigenvalues --    0.05741   0.06156   0.06400   0.06865   0.07337
 Alpha virt. eigenvalues --    0.07999   0.08128   0.08598   0.08822   0.09203
 Alpha virt. eigenvalues --    0.09699   0.09918   0.10254   0.10693   0.11004
 Alpha virt. eigenvalues --    0.11596   0.11943   0.11976   0.12698   0.12983
 Alpha virt. eigenvalues --    0.13588   0.14172   0.14626   0.15164   0.15511
 Alpha virt. eigenvalues --    0.15986   0.16424   0.16856   0.17293   0.18345
 Alpha virt. eigenvalues --    0.19083   0.22228   0.22945   0.24554   0.25749
 Alpha virt. eigenvalues --    0.27670   0.28330   0.29407   0.29834   0.30611
 Alpha virt. eigenvalues --    0.32209   0.35757   0.36767   0.37008   0.38807
 Alpha virt. eigenvalues --    0.39583   0.40576   0.40766   0.41302   0.41892
 Alpha virt. eigenvalues --    0.42377   0.42706   0.43650   0.44555   0.44859
 Alpha virt. eigenvalues --    0.45268   0.45537   0.46923   0.47481   0.47873
 Alpha virt. eigenvalues --    0.48367   0.49045   0.50141   0.50940   0.51732
 Alpha virt. eigenvalues --    0.52085   0.52563   0.52988   0.53452   0.54205
 Alpha virt. eigenvalues --    0.54532   0.54959   0.55358   0.55987   0.56348
 Alpha virt. eigenvalues --    0.56764   0.57747   0.58024   0.58348   0.59917
 Alpha virt. eigenvalues --    0.60424   0.60810   0.61203   0.61964   0.62238
 Alpha virt. eigenvalues --    0.63126   0.63643   0.64482   0.65591   0.66546
 Alpha virt. eigenvalues --    0.66954   0.67437   0.67707   0.68958   0.69086
 Alpha virt. eigenvalues --    0.69784   0.70641   0.71003   0.71615   0.72058
 Alpha virt. eigenvalues --    0.72865   0.73576   0.73801   0.74245   0.74566
 Alpha virt. eigenvalues --    0.74975   0.75365   0.75920   0.76508   0.77224
 Alpha virt. eigenvalues --    0.77828   0.78399   0.78960   0.79149   0.80061
 Alpha virt. eigenvalues --    0.80569   0.81140   0.81589   0.81857   0.82151
 Alpha virt. eigenvalues --    0.82550   0.82952   0.83871   0.84017   0.84966
 Alpha virt. eigenvalues --    0.85231   0.85489   0.86028   0.86668   0.86932
 Alpha virt. eigenvalues --    0.87341   0.87949   0.89153   0.89917   0.90260
 Alpha virt. eigenvalues --    0.91169   0.91660   0.91990   0.93505   0.94347
 Alpha virt. eigenvalues --    0.95015   0.95323   0.95502   0.96866   0.96959
 Alpha virt. eigenvalues --    0.98173   0.98893   1.00527   1.00764   1.01504
 Alpha virt. eigenvalues --    1.03214   1.04514   1.05217   1.06408   1.07665
 Alpha virt. eigenvalues --    1.08242   1.09033   1.09874   1.10440   1.11509
 Alpha virt. eigenvalues --    1.13449   1.15245   1.15903   1.17248   1.17644
 Alpha virt. eigenvalues --    1.18991   1.20004   1.20967   1.22371   1.22701
 Alpha virt. eigenvalues --    1.24898   1.25030   1.26781   1.27983   1.29209
 Alpha virt. eigenvalues --    1.30258   1.32190   1.33260   1.34427   1.35449
 Alpha virt. eigenvalues --    1.35885   1.37310   1.39436   1.39774   1.41460
 Alpha virt. eigenvalues --    1.42092   1.43279   1.44380   1.44837   1.46726
 Alpha virt. eigenvalues --    1.47580   1.48973   1.49165   1.50823   1.51615
 Alpha virt. eigenvalues --    1.53423   1.54522   1.55763   1.56642   1.57453
 Alpha virt. eigenvalues --    1.58263   1.58534   1.60286   1.60717   1.61871
 Alpha virt. eigenvalues --    1.63137   1.63641   1.64253   1.65181   1.65303
 Alpha virt. eigenvalues --    1.66632   1.68097   1.68498   1.69649   1.70061
 Alpha virt. eigenvalues --    1.70359   1.70742   1.71143   1.71797   1.72460
 Alpha virt. eigenvalues --    1.72851   1.73604   1.74933   1.75364   1.75812
 Alpha virt. eigenvalues --    1.76646   1.76846   1.78075   1.78622   1.79710
 Alpha virt. eigenvalues --    1.80224   1.81614   1.81666   1.82413   1.83260
 Alpha virt. eigenvalues --    1.83936   1.84641   1.85841   1.86648   1.86923
 Alpha virt. eigenvalues --    1.87920   1.88602   1.89335   1.89844   1.91196
 Alpha virt. eigenvalues --    1.91639   1.92081   1.92984   1.93648   1.94115
 Alpha virt. eigenvalues --    1.94733   1.95126   1.97319   1.98257   1.98840
 Alpha virt. eigenvalues --    2.00144   2.01050   2.01975   2.04324   2.05515
 Alpha virt. eigenvalues --    2.05703   2.06254   2.06564   2.07846   2.09485
 Alpha virt. eigenvalues --    2.09681   2.11347   2.12364   2.14088   2.14915
 Alpha virt. eigenvalues --    2.15047   2.15817   2.16759   2.17305   2.18366
 Alpha virt. eigenvalues --    2.18542   2.20565   2.21280   2.22841   2.23522
 Alpha virt. eigenvalues --    2.24834   2.25081   2.26300   2.27726   2.28494
 Alpha virt. eigenvalues --    2.31661   2.31979   2.33067   2.33968   2.35609
 Alpha virt. eigenvalues --    2.37270   2.37811   2.38444   2.39882   2.40982
 Alpha virt. eigenvalues --    2.42806   2.43137   2.44219   2.45717   2.47392
 Alpha virt. eigenvalues --    2.48429   2.49651   2.51735   2.52190   2.53083
 Alpha virt. eigenvalues --    2.53990   2.55339   2.55862   2.55974   2.58592
 Alpha virt. eigenvalues --    2.59490   2.60109   2.60685   2.62469   2.65069
 Alpha virt. eigenvalues --    2.65942   2.66198   2.68964   2.69347   2.70475
 Alpha virt. eigenvalues --    2.73981   2.77655   2.81365   2.84629   2.85870
 Alpha virt. eigenvalues --    2.88597   2.88883   2.90589   2.92759   2.93256
 Alpha virt. eigenvalues --    3.01051   3.01183   3.02425   3.04542   3.05664
 Alpha virt. eigenvalues --    3.63773   3.71728   3.80783   3.86098   3.88071
 Alpha virt. eigenvalues --    3.89901   3.96357   4.00148   4.04764   4.06150
 Alpha virt. eigenvalues --    4.09192   4.10607   4.15200   4.17508   4.20878
 Alpha virt. eigenvalues --    4.21865   4.22708   4.24381   4.28809   4.29696
 Alpha virt. eigenvalues --    4.36977   4.38488   4.42235   4.44810   4.48497
 Alpha virt. eigenvalues --    4.51063   4.53592   4.56520   4.72270
          Condensed to atoms (all electrons):
 Mulliken charges:
               1
     1  N   -0.752942
     2  C   -0.117546
     3  C    0.636429
     4  O   -0.515375
     5  C   -0.322713
     6  C   -0.322745
     7  C    0.573473
     8  O   -0.576648
     9  O   -0.603270
    10  H    0.423217
    11  H    0.233661
    12  H    0.213352
    13  H    0.177767
    14  H    0.153024
    15  H    0.191758
    16  H    0.431402
    17  H    0.416271
    18  N   -0.580403
    19  C   -0.115290
    20  C    0.621393
    21  O   -0.503092
    22  C   -0.275079
    23  C   -0.104601
    24  C   -0.494004
    25  C   -0.446324
    26  H    0.371394
    27  H    0.190091
    28  H    0.170012
    29  H    0.160418
    30  H    0.129888
    31  H    0.158706
    32  H    0.159403
    33  H    0.164336
    34  H    0.161079
    35  H    0.154604
    36  H    0.160883
    37  N   -0.705080
    38  C   -0.068980
    39  C    0.628658
    40  O   -0.489106
    41  C   -0.271524
    42  C   -0.299067
    43  C   -0.149019
    44  N   -0.653105
    45  C    0.739399
    46  N   -0.727205
    47  N   -0.777754
    48  O   -0.594258
    49  H    0.450716
    50  H    0.387393
    51  H    0.228844
    52  H    0.168009
    53  H    0.183581
    54  H    0.169066
    55  H    0.148127
    56  H    0.185242
    57  H    0.187268
    58  H    0.418098
    59  H    0.391844
    60  H    0.360624
    61  H    0.354587
    62  H    0.411114
 Sum of Mulliken charges =   1.00000
 Mulliken charges with hydrogens summed into heavy atoms:
               1
     1  N    0.517947
     2  C    0.116115
     3  C    0.636429
     4  O   -0.515375
     5  C    0.068407
     6  C    0.022037
     7  C    0.573473
     8  O   -0.576648
     9  O   -0.603270
    18  N   -0.209010
    19  C    0.074800
    20  C    0.621393
    21  O   -0.503092
    22  C    0.055351
    23  C    0.025288
    24  C   -0.011559
    25  C    0.030242
    37  N   -0.317687
    38  C    0.159865
    39  C    0.628658
    40  O   -0.489106
    41  C    0.080065
    42  C    0.018126
    43  C    0.223491
    44  N   -0.235007
    45  C    0.739399
    46  N    0.025263
    47  N   -0.012054
    48  O   -0.143542
 Electronic spatial extent (au):  <R**2>=         509783.2059
 Charge=              1.0000 electrons
 Dipole moment (field-independent basis, Debye):
    X=             57.7774    Y=             79.5683    Z=             69.0016  Tot=            120.1273
 Quadrupole moment (field-independent basis, Debye-Ang):
   XX=            573.6080   YY=           1174.5137   ZZ=            828.3524
   XY=            942.6674   XZ=            842.8180   YZ=           1150.4666
 Traceless Quadrupole moment (field-independent basis, Debye-Ang):
   XX=           -285.2166   YY=            315.6890   ZZ=            -30.4723
   XY=            942.6674   XZ=            842.8180   YZ=           1150.4666
 Octapole moment (field-independent basis, Debye-Ang**2):
  XXX=           4014.5517  YYY=          14204.1738  ZZZ=           7755.4255  XYY=          13764.5117
  XXY=           8944.0834  XXZ=           8734.1315  XZZ=          10396.7990  YZZ=          13699.1431
  YYZ=          17285.3480  XYZ=          13822.6593
 Hexadecapole moment (field-independent basis, Debye-Ang**3):
 XXXX=          -8072.0742 YYYY=          87214.1422 ZZZZ=          29579.9323 XXXY=          52298.1646
 XXXZ=          69134.0909 YYYX=         164631.7658 YYYZ=         219020.8182 ZZZX=         103103.6535
 ZZZY=         123618.1862 XXYY=         119103.9144 XXZZ=         108860.6970 YYZZ=         200072.7879
 XXYZ=         137510.4343 YYXZ=         205224.5015 ZZXY=         168380.8803
 N-N= 3.357996703940D+03 E-N=-1.006451338933D+04  KE= 1.434152943223D+03
 Unable to Open any file for archive entry.
 1\1\GINC-VIM-001\SP\RB3LYP\6-31G(d)\C17H33N6O6(1+)\KENGMITH\24-May-202
 2\0\\# B3LYP/6-31G* empiricaldispersion=gd3 guess=read geom=check nosy
 mm integral(ultrafinegrid)\\Candidate Structure: Conf:497 Charge calc 
 in gas phase\\1,1\N,0,14.9791066669,15.1967947828,14.5350129822\C,0,14
 .2487470868,16.5215102415,14.6137197684\C,0,15.2440091765,17.532578294
 9,14.0144756345\O,0,16.4123816148,17.1687928564,13.8444528299\C,0,13.8
 239520085,16.8188984952,16.0617344462\C,0,12.5956088704,15.9839143729,
 16.4775642914\C,0,11.5726801747,16.0785833291,15.3392959212\O,0,11.470
 9587063,15.0869973456,14.5716920787\O,0,11.0019400328,17.2046102379,15
 .1635909177\H,0,14.5664973091,14.5683252794,13.8396184223\H,0,13.37775
 06509,16.4303926157,13.9651958816\H,0,13.5748743733,17.87914768,16.133
 784178\H,0,14.6793213338,16.6614955631,16.7316963094\H,0,12.8538640931
 ,14.9324917674,16.6426521154\H,0,12.1875038706,16.3897998178,17.407272
 7539\H,0,15.9571346558,15.4814749066,14.2533791337\H,0,14.9939602751,1
 4.7028059121,15.4317089094\N,0,14.7648821344,18.7513142428,13.72057954
 81\C,0,13.3485495412,19.1499891661,13.655274877\C,0,12.7635173537,18.7
 675206804,12.2861466211\O,0,13.317985587,19.115615266,11.254277623\C,0
 ,13.2483365443,20.6773575839,13.8330567637\C,0,11.8188831715,21.247442
 778,13.7498868503\C,0,10.9048714867,20.7156879302,14.8665544874\C,0,11
 .8726719175,22.7816669053,13.781013045\H,0,15.4222989389,19.350704714,
 13.2298499054\H,0,12.7960293213,18.6563774203,14.4534169287\H,0,13.861
 8263313,21.1418890322,13.0505486643\H,0,13.693196366,20.9377696227,14.
 8022286698\H,0,11.397797477,20.9574729384,12.7743563402\H,0,11.2820198
 923,21.0294911859,15.8480329222\H,0,9.8939906761,21.1266248403,14.7615
 165993\H,0,10.8281761157,19.6227411595,14.8880725999\H,0,10.868114117,
 23.2085297744,13.691980079\H,0,12.3031531681,23.1362797133,14.72569648
 71\H,0,12.4817329575,23.1780851573,12.9612742559\N,0,11.562487151,18.1
 047380591,12.3204385973\C,0,10.8286801821,17.880418671,11.0752073513\C
 ,0,9.3381496313,18.1800989761,11.2644410185\O,0,8.4743851005,17.711622
 2178,10.5550617564\C,0,11.0896684329,16.5403927609,10.3607818261\C,0,1
 0.86021209,15.231456159,11.1335122171\C,0,9.4442786454,15.002306715,11
 .6862803853\N,0,9.293260193,15.7553533226,12.9374977798\C,0,8.19375471
 54,16.3205917162,13.4349652133\N,0,7.0455071856,16.3921873256,12.72493
 2658\N,0,8.2383472006,16.7909778567,14.6950143837\O,0,9.0181136383,19.
 0335092444,12.2581358365\H,0,9.834211386,19.3132379623,12.7158735413\H
 ,0,11.2446458658,17.6820506034,13.1992879542\H,0,11.192794707,18.66025
 23535,10.3924703644\H,0,12.1334194219,16.5663323268,10.0289282762\H,0,
 10.4690394913,16.5437117188,9.4587733407\H,0,11.0890464231,14.40672157
 33,10.448611277\H,0,11.5693643603,15.1446153907,11.9664705408\H,0,9.28
 85319923,13.9380967193,11.899225799\H,0,8.6992573663,15.3131360378,10.
 9532330859\H,0,10.0619962098,15.5597696793,13.6078566478\H,0,7.1373096
 488,16.4235391442,11.7151027291\H,0,6.3375507735,17.0294123952,13.0666
 199714\H,0,7.4986991694,17.4024814604,15.0105396757\H,0,9.1736112518,1
 6.960912881,15.0873862019\\Version=ES64L-G16RevC.01\HF=-1447.5141979\R
 MSD=8.845e-09\Dipole=0.8216521,-2.058974,1.9286322\Quadrupole=-212.051
 5852,234.7070144,-22.6554291,700.8501295,626.6145378,855.343698\PG=C01
  [X(C17H33N6O6)]\\@
 The archive entry for this job was punched.


 ... A MOLECULAR SYSTEM ... (PASSES) ... FROM ONE STATE OF EQUILIBRIUM 
 TO ANOTHER ... BY MEANS OF ALL POSSIBLE INTERMEDIATE PATHS, 
 BUT THE PATH MOST ECONOMICAL OF ENERGY WILL BE THE MORE OFTEN TRAVELED.

                      -- HENRY EYRING, 1945
 Job cpu time:       0 days  0 hours  3 minutes 11.9 seconds.
 Elapsed time:       0 days  0 hours  0 minutes 48.5 seconds.
 File lengths (MBytes):  RWF=    248 Int=      0 D2E=      0 Chk=     32 Scr=     16
 Normal termination of Gaussian 16 at Tue May 24 03:33:52 2022.
