 Entering Gaussian System, Link 0=/opt/software/Gaussian/g16-AVX-C.01/g16/g16
 Input=charge-conf-446.com
 Output=charge-conf-446.log
 Initial command:
 /opt/software/Gaussian/g16-AVX-C.01/g16/l1.exe "/mnt/gs18/scratch/users/kengmith/Gau-33976.inp" -scrdir="/mnt/gs18/scratch/users/kengmith/"
 Entering Link 1 = /opt/software/Gaussian/g16-AVX-C.01/g16/l1.exe PID=     34010.
  
 Copyright (c) 1988-2019, Gaussian, Inc.  All Rights Reserved.
  
 This is part of the Gaussian(R) 16 program.  It is based on
 the Gaussian(R) 09 system (copyright 2009, Gaussian, Inc.),
 the Gaussian(R) 03 system (copyright 2003, Gaussian, Inc.),
 the Gaussian(R) 98 system (copyright 1998, Gaussian, Inc.),
 the Gaussian(R) 94 system (copyright 1995, Gaussian, Inc.),
 the Gaussian 92(TM) system (copyright 1992, Gaussian, Inc.),
 the Gaussian 90(TM) system (copyright 1990, Gaussian, Inc.),
 the Gaussian 88(TM) system (copyright 1988, Gaussian, Inc.),
 the Gaussian 86(TM) system (copyright 1986, Carnegie Mellon
 University), and the Gaussian 82(TM) system (copyright 1983,
 Carnegie Mellon University). Gaussian is a federally registered
 trademark of Gaussian, Inc.
  
 This software contains proprietary and confidential information,
 including trade secrets, belonging to Gaussian, Inc.
  
 This software is provided under written license and may be
 used, copied, transmitted, or stored only in accord with that
 written license.
  
 The following legend is applicable only to US Government
 contracts under FAR:
  
                    RESTRICTED RIGHTS LEGEND
  
 Use, reproduction and disclosure by the US Government is
 subject to restrictions as set forth in subparagraphs (a)
 and (c) of the Commercial Computer Software - Restricted
 Rights clause in FAR 52.227-19.
  
 Gaussian, Inc.
 340 Quinnipiac St., Bldg. 40, Wallingford CT 06492
  
  
 ---------------------------------------------------------------
 Warning -- This program may not be used in any manner that
 competes with the business of Gaussian, Inc. or will provide
 assistance to any competitor of Gaussian, Inc.  The licensee
 of this program is prohibited from giving any competitor of
 Gaussian, Inc. access to this program.  By using this program,
 the user acknowledges that Gaussian, Inc. is engaged in the
 business of creating and licensing software in the field of
 computational chemistry and represents and warrants to the
 licensee that it is not a competitor of Gaussian, Inc. and that
 it will not use this program in any manner prohibited above.
 ---------------------------------------------------------------
  

 Cite this work as:
 Gaussian 16, Revision C.01,
 M. J. Frisch, G. W. Trucks, H. B. Schlegel, G. E. Scuseria, 
 M. A. Robb, J. R. Cheeseman, G. Scalmani, V. Barone, 
 G. A. Petersson, H. Nakatsuji, X. Li, M. Caricato, A. V. Marenich, 
 J. Bloino, B. G. Janesko, R. Gomperts, B. Mennucci, H. P. Hratchian, 
 J. V. Ortiz, A. F. Izmaylov, J. L. Sonnenberg, D. Williams-Young, 
 F. Ding, F. Lipparini, F. Egidi, J. Goings, B. Peng, A. Petrone, 
 T. Henderson, D. Ranasinghe, V. G. Zakrzewski, J. Gao, N. Rega, 
 G. Zheng, W. Liang, M. Hada, M. Ehara, K. Toyota, R. Fukuda, 
 J. Hasegawa, M. Ishida, T. Nakajima, Y. Honda, O. Kitao, H. Nakai, 
 T. Vreven, K. Throssell, J. A. Montgomery, Jr., J. E. Peralta, 
 F. Ogliaro, M. J. Bearpark, J. J. Heyd, E. N. Brothers, K. N. Kudin, 
 V. N. Staroverov, T. A. Keith, R. Kobayashi, J. Normand, 
 K. Raghavachari, A. P. Rendell, J. C. Burant, S. S. Iyengar, 
 J. Tomasi, M. Cossi, J. M. Millam, M. Klene, C. Adamo, R. Cammi, 
 J. W. Ochterski, R. L. Martin, K. Morokuma, O. Farkas, 
 J. B. Foresman, and D. J. Fox, Gaussian, Inc., Wallingford CT, 2019.
 
 ******************************************
 Gaussian 16:  ES64L-G16RevC.01  3-Jul-2019
                24-May-2022 
 ******************************************
 %mem=8gb
 %nproc=4
 Will use up to    4 processors via shared memory.
 %chk=conf-446.chk
 ----------------------------------------------------------------------
 # B3LYP/6-31G* empiricaldispersion=gd3 guess=read geom=check nosymm in
 tegral(ultrafinegrid)
 ----------------------------------------------------------------------
 1/29=2,38=1,172=1/1;
 2/12=2,15=1,40=1/2;
 3/5=1,6=6,7=1,11=2,14=-4,25=1,30=1,74=-5,75=-5,116=-2,124=31/1,2,3;
 4/5=1/1;
 5/5=2,38=6/2;
 6/7=2,8=2,9=2,10=2,28=1/1;
 99/5=1,9=1/99;
 ------------------------------------------------------
 Candidate Structure: Conf:446 Charge calc in gas phase
 ------------------------------------------------------
 Structure from the checkpoint file:  "conf-446.chk"
 Charge =  1 Multiplicity = 1
 Redundant internal coordinates found in file.  (old form).
 N,0,11.9234862917,18.1138588182,10.2075365844
 C,0,11.3020585141,17.1170580323,11.1442050243
 C,0,11.9873402802,15.7663050454,10.9477625573
 O,0,12.5664554347,15.5355517405,9.8930239127
 C,0,9.7798382537,17.0855700989,10.9252314367
 C,0,9.122722992,18.4889932176,10.9617499325
 C,0,9.7226005581,19.3260247319,12.0973849786
 O,0,10.8858386154,19.8388319488,11.865246016
 O,0,9.1251860627,19.3831107398,13.1874673355
 H,0,12.9434260172,18.018879125,10.1932181087
 H,0,11.5264524931,17.5207086089,12.1302682333
 H,0,9.3474837572,16.4560226542,11.7085896953
 H,0,9.5666612945,16.5859008558,9.9723819428
 H,0,9.280699465,19.0091067529,10.0102569588
 H,0,8.0469723977,18.3770593873,11.1084294123
 H,0,11.6071398834,17.9665604701,9.2448945401
 H,0,11.609078479,19.0613256619,10.6272301506
 N,0,11.8750344796,14.8933902584,11.9809031094
 C,0,11.4721757069,15.2072003639,13.3583037324
 C,0,12.696713703,15.7617452506,14.1104679528
 O,0,13.7164009605,15.1035491534,14.212876248
 C,0,10.954898333,13.9594315324,14.0995734971
 C,0,9.5426132338,13.4750353343,13.7130437758
 C,0,9.4350913467,12.9672545434,12.2668208582
 C,0,9.102252209,12.3791096659,14.6964791376
 H,0,12.3944213904,14.0301356954,11.853285928
 H,0,10.6642286458,15.9442462349,13.3355625774
 H,0,10.9549056048,14.2046153586,15.1696701115
 H,0,11.691531463,13.1539697051,13.9804843551
 H,0,8.8567260787,14.3294813475,13.8303245393
 H,0,8.4319556753,12.5704592328,12.0778744289
 H,0,9.6284746497,13.7521820008,11.5300995048
 H,0,10.1501504056,12.1547385235,12.0851373356
 H,0,8.0821902644,12.0473088293,14.4768944481
 H,0,9.7598775443,11.5040697481,14.6232415838
 H,0,9.1258339271,12.7316799846,15.7340776079
 N,0,12.5568484653,17.0122540568,14.6913532155
 C,0,13.7229930345,17.6354348675,15.3275356631
 C,0,13.2738964458,18.5336488987,16.4812553113
 O,0,13.9210567616,19.4869448869,16.8631634141
 C,0,14.6993161066,18.3342953232,14.3642342027
 C,0,14.1379017142,19.3992446112,13.4074335103
 C,0,13.4733871187,20.6315234555,14.040639124
 N,0,12.0694032804,20.3318090107,14.3860088616
 C,0,11.3612356801,20.9606246439,15.3516366021
 N,0,11.9775326497,21.5297915348,16.4063716504
 N,0,10.0360472358,21.0151124747,15.2210361387
 O,0,12.1165995025,18.207558577,17.0780039273
 H,0,11.7579441034,17.4060822908,16.6488377519
 H,0,11.8390761961,17.6413635448,14.3443224763
 H,0,14.2733267074,16.8047116393,15.7880046199
 H,0,15.165437574,17.5431279151,13.7673092893
 H,0,15.4887696811,18.7791174638,14.9780490515
 H,0,14.9764296811,19.7517579718,12.7955353463
 H,0,13.4234943918,18.94683906,12.7044287584
 H,0,13.4788625995,21.4638338169,13.3264187488
 H,0,14.027811718,20.9453420202,14.9237208448
 H,0,11.5233698154,20.1448466729,13.525350734
 H,0,12.8554056195,21.1179441879,16.7203464901
 H,0,11.3963071627,21.8895877314,17.151808895
 H,0,9.4591692417,21.2842348709,16.0054610387
 H,0,9.5901301016,20.507965411,14.431474272
 Recover connectivity data from disk.
                           ----------------------------
                           !    Current Parameters    !
                           ! (Angstroms and Degrees)  !
 --------------------------                            --------------------------
 ! Name  Definition              Value                                          !
 --------------------------------------------------------------------------------
 ! R1    R(1,2)                  1.5024                                         !
 ! R2    R(1,10)                 1.0245                                         !
 ! R3    R(1,16)                 1.0239                                         !
 ! R4    R(1,17)                 1.0829                                         !
 ! R5    R(2,3)                  1.5273                                         !
 ! R6    R(2,5)                  1.5382                                         !
 ! R7    R(2,11)                 1.0889                                         !
 ! R8    R(3,4)                  1.2252                                         !
 ! R9    R(3,18)                 1.3572                                         !
 ! R10   R(5,6)                  1.5501                                         !
 ! R11   R(5,12)                 1.094                                          !
 ! R12   R(5,13)                 1.0968                                         !
 ! R13   R(6,7)                  1.533                                          !
 ! R14   R(6,14)                 1.0958                                         !
 ! R15   R(6,15)                 1.0915                                         !
 ! R16   R(7,8)                  1.2923                                         !
 ! R17   R(7,9)                  1.2444                                         !
 ! R18   R(18,19)                1.469                                          !
 ! R19   R(18,26)                1.0155                                         !
 ! R20   R(19,20)                1.5404                                         !
 ! R21   R(19,22)                1.5408                                         !
 ! R22   R(19,27)                1.0939                                         !
 ! R23   R(20,21)                1.218                                          !
 ! R24   R(20,37)                1.3859                                         !
 ! R25   R(22,23)                1.5423                                         !
 ! R26   R(22,28)                1.0978                                         !
 ! R27   R(22,29)                1.098                                          !
 ! R28   R(23,24)                1.5365                                         !
 ! R29   R(23,25)                1.5369                                         !
 ! R30   R(23,30)                1.1019                                         !
 ! R31   R(24,31)                1.0952                                         !
 ! R32   R(24,32)                1.0937                                         !
 ! R33   R(24,33)                1.0975                                         !
 ! R34   R(25,34)                1.0949                                         !
 ! R35   R(25,35)                1.0971                                         !
 ! R36   R(25,36)                1.0961                                         !
 ! R37   R(37,38)                1.4673                                         !
 ! R38   R(37,50)                1.0156                                         !
 ! R39   R(38,39)                1.5296                                         !
 ! R40   R(38,41)                1.5393                                         !
 ! R41   R(38,51)                1.0977                                         !
 ! R42   R(39,40)                1.2139                                         !
 ! R43   R(39,48)                1.3423                                         !
 ! R44   R(41,42)                1.5378                                         !
 ! R45   R(41,52)                1.0952                                         !
 ! R46   R(41,53)                1.0945                                         !
 ! R47   R(42,43)                1.5366                                         !
 ! R48   R(42,54)                1.0963                                         !
 ! R49   R(42,55)                1.0997                                         !
 ! R50   R(43,44)                1.4766                                         !
 ! R51   R(43,56)                1.0968                                         !
 ! R52   R(43,57)                1.0889                                         !
 ! R53   R(44,45)                1.3525                                         !
 ! R54   R(44,58)                1.0363                                         !
 ! R55   R(45,46)                1.3477                                         !
 ! R56   R(45,47)                1.3327                                         !
 ! R57   R(46,59)                1.0192                                         !
 ! R58   R(46,60)                1.0114                                         !
 ! R59   R(47,61)                1.0102                                         !
 ! R60   R(47,62)                1.039                                          !
 ! R61   R(48,49)                0.9773                                         !
 ! A1    A(2,1,10)             111.0393                                         !
 ! A2    A(2,1,16)             111.2784                                         !
 ! A3    A(2,1,17)             102.6374                                         !
 ! A4    A(10,1,16)            106.3266                                         !
 ! A5    A(10,1,17)            112.0609                                         !
 ! A6    A(16,1,17)            113.6109                                         !
 ! A7    A(1,2,3)              108.7235                                         !
 ! A8    A(1,2,5)              109.5214                                         !
 ! A9    A(1,2,11)             103.4973                                         !
 ! A10   A(3,2,5)              114.0543                                         !
 ! A11   A(3,2,11)             110.6013                                         !
 ! A12   A(5,2,11)             109.904                                          !
 ! A13   A(2,3,4)              119.2992                                         !
 ! A14   A(2,3,18)             115.7078                                         !
 ! A15   A(4,3,18)             124.981                                          !
 ! A16   A(2,5,6)              113.4301                                         !
 ! A17   A(2,5,12)             107.5137                                         !
 ! A18   A(2,5,13)             108.9856                                         !
 ! A19   A(6,5,12)             109.6695                                         !
 ! A20   A(6,5,13)             110.5198                                         !
 ! A21   A(12,5,13)            106.4442                                         !
 ! A22   A(5,6,7)              110.2376                                         !
 ! A23   A(5,6,14)             110.3748                                         !
 ! A24   A(5,6,15)             109.1558                                         !
 ! A25   A(7,6,14)             109.1266                                         !
 ! A26   A(7,6,15)             110.0058                                         !
 ! A27   A(14,6,15)            107.9058                                         !
 ! A28   A(6,7,8)              115.838                                          !
 ! A29   A(6,7,9)              119.086                                          !
 ! A30   A(8,7,9)              124.842                                          !
 ! A31   A(3,18,19)            126.8024                                         !
 ! A32   A(3,18,26)            114.127                                          !
 ! A33   A(19,18,26)           116.0836                                         !
 ! A34   A(18,19,20)           108.466                                          !
 ! A35   A(18,19,22)           111.7262                                         !
 ! A36   A(18,19,27)           109.0868                                         !
 ! A37   A(20,19,22)           108.8754                                         !
 ! A38   A(20,19,27)           110.7782                                         !
 ! A39   A(22,19,27)           107.9204                                         !
 ! A40   A(19,20,21)           120.8002                                         !
 ! A41   A(19,20,37)           116.6968                                         !
 ! A42   A(21,20,37)           122.4695                                         !
 ! A43   A(19,22,23)           116.1809                                         !
 ! A44   A(19,22,28)           106.7433                                         !
 ! A45   A(19,22,29)           108.461                                          !
 ! A46   A(23,22,28)           108.3273                                         !
 ! A47   A(23,22,29)           110.9016                                         !
 ! A48   A(28,22,29)           105.6376                                         !
 ! A49   A(22,23,24)           113.8138                                         !
 ! A50   A(22,23,25)           109.0241                                         !
 ! A51   A(22,23,30)           107.4434                                         !
 ! A52   A(24,23,25)           110.2774                                         !
 ! A53   A(24,23,30)           108.232                                          !
 ! A54   A(25,23,30)           107.8466                                         !
 ! A55   A(23,24,31)           110.2557                                         !
 ! A56   A(23,24,32)           112.6096                                         !
 ! A57   A(23,24,33)           110.786                                          !
 ! A58   A(31,24,32)           107.8034                                         !
 ! A59   A(31,24,33)           107.4567                                         !
 ! A60   A(32,24,33)           107.7341                                         !
 ! A61   A(23,25,34)           110.7747                                         !
 ! A62   A(23,25,35)           110.7499                                         !
 ! A63   A(23,25,36)           111.7273                                         !
 ! A64   A(34,25,35)           107.6599                                         !
 ! A65   A(34,25,36)           107.9002                                         !
 ! A66   A(35,25,36)           107.87                                           !
 ! A67   A(20,37,38)           118.9952                                         !
 ! A68   A(20,37,50)           119.1462                                         !
 ! A69   A(38,37,50)           116.5363                                         !
 ! A70   A(37,38,39)           110.0655                                         !
 ! A71   A(37,38,41)           115.1865                                         !
 ! A72   A(37,38,51)           105.0052                                         !
 ! A73   A(39,38,41)           113.0565                                         !
 ! A74   A(39,38,51)           105.9739                                         !
 ! A75   A(41,38,51)           106.7444                                         !
 ! A76   A(38,39,40)           122.8174                                         !
 ! A77   A(38,39,48)           116.4756                                         !
 ! A78   A(40,39,48)           120.7022                                         !
 ! A79   A(38,41,42)           118.1783                                         !
 ! A80   A(38,41,52)           106.4418                                         !
 ! A81   A(38,41,53)           106.9205                                         !
 ! A82   A(42,41,52)           108.453                                          !
 ! A83   A(42,41,53)           109.3188                                         !
 ! A84   A(52,41,53)           106.9941                                         !
 ! A85   A(41,42,43)           117.1851                                         !
 ! A86   A(41,42,54)           106.9013                                         !
 ! A87   A(41,42,55)           110.4895                                         !
 ! A88   A(43,42,54)           107.6334                                         !
 ! A89   A(43,42,55)           108.2052                                         !
 ! A90   A(54,42,55)           105.8059                                         !
 ! A91   A(42,43,44)           110.1702                                         !
 ! A92   A(42,43,56)           109.7601                                         !
 ! A93   A(42,43,57)           110.1898                                         !
 ! A94   A(44,43,56)           108.1256                                         !
 ! A95   A(44,43,57)           110.6671                                         !
 ! A96   A(56,43,57)           107.8708                                         !
 ! A97   A(43,44,45)           124.7827                                         !
 ! A98   A(43,44,58)           110.0829                                         !
 ! A99   A(45,44,58)           113.6373                                         !
 ! A100  A(44,45,46)           121.0418                                         !
 ! A101  A(44,45,47)           118.013                                          !
 ! A102  A(46,45,47)           120.9403                                         !
 ! A103  A(45,46,59)           117.6655                                         !
 ! A104  A(45,46,60)           117.6624                                         !
 ! A105  A(59,46,60)           114.3094                                         !
 ! A106  A(45,47,61)           120.1731                                         !
 ! A107  A(45,47,62)           118.7692                                         !
 ! A108  A(61,47,62)           118.3622                                         !
 ! A109  A(39,48,49)           108.6868                                         !
 ! D1    D(10,1,2,3)           -43.0699                                         !
 ! D2    D(10,1,2,5)          -168.2952                                         !
 ! D3    D(10,1,2,11)           74.5389                                         !
 ! D4    D(16,1,2,3)            75.1611                                         !
 ! D5    D(16,1,2,5)           -50.0642                                         !
 ! D6    D(16,1,2,11)         -167.23                                           !
 ! D7    D(17,1,2,3)          -162.9809                                         !
 ! D8    D(17,1,2,5)            71.7938                                         !
 ! D9    D(17,1,2,11)          -45.372                                          !
 ! D10   D(1,2,3,4)            -22.2623                                         !
 ! D11   D(1,2,3,18)           158.9364                                         !
 ! D12   D(5,2,3,4)            100.2632                                         !
 ! D13   D(5,2,3,18)           -78.5381                                         !
 ! D14   D(11,2,3,4)          -135.2594                                         !
 ! D15   D(11,2,3,18)           45.9393                                         !
 ! D16   D(1,2,5,6)            -51.0589                                         !
 ! D17   D(1,2,5,12)          -172.4868                                         !
 ! D18   D(1,2,5,13)            72.5215                                         !
 ! D19   D(3,2,5,6)           -173.1469                                         !
 ! D20   D(3,2,5,12)            65.4252                                         !
 ! D21   D(3,2,5,13)           -49.5665                                         !
 ! D22   D(11,2,5,6)            62.0037                                         !
 ! D23   D(11,2,5,12)          -59.4243                                         !
 ! D24   D(11,2,5,13)         -174.4159                                         !
 ! D25   D(2,3,18,19)          -16.3076                                         !
 ! D26   D(2,3,18,26)         -175.8242                                         !
 ! D27   D(4,3,18,19)          164.9683                                         !
 ! D28   D(4,3,18,26)            5.4517                                         !
 ! D29   D(2,5,6,7)            -41.8366                                         !
 ! D30   D(2,5,6,14)            78.7902                                         !
 ! D31   D(2,5,6,15)          -162.7716                                         !
 ! D32   D(12,5,6,7)            78.3757                                         !
 ! D33   D(12,5,6,14)         -160.9975                                         !
 ! D34   D(12,5,6,15)          -42.5593                                         !
 ! D35   D(13,5,6,7)          -164.5738                                         !
 ! D36   D(13,5,6,14)          -43.9469                                         !
 ! D37   D(13,5,6,15)           74.4912                                         !
 ! D38   D(5,6,7,8)             77.88                                           !
 ! D39   D(5,6,7,9)            -96.8322                                         !
 ! D40   D(14,6,7,8)           -43.4928                                         !
 ! D41   D(14,6,7,9)           141.795                                          !
 ! D42   D(15,6,7,8)          -161.6946                                         !
 ! D43   D(15,6,7,9)            23.5932                                         !
 ! D44   D(3,18,19,20)         -81.2628                                         !
 ! D45   D(3,18,19,22)         158.7227                                         !
 ! D46   D(3,18,19,27)          39.4888                                         !
 ! D47   D(26,18,19,20)         77.9081                                         !
 ! D48   D(26,18,19,22)        -42.1065                                         !
 ! D49   D(26,18,19,27)       -161.3404                                         !
 ! D50   D(18,19,20,21)        -58.2783                                         !
 ! D51   D(18,19,20,37)        123.7767                                         !
 ! D52   D(22,19,20,21)         63.4988                                         !
 ! D53   D(22,19,20,37)       -114.4461                                         !
 ! D54   D(27,19,20,21)       -177.977                                          !
 ! D55   D(27,19,20,37)          4.078                                          !
 ! D56   D(18,19,22,23)        -75.1053                                         !
 ! D57   D(18,19,22,28)        163.9766                                         !
 ! D58   D(18,19,22,29)         50.5741                                         !
 ! D59   D(20,19,22,23)        165.1207                                         !
 ! D60   D(20,19,22,28)         44.2026                                         !
 ! D61   D(20,19,22,29)        -69.1999                                         !
 ! D62   D(27,19,22,23)         44.8164                                         !
 ! D63   D(27,19,22,28)        -76.1017                                         !
 ! D64   D(27,19,22,29)        170.4958                                         !
 ! D65   D(19,20,37,38)       -175.16                                           !
 ! D66   D(19,20,37,50)        -21.7942                                         !
 ! D67   D(21,20,37,38)          6.9323                                         !
 ! D68   D(21,20,37,50)        160.2981                                         !
 ! D69   D(19,22,23,24)         65.5472                                         !
 ! D70   D(19,22,23,25)       -170.8882                                         !
 ! D71   D(19,22,23,30)        -54.2637                                         !
 ! D72   D(28,22,23,24)       -174.3847                                         !
 ! D73   D(28,22,23,25)        -50.8202                                         !
 ! D74   D(28,22,23,30)         65.8043                                         !
 ! D75   D(29,22,23,24)        -58.888                                          !
 ! D76   D(29,22,23,25)         64.6765                                         !
 ! D77   D(29,22,23,30)       -178.699                                          !
 ! D78   D(22,23,24,31)        175.818                                          !
 ! D79   D(22,23,24,32)        -63.736                                          !
 ! D80   D(22,23,24,33)         56.9953                                         !
 ! D81   D(25,23,24,31)         52.9368                                         !
 ! D82   D(25,23,24,32)        173.3828                                         !
 ! D83   D(25,23,24,33)        -65.8859                                         !
 ! D84   D(30,23,24,31)        -64.818                                          !
 ! D85   D(30,23,24,32)         55.6281                                         !
 ! D86   D(30,23,24,33)        176.3593                                         !
 ! D87   D(22,23,25,34)        177.3091                                         !
 ! D88   D(22,23,25,35)        -63.3047                                         !
 ! D89   D(22,23,25,36)         56.9746                                         !
 ! D90   D(24,23,25,34)        -57.0502                                         !
 ! D91   D(24,23,25,35)         62.336                                          !
 ! D92   D(24,23,25,36)       -177.3848                                         !
 ! D93   D(30,23,25,34)         60.9419                                         !
 ! D94   D(30,23,25,35)       -179.6719                                         !
 ! D95   D(30,23,25,36)        -59.3927                                         !
 ! D96   D(20,37,38,39)       -149.6988                                         !
 ! D97   D(20,37,38,41)         81.0643                                         !
 ! D98   D(20,37,38,51)        -36.0435                                         !
 ! D99   D(50,37,38,39)         56.2542                                         !
 ! D100  D(50,37,38,41)        -72.9827                                         !
 ! D101  D(50,37,38,51)        169.9095                                         !
 ! D102  D(37,38,39,40)       -153.709                                          !
 ! D103  D(37,38,39,48)         27.0832                                         !
 ! D104  D(41,38,39,40)        -23.3277                                         !
 ! D105  D(41,38,39,48)        157.4646                                         !
 ! D106  D(51,38,39,40)         93.2577                                         !
 ! D107  D(51,38,39,48)        -85.9501                                         !
 ! D108  D(37,38,41,42)         54.1871                                         !
 ! D109  D(37,38,41,52)        -67.9865                                         !
 ! D110  D(37,38,41,53)        177.9154                                         !
 ! D111  D(39,38,41,42)        -73.5634                                         !
 ! D112  D(39,38,41,52)        164.263                                          !
 ! D113  D(39,38,41,53)         50.1649                                         !
 ! D114  D(51,38,41,42)        170.3078                                         !
 ! D115  D(51,38,41,52)         48.1342                                         !
 ! D116  D(51,38,41,53)        -65.9639                                         !
 ! D117  D(38,39,48,49)          0.6463                                         !
 ! D118  D(40,39,48,49)       -178.5794                                         !
 ! D119  D(38,41,42,43)         60.6925                                         !
 ! D120  D(38,41,42,54)       -178.5122                                         !
 ! D121  D(38,41,42,55)        -63.839                                          !
 ! D122  D(52,41,42,43)       -178.1591                                         !
 ! D123  D(52,41,42,54)        -57.3637                                         !
 ! D124  D(52,41,42,55)         57.3095                                         !
 ! D125  D(53,41,42,43)        -61.8331                                         !
 ! D126  D(53,41,42,54)         58.9622                                         !
 ! D127  D(53,41,42,55)        173.6354                                         !
 ! D128  D(41,42,43,44)        -83.3635                                         !
 ! D129  D(41,42,43,56)        157.6814                                         !
 ! D130  D(41,42,43,57)         39.0274                                         !
 ! D131  D(54,42,43,44)        156.2258                                         !
 ! D132  D(54,42,43,56)         37.2707                                         !
 ! D133  D(54,42,43,57)        -81.3833                                         !
 ! D134  D(55,42,43,44)         42.3091                                         !
 ! D135  D(55,42,43,56)        -76.646                                          !
 ! D136  D(55,42,43,57)        164.7                                            !
 ! D137  D(42,43,44,45)        154.6625                                         !
 ! D138  D(42,43,44,58)        -64.6486                                         !
 ! D139  D(56,43,44,45)        -85.3889                                         !
 ! D140  D(56,43,44,58)         55.3                                            !
 ! D141  D(57,43,44,45)         32.5534                                         !
 ! D142  D(57,43,44,58)        173.2423                                         !
 ! D143  D(43,44,45,46)        -26.153                                          !
 ! D144  D(43,44,45,47)        153.0426                                         !
 ! D145  D(58,44,45,46)       -165.6489                                         !
 ! D146  D(58,44,45,47)         13.5467                                         !
 ! D147  D(44,45,46,59)        -29.8259                                         !
 ! D148  D(44,45,46,60)       -172.9162                                         !
 ! D149  D(47,45,46,59)        151.0021                                         !
 ! D150  D(47,45,46,60)          7.9117                                         !
 ! D151  D(44,45,47,61)        166.1858                                         !
 ! D152  D(44,45,47,62)          5.0858                                         !
 ! D153  D(46,45,47,61)        -14.6177                                         !
 ! D154  D(46,45,47,62)       -175.7177                                         !
 --------------------------------------------------------------------------------
 Symmetry turned off by external request.
 Stoichiometry    C17H33N6O6(1+)
 Framework group  C1[X(C17H33N6O6)]
 Deg. of freedom   180
 Full point group                 C1      NOp   1
                          Input orientation:                          
 ---------------------------------------------------------------------
 Center     Atomic      Atomic             Coordinates (Angstroms)
 Number     Number       Type             X           Y           Z
 ---------------------------------------------------------------------
      1          7           0       11.923486   18.113859   10.207537
      2          6           0       11.302059   17.117058   11.144205
      3          6           0       11.987340   15.766305   10.947763
      4          8           0       12.566455   15.535552    9.893024
      5          6           0        9.779838   17.085570   10.925231
      6          6           0        9.122723   18.488993   10.961750
      7          6           0        9.722601   19.326025   12.097385
      8          8           0       10.885839   19.838832   11.865246
      9          8           0        9.125186   19.383111   13.187467
     10          1           0       12.943426   18.018879   10.193218
     11          1           0       11.526452   17.520709   12.130268
     12          1           0        9.347484   16.456023   11.708590
     13          1           0        9.566661   16.585901    9.972382
     14          1           0        9.280699   19.009107   10.010257
     15          1           0        8.046972   18.377059   11.108429
     16          1           0       11.607140   17.966560    9.244895
     17          1           0       11.609078   19.061326   10.627230
     18          7           0       11.875034   14.893390   11.980903
     19          6           0       11.472176   15.207200   13.358304
     20          6           0       12.696714   15.761745   14.110468
     21          8           0       13.716401   15.103549   14.212876
     22          6           0       10.954898   13.959432   14.099573
     23          6           0        9.542613   13.475035   13.713044
     24          6           0        9.435091   12.967255   12.266821
     25          6           0        9.102252   12.379110   14.696479
     26          1           0       12.394421   14.030136   11.853286
     27          1           0       10.664229   15.944246   13.335563
     28          1           0       10.954906   14.204615   15.169670
     29          1           0       11.691531   13.153970   13.980484
     30          1           0        8.856726   14.329481   13.830325
     31          1           0        8.431956   12.570459   12.077874
     32          1           0        9.628475   13.752182   11.530100
     33          1           0       10.150150   12.154739   12.085137
     34          1           0        8.082190   12.047309   14.476894
     35          1           0        9.759878   11.504070   14.623242
     36          1           0        9.125834   12.731680   15.734078
     37          7           0       12.556848   17.012254   14.691353
     38          6           0       13.722993   17.635435   15.327536
     39          6           0       13.273896   18.533649   16.481255
     40          8           0       13.921057   19.486945   16.863163
     41          6           0       14.699316   18.334295   14.364234
     42          6           0       14.137902   19.399245   13.407434
     43          6           0       13.473387   20.631523   14.040639
     44          7           0       12.069403   20.331809   14.386009
     45          6           0       11.361236   20.960625   15.351637
     46          7           0       11.977533   21.529792   16.406372
     47          7           0       10.036047   21.015112   15.221036
     48          8           0       12.116600   18.207559   17.078004
     49          1           0       11.757944   17.406082   16.648838
     50          1           0       11.839076   17.641364   14.344322
     51          1           0       14.273327   16.804712   15.788005
     52          1           0       15.165438   17.543128   13.767309
     53          1           0       15.488770   18.779117   14.978049
     54          1           0       14.976430   19.751758   12.795535
     55          1           0       13.423494   18.946839   12.704429
     56          1           0       13.478863   21.463834   13.326419
     57          1           0       14.027812   20.945342   14.923721
     58          1           0       11.523370   20.144847   13.525351
     59          1           0       12.855406   21.117944   16.720346
     60          1           0       11.396307   21.889588   17.151809
     61          1           0        9.459169   21.284235   16.005461
     62          1           0        9.590130   20.507965   14.431474
 ---------------------------------------------------------------------
 Rotational constants (GHZ):           0.2052535           0.1239019           0.1070764
 Standard basis: 6-31G(d) (6D, 7F)
   501 basis functions,   944 primitive gaussians,   501 cartesian basis functions
   112 alpha electrons      112 beta electrons
       nuclear repulsion energy      3277.7781482166 Hartrees.
 NAtoms=   62 NActive=   62 NUniq=   62 SFac= 1.00D+00 NAtFMM=   60 NAOKFM=T Big=T
 Integral buffers will be    131072 words long.
 Raffenetti 2 integral format.
 Two-electron integral symmetry is turned off.
 Nuclear repulsion after empirical dispersion term =     3277.6878268857 Hartrees.
 One-electron integrals computed using PRISM.
 NBasis=   501 RedAO= T EigKep=  1.85D-03  NBF=   501
 NBsUse=   501 1.00D-06 EigRej= -1.00D+00 NBFU=   501
 Initial guess from the checkpoint file:  "conf-446.chk"
 B after Tr=     0.000000    0.000000    0.000000
         Rot=    1.000000    0.000000    0.000000    0.000000 Ang=   0.00 deg.
 Requested convergence on RMS density matrix=1.00D-08 within 128 cycles.
 Requested convergence on MAX density matrix=1.00D-06.
 Requested convergence on             energy=1.00D-06.
 No special actions if energy rises.
 SCF Done:  E(RB3LYP) =  -1447.51138990     A.U. after    2 cycles
            NFock=  2  Conv=0.94D-08     -V/T= 2.0093

 **********************************************************************

            Population analysis using the SCF Density.

 **********************************************************************

 Alpha  occ. eigenvalues --  -19.31850 -19.26074 -19.25019 -19.24824 -19.23618
 Alpha  occ. eigenvalues --  -19.22505 -14.57531 -14.50154 -14.49210 -14.48852
 Alpha  occ. eigenvalues --  -14.48504 -14.48191 -10.45448 -10.44573 -10.42580
 Alpha  occ. eigenvalues --  -10.41852 -10.40615 -10.39320 -10.36839 -10.36323
 Alpha  occ. eigenvalues --  -10.34306 -10.33908 -10.31379 -10.31079 -10.30625
 Alpha  occ. eigenvalues --  -10.30180 -10.29178 -10.26499 -10.26031  -1.22791
 Alpha  occ. eigenvalues --   -1.17613  -1.16879  -1.16223  -1.14453  -1.13657
 Alpha  occ. eigenvalues --   -1.12338  -1.07055  -1.06023  -1.05773  -1.03167
 Alpha  occ. eigenvalues --   -1.01807  -0.93691  -0.92395  -0.91407  -0.87759
 Alpha  occ. eigenvalues --   -0.86109  -0.85080  -0.80523  -0.77482  -0.76803
 Alpha  occ. eigenvalues --   -0.76311  -0.75507  -0.74366  -0.73954  -0.72914
 Alpha  occ. eigenvalues --   -0.71290  -0.71035  -0.70485  -0.70185  -0.68260
 Alpha  occ. eigenvalues --   -0.67816  -0.66342  -0.65042  -0.62739  -0.62599
 Alpha  occ. eigenvalues --   -0.62211  -0.61413  -0.60722  -0.60376  -0.59827
 Alpha  occ. eigenvalues --   -0.59275  -0.58020  -0.57682  -0.57296  -0.56189
 Alpha  occ. eigenvalues --   -0.55978  -0.55794  -0.55225  -0.54810  -0.54593
 Alpha  occ. eigenvalues --   -0.54180  -0.53572  -0.53008  -0.52574  -0.52362
 Alpha  occ. eigenvalues --   -0.51741  -0.51481  -0.51187  -0.50452  -0.50266
 Alpha  occ. eigenvalues --   -0.48538  -0.47920  -0.47527  -0.47342  -0.47163
 Alpha  occ. eigenvalues --   -0.46578  -0.46134  -0.46024  -0.43972  -0.43045
 Alpha  occ. eigenvalues --   -0.42668  -0.42240  -0.40896  -0.40235  -0.40039
 Alpha  occ. eigenvalues --   -0.39554  -0.38984  -0.38763  -0.38271  -0.37954
 Alpha  occ. eigenvalues --   -0.36684  -0.36511
 Alpha virt. eigenvalues --   -0.12240  -0.12005  -0.11557  -0.10598  -0.09291
 Alpha virt. eigenvalues --   -0.08519  -0.06748  -0.04760  -0.03835  -0.03624
 Alpha virt. eigenvalues --   -0.03379  -0.01953  -0.00897  -0.00380   0.00079
 Alpha virt. eigenvalues --    0.00495   0.01732   0.02331   0.02586   0.02991
 Alpha virt. eigenvalues --    0.03295   0.03435   0.03648   0.04438   0.04802
 Alpha virt. eigenvalues --    0.05215   0.05612   0.05926   0.06132   0.06296
 Alpha virt. eigenvalues --    0.06920   0.07245   0.07532   0.07827   0.08171
 Alpha virt. eigenvalues --    0.08685   0.08950   0.09107   0.09833   0.10571
 Alpha virt. eigenvalues --    0.10913   0.11321   0.11685   0.12280   0.12581
 Alpha virt. eigenvalues --    0.13144   0.13777   0.14151   0.14827   0.14859
 Alpha virt. eigenvalues --    0.15245   0.15956   0.16688   0.17224   0.18080
 Alpha virt. eigenvalues --    0.18925   0.20774   0.21828   0.24879   0.25309
 Alpha virt. eigenvalues --    0.25954   0.27667   0.28554   0.29030   0.29833
 Alpha virt. eigenvalues --    0.32450   0.35369   0.36188   0.36722   0.38042
 Alpha virt. eigenvalues --    0.38535   0.38723   0.40321   0.40756   0.41459
 Alpha virt. eigenvalues --    0.41839   0.42721   0.43439   0.43682   0.44055
 Alpha virt. eigenvalues --    0.44301   0.45277   0.46287   0.46458   0.47531
 Alpha virt. eigenvalues --    0.48113   0.48756   0.49405   0.49691   0.50749
 Alpha virt. eigenvalues --    0.50808   0.51213   0.51749   0.52446   0.52913
 Alpha virt. eigenvalues --    0.53425   0.53783   0.54549   0.55464   0.55669
 Alpha virt. eigenvalues --    0.56014   0.56208   0.57243   0.58509   0.59282
 Alpha virt. eigenvalues --    0.59478   0.60216   0.61174   0.61322   0.62225
 Alpha virt. eigenvalues --    0.62627   0.63054   0.64072   0.64804   0.65951
 Alpha virt. eigenvalues --    0.66312   0.66512   0.67232   0.67868   0.68531
 Alpha virt. eigenvalues --    0.69433   0.69916   0.70657   0.71400   0.71651
 Alpha virt. eigenvalues --    0.72230   0.72889   0.73223   0.73319   0.73937
 Alpha virt. eigenvalues --    0.74249   0.74892   0.75876   0.76387   0.76670
 Alpha virt. eigenvalues --    0.76740   0.77192   0.77817   0.78662   0.79402
 Alpha virt. eigenvalues --    0.80181   0.80636   0.81513   0.81837   0.82222
 Alpha virt. eigenvalues --    0.82444   0.82545   0.83192   0.83338   0.83845
 Alpha virt. eigenvalues --    0.84331   0.84889   0.85355   0.86384   0.86756
 Alpha virt. eigenvalues --    0.87278   0.87850   0.88404   0.88731   0.89102
 Alpha virt. eigenvalues --    0.90060   0.90559   0.91394   0.92118   0.92862
 Alpha virt. eigenvalues --    0.93917   0.94488   0.95172   0.96532   0.97005
 Alpha virt. eigenvalues --    0.98539   0.99236   0.99743   1.00244   1.00652
 Alpha virt. eigenvalues --    1.01849   1.02656   1.04525   1.04890   1.05806
 Alpha virt. eigenvalues --    1.06322   1.06735   1.07943   1.08788   1.10580
 Alpha virt. eigenvalues --    1.12199   1.13830   1.14110   1.14415   1.15224
 Alpha virt. eigenvalues --    1.17210   1.19128   1.20462   1.20710   1.22217
 Alpha virt. eigenvalues --    1.22868   1.24530   1.26532   1.26981   1.27746
 Alpha virt. eigenvalues --    1.28686   1.29959   1.31901   1.32884   1.33749
 Alpha virt. eigenvalues --    1.33867   1.35430   1.36408   1.36663   1.37658
 Alpha virt. eigenvalues --    1.37916   1.40806   1.42238   1.42837   1.43505
 Alpha virt. eigenvalues --    1.44883   1.46512   1.47403   1.48629   1.50212
 Alpha virt. eigenvalues --    1.51062   1.51875   1.54237   1.56145   1.56787
 Alpha virt. eigenvalues --    1.56989   1.57899   1.58912   1.60275   1.60926
 Alpha virt. eigenvalues --    1.61770   1.63011   1.64120   1.64907   1.65915
 Alpha virt. eigenvalues --    1.66291   1.66753   1.67324   1.68284   1.69047
 Alpha virt. eigenvalues --    1.69158   1.69933   1.70276   1.70427   1.71416
 Alpha virt. eigenvalues --    1.72288   1.73575   1.73819   1.74449   1.75807
 Alpha virt. eigenvalues --    1.76419   1.76685   1.77114   1.77802   1.78306
 Alpha virt. eigenvalues --    1.78922   1.79167   1.79951   1.80575   1.81386
 Alpha virt. eigenvalues --    1.82153   1.83317   1.84072   1.84371   1.86010
 Alpha virt. eigenvalues --    1.86773   1.87316   1.88711   1.88981   1.90351
 Alpha virt. eigenvalues --    1.90931   1.91682   1.92044   1.93360   1.93607
 Alpha virt. eigenvalues --    1.93984   1.95518   1.95925   1.96333   1.98400
 Alpha virt. eigenvalues --    1.98886   1.99537   2.00497   2.01878   2.02056
 Alpha virt. eigenvalues --    2.02865   2.05478   2.06686   2.07343   2.08639
 Alpha virt. eigenvalues --    2.09403   2.11208   2.11794   2.13510   2.14351
 Alpha virt. eigenvalues --    2.15893   2.17034   2.17478   2.18108   2.18968
 Alpha virt. eigenvalues --    2.19479   2.20443   2.21302   2.21940   2.23626
 Alpha virt. eigenvalues --    2.24730   2.25000   2.27133   2.28257   2.29889
 Alpha virt. eigenvalues --    2.30032   2.31183   2.33267   2.34036   2.34927
 Alpha virt. eigenvalues --    2.35805   2.36785   2.38161   2.39398   2.40081
 Alpha virt. eigenvalues --    2.41218   2.42610   2.44388   2.45590   2.46831
 Alpha virt. eigenvalues --    2.48103   2.49734   2.50468   2.51304   2.52431
 Alpha virt. eigenvalues --    2.52848   2.54457   2.55183   2.56790   2.57036
 Alpha virt. eigenvalues --    2.58438   2.59318   2.60314   2.61101   2.61849
 Alpha virt. eigenvalues --    2.63778   2.66191   2.66688   2.67184   2.68106
 Alpha virt. eigenvalues --    2.73564   2.75722   2.79704   2.83450   2.84927
 Alpha virt. eigenvalues --    2.87571   2.87599   2.89545   2.91443   2.92254
 Alpha virt. eigenvalues --    2.95933   2.99997   3.00931   3.01650   3.02760
 Alpha virt. eigenvalues --    3.68745   3.71986   3.78442   3.82338   3.87142
 Alpha virt. eigenvalues --    3.90296   3.95298   3.96008   4.02522   4.05339
 Alpha virt. eigenvalues --    4.07115   4.10062   4.14694   4.16744   4.17329
 Alpha virt. eigenvalues --    4.18078   4.20526   4.21910   4.25747   4.25835
 Alpha virt. eigenvalues --    4.32486   4.35148   4.37732   4.41749   4.47889
 Alpha virt. eigenvalues --    4.51094   4.52937   4.56513   4.64887
          Condensed to atoms (all electrons):
 Mulliken charges:
               1
     1  N   -0.748791
     2  C   -0.127050
     3  C    0.613443
     4  O   -0.495177
     5  C   -0.300951
     6  C   -0.356996
     7  C    0.610999
     8  O   -0.636318
     9  O   -0.552058
    10  H    0.405870
    11  H    0.182471
    12  H    0.199940
    13  H    0.190144
    14  H    0.162699
    15  H    0.201608
    16  H    0.406908
    17  H    0.437625
    18  N   -0.577168
    19  C   -0.092598
    20  C    0.633089
    21  O   -0.482474
    22  C   -0.275516
    23  C   -0.082502
    24  C   -0.450897
    25  C   -0.447135
    26  H    0.366560
    27  H    0.152537
    28  H    0.153626
    29  H    0.173589
    30  H    0.124544
    31  H    0.165687
    32  H    0.139504
    33  H    0.151449
    34  H    0.164179
    35  H    0.158047
    36  H    0.149214
    37  N   -0.685840
    38  C   -0.071596
    39  C    0.643080
    40  O   -0.490181
    41  C   -0.276196
    42  C   -0.295002
    43  C   -0.151799
    44  N   -0.680448
    45  C    0.756797
    46  N   -0.748980
    47  N   -0.784458
    48  O   -0.562579
    49  H    0.430756
    50  H    0.354948
    51  H    0.236643
    52  H    0.177108
    53  H    0.191439
    54  H    0.176010
    55  H    0.112995
    56  H    0.183753
    57  H    0.197821
    58  H    0.412736
    59  H    0.407692
    60  H    0.361837
    61  H    0.358028
    62  H    0.427335
 Sum of Mulliken charges =   1.00000
 Mulliken charges with hydrogens summed into heavy atoms:
               1
     1  N    0.501612
     2  C    0.055421
     3  C    0.613443
     4  O   -0.495177
     5  C    0.089134
     6  C    0.007311
     7  C    0.610999
     8  O   -0.636318
     9  O   -0.552058
    18  N   -0.210609
    19  C    0.059939
    20  C    0.633089
    21  O   -0.482474
    22  C    0.051699
    23  C    0.042043
    24  C    0.005742
    25  C    0.024304
    37  N   -0.330892
    38  C    0.165047
    39  C    0.643080
    40  O   -0.490181
    41  C    0.092351
    42  C   -0.005998
    43  C    0.229775
    44  N   -0.267712
    45  C    0.756797
    46  N    0.020549
    47  N    0.000906
    48  O   -0.131823
 Electronic spatial extent (au):  <R**2>=         511627.2543
 Charge=              1.0000 electrons
 Dipole moment (field-independent basis, Debye):
    X=             54.1535    Y=             88.1080    Z=             63.6569  Tot=            121.4406
 Quadrupole moment (field-independent basis, Debye-Ang):
   XX=            448.5866   YY=           1476.5625   ZZ=            708.9174
   XY=           1005.6297   XZ=            714.0124   YZ=           1177.0387
 Traceless Quadrupole moment (field-independent basis, Debye-Ang):
   XX=           -429.4355   YY=            598.5403   ZZ=           -169.1048
   XY=           1005.6297   XZ=            714.0124   YZ=           1177.0387
 Octapole moment (field-independent basis, Debye-Ang**2):
  XXX=           1234.1251  YYY=          22369.1044  ZZZ=           5662.0520  XYY=          16981.4771
  XXY=           8681.4613  XXZ=           5803.5529  XZZ=           7794.8659  YZZ=          13480.7825
  YYZ=          19950.7086  XYZ=          13335.9276
 Hexadecapole moment (field-independent basis, Debye-Ang**3):
 XXXX=         -56820.1798 YYYY=         284497.9804 ZZZZ=          -6374.7209 XXXY=          32902.5855
 XXXZ=          12346.8631 YYYX=         257910.7219 YYYZ=         307645.3931 ZZZX=          57232.8797
 ZZZY=         117400.6432 XXYY=         145343.3047 XXZZ=          54409.8218 YYZZ=         230635.6057
 XXYZ=         112799.3190 YYXZ=         226783.3715 ZZXY=         149553.4467
 N-N= 3.277687826886D+03 E-N=-9.902872989167D+03  KE= 1.434106533539D+03
 Unable to Open any file for archive entry.
 1\1\GINC-QML-000\SP\RB3LYP\6-31G(d)\C17H33N6O6(1+)\KENGMITH\24-May-202
 2\0\\# B3LYP/6-31G* empiricaldispersion=gd3 guess=read geom=check nosy
 mm integral(ultrafinegrid)\\Candidate Structure: Conf:446 Charge calc 
 in gas phase\\1,1\N,0,11.9234862917,18.1138588182,10.2075365844\C,0,11
 .3020585141,17.1170580323,11.1442050243\C,0,11.9873402802,15.766305045
 4,10.9477625573\O,0,12.5664554347,15.5355517405,9.8930239127\C,0,9.779
 8382537,17.0855700989,10.9252314367\C,0,9.122722992,18.4889932176,10.9
 617499325\C,0,9.7226005581,19.3260247319,12.0973849786\O,0,10.88583861
 54,19.8388319488,11.865246016\O,0,9.1251860627,19.3831107398,13.187467
 3355\H,0,12.9434260172,18.018879125,10.1932181087\H,0,11.5264524931,17
 .5207086089,12.1302682333\H,0,9.3474837572,16.4560226542,11.7085896953
 \H,0,9.5666612945,16.5859008558,9.9723819428\H,0,9.280699465,19.009106
 7529,10.0102569588\H,0,8.0469723977,18.3770593873,11.1084294123\H,0,11
 .6071398834,17.9665604701,9.2448945401\H,0,11.609078479,19.0613256619,
 10.6272301506\N,0,11.8750344796,14.8933902584,11.9809031094\C,0,11.472
 1757069,15.2072003639,13.3583037324\C,0,12.696713703,15.7617452506,14.
 1104679528\O,0,13.7164009605,15.1035491534,14.212876248\C,0,10.9548983
 33,13.9594315324,14.0995734971\C,0,9.5426132338,13.4750353343,13.71304
 37758\C,0,9.4350913467,12.9672545434,12.2668208582\C,0,9.102252209,12.
 3791096659,14.6964791376\H,0,12.3944213904,14.0301356954,11.853285928\
 H,0,10.6642286458,15.9442462349,13.3355625774\H,0,10.9549056048,14.204
 6153586,15.1696701115\H,0,11.691531463,13.1539697051,13.9804843551\H,0
 ,8.8567260787,14.3294813475,13.8303245393\H,0,8.4319556753,12.57045923
 28,12.0778744289\H,0,9.6284746497,13.7521820008,11.5300995048\H,0,10.1
 501504056,12.1547385235,12.0851373356\H,0,8.0821902644,12.0473088293,1
 4.4768944481\H,0,9.7598775443,11.5040697481,14.6232415838\H,0,9.125833
 9271,12.7316799846,15.7340776079\N,0,12.5568484653,17.0122540568,14.69
 13532155\C,0,13.7229930345,17.6354348675,15.3275356631\C,0,13.27389644
 58,18.5336488987,16.4812553113\O,0,13.9210567616,19.4869448869,16.8631
 634141\C,0,14.6993161066,18.3342953232,14.3642342027\C,0,14.1379017142
 ,19.3992446112,13.4074335103\C,0,13.4733871187,20.6315234555,14.040639
 124\N,0,12.0694032804,20.3318090107,14.3860088616\C,0,11.3612356801,20
 .9606246439,15.3516366021\N,0,11.9775326497,21.5297915348,16.406371650
 4\N,0,10.0360472358,21.0151124747,15.2210361387\O,0,12.1165995025,18.2
 07558577,17.0780039273\H,0,11.7579441034,17.4060822908,16.6488377519\H
 ,0,11.8390761961,17.6413635448,14.3443224763\H,0,14.2733267074,16.8047
 116393,15.7880046199\H,0,15.165437574,17.5431279151,13.7673092893\H,0,
 15.4887696811,18.7791174638,14.9780490515\H,0,14.9764296811,19.7517579
 718,12.7955353463\H,0,13.4234943918,18.94683906,12.7044287584\H,0,13.4
 788625995,21.4638338169,13.3264187488\H,0,14.027811718,20.9453420202,1
 4.9237208448\H,0,11.5233698154,20.1448466729,13.525350734\H,0,12.85540
 56195,21.1179441879,16.7203464901\H,0,11.3963071627,21.8895877314,17.1
 51808895\H,0,9.4591692417,21.2842348709,16.0054610387\H,0,9.5901301016
 ,20.507965411,14.431474272\\Version=ES64L-G16RevC.01\HF=-1447.5113899\
 RMSD=9.368e-09\Dipole=-0.6938789,1.6022767,-0.5685288\Quadrupole=-319.
 2747891,445.0000502,-125.725261,747.661043,530.850695,875.0994599\PG=C
 01 [X(C17H33N6O6)]\\@
 The archive entry for this job was punched.


 THERE ARE PEOPLE SO ADDICTED TO EXAGERATING THEY
 CAN'T TELL THE TRUTH WITHOUT LYING. -- FORTUNE COOKIE
 Job cpu time:       0 days  0 hours  3 minutes 40.9 seconds.
 Elapsed time:       0 days  0 hours  0 minutes 55.7 seconds.
 File lengths (MBytes):  RWF=    248 Int=      0 D2E=      0 Chk=     32 Scr=     16
 Normal termination of Gaussian 16 at Tue May 24 03:32:54 2022.
