 Entering Gaussian System, Link 0=/opt/software/Gaussian/g16-AVX-C.01/g16/g16
 Input=charge-conf-472.com
 Output=charge-conf-472.log
 Initial command:
 /opt/software/Gaussian/g16-AVX-C.01/g16/l1.exe "/mnt/gs18/scratch/users/kengmith/Gau-34009.inp" -scrdir="/mnt/gs18/scratch/users/kengmith/"
 Entering Link 1 = /opt/software/Gaussian/g16-AVX-C.01/g16/l1.exe PID=     34033.
  
 Copyright (c) 1988-2019, Gaussian, Inc.  All Rights Reserved.
  
 This is part of the Gaussian(R) 16 program.  It is based on
 the Gaussian(R) 09 system (copyright 2009, Gaussian, Inc.),
 the Gaussian(R) 03 system (copyright 2003, Gaussian, Inc.),
 the Gaussian(R) 98 system (copyright 1998, Gaussian, Inc.),
 the Gaussian(R) 94 system (copyright 1995, Gaussian, Inc.),
 the Gaussian 92(TM) system (copyright 1992, Gaussian, Inc.),
 the Gaussian 90(TM) system (copyright 1990, Gaussian, Inc.),
 the Gaussian 88(TM) system (copyright 1988, Gaussian, Inc.),
 the Gaussian 86(TM) system (copyright 1986, Carnegie Mellon
 University), and the Gaussian 82(TM) system (copyright 1983,
 Carnegie Mellon University). Gaussian is a federally registered
 trademark of Gaussian, Inc.
  
 This software contains proprietary and confidential information,
 including trade secrets, belonging to Gaussian, Inc.
  
 This software is provided under written license and may be
 used, copied, transmitted, or stored only in accord with that
 written license.
  
 The following legend is applicable only to US Government
 contracts under FAR:
  
                    RESTRICTED RIGHTS LEGEND
  
 Use, reproduction and disclosure by the US Government is
 subject to restrictions as set forth in subparagraphs (a)
 and (c) of the Commercial Computer Software - Restricted
 Rights clause in FAR 52.227-19.
  
 Gaussian, Inc.
 340 Quinnipiac St., Bldg. 40, Wallingford CT 06492
  
  
 ---------------------------------------------------------------
 Warning -- This program may not be used in any manner that
 competes with the business of Gaussian, Inc. or will provide
 assistance to any competitor of Gaussian, Inc.  The licensee
 of this program is prohibited from giving any competitor of
 Gaussian, Inc. access to this program.  By using this program,
 the user acknowledges that Gaussian, Inc. is engaged in the
 business of creating and licensing software in the field of
 computational chemistry and represents and warrants to the
 licensee that it is not a competitor of Gaussian, Inc. and that
 it will not use this program in any manner prohibited above.
 ---------------------------------------------------------------
  

 Cite this work as:
 Gaussian 16, Revision C.01,
 M. J. Frisch, G. W. Trucks, H. B. Schlegel, G. E. Scuseria, 
 M. A. Robb, J. R. Cheeseman, G. Scalmani, V. Barone, 
 G. A. Petersson, H. Nakatsuji, X. Li, M. Caricato, A. V. Marenich, 
 J. Bloino, B. G. Janesko, R. Gomperts, B. Mennucci, H. P. Hratchian, 
 J. V. Ortiz, A. F. Izmaylov, J. L. Sonnenberg, D. Williams-Young, 
 F. Ding, F. Lipparini, F. Egidi, J. Goings, B. Peng, A. Petrone, 
 T. Henderson, D. Ranasinghe, V. G. Zakrzewski, J. Gao, N. Rega, 
 G. Zheng, W. Liang, M. Hada, M. Ehara, K. Toyota, R. Fukuda, 
 J. Hasegawa, M. Ishida, T. Nakajima, Y. Honda, O. Kitao, H. Nakai, 
 T. Vreven, K. Throssell, J. A. Montgomery, Jr., J. E. Peralta, 
 F. Ogliaro, M. J. Bearpark, J. J. Heyd, E. N. Brothers, K. N. Kudin, 
 V. N. Staroverov, T. A. Keith, R. Kobayashi, J. Normand, 
 K. Raghavachari, A. P. Rendell, J. C. Burant, S. S. Iyengar, 
 J. Tomasi, M. Cossi, J. M. Millam, M. Klene, C. Adamo, R. Cammi, 
 J. W. Ochterski, R. L. Martin, K. Morokuma, O. Farkas, 
 J. B. Foresman, and D. J. Fox, Gaussian, Inc., Wallingford CT, 2019.
 
 ******************************************
 Gaussian 16:  ES64L-G16RevC.01  3-Jul-2019
                24-May-2022 
 ******************************************
 %mem=8gb
 %nproc=4
 Will use up to    4 processors via shared memory.
 %chk=conf-472.chk
 ----------------------------------------------------------------------
 # B3LYP/6-31G* empiricaldispersion=gd3 guess=read geom=check nosymm in
 tegral(ultrafinegrid)
 ----------------------------------------------------------------------
 1/29=2,38=1,172=1/1;
 2/12=2,15=1,40=1/2;
 3/5=1,6=6,7=1,11=2,14=-4,25=1,30=1,74=-5,75=-5,116=-2,124=31/1,2,3;
 4/5=1/1;
 5/5=2,38=6/2;
 6/7=2,8=2,9=2,10=2,28=1/1;
 99/5=1,9=1/99;
 ------------------------------------------------------
 Candidate Structure: Conf:472 Charge calc in gas phase
 ------------------------------------------------------
 Structure from the checkpoint file:  "conf-472.chk"
 Charge =  1 Multiplicity = 1
 Redundant internal coordinates found in file.  (old form).
 N,0,12.6981962707,16.7925632249,10.7018973525
 C,0,12.874921382,15.7204530661,11.7455932569
 C,0,14.3828888758,15.6271699426,11.9731846689
 O,0,15.1023673034,15.3102397131,11.0359575229
 C,0,12.1824019453,14.4290311855,11.2713330586
 C,0,10.761129017,14.3058022213,11.8711814718
 C,0,10.0597990991,15.6511118303,12.1080467523
 O,0,10.1267737438,16.5510628903,11.2044896166
 O,0,9.4630015167,15.806540615,13.2086638799
 H,0,13.0400082878,17.6885090098,11.087792288
 H,0,12.3527109191,16.0915088079,12.6225643245
 H,0,12.7832881894,13.5644320326,11.5660008157
 H,0,12.1590321283,14.4135048685,10.1764894869
 H,0,10.129530781,13.7014181029,11.209911005
 H,0,10.7985538122,13.7911396448,12.8346938216
 H,0,13.2446776187,16.547033828,9.8685363732
 H,0,11.6562119085,16.8344984622,10.528692203
 N,0,14.8360905773,15.9477308995,13.2150632926
 C,0,14.0902895619,16.575181258,14.3053284657
 C,0,13.2506696806,17.779346689,13.8007684093
 O,0,13.6085462702,18.4390630158,12.823919332
 C,0,15.111626503,17.0615065966,15.3615285022
 C,0,14.5371125885,17.6509399756,16.6643814534
 C,0,13.6980962313,16.6340219163,17.4542007998
 C,0,15.6921909036,18.1749228751,17.5319635942
 H,0,15.8483461973,15.9510889759,13.2841829437
 H,0,13.4230367848,15.8333725268,14.7619421597
 H,0,15.7545486449,17.8067300252,14.8753110832
 H,0,15.7465387892,16.2024724931,15.6184218845
 H,0,13.9017341886,18.5117904403,16.4096376483
 H,0,14.300662277,15.7554399522,17.7148332763
 H,0,13.3335918371,17.0755860493,18.3871615626
 H,0,12.8191323838,16.2688069647,16.9061683287
 H,0,15.3111481028,18.6326082635,18.450648928
 H,0,16.3652484908,17.3583020287,17.8204113708
 H,0,16.2836640585,18.9280462256,16.9996331992
 N,0,12.1029724142,17.9933806139,14.5036361384
 C,0,11.3436603259,19.2521596413,14.6402506266
 C,0,9.8691901052,18.9972003912,15.005104466
 O,0,9.1706657657,19.9480455834,15.2879725852
 C,0,11.4723093567,20.2823259855,13.4997198545
 C,0,10.8995661329,19.9407256744,12.1143439846
 C,0,9.3691376799,20.0133936023,11.9576869348
 N,0,8.739267008,18.7478137944,12.3391982461
 C,0,7.5671318891,18.5733116182,12.9467625876
 N,0,6.8534566794,19.6203254359,13.4227877619
 N,0,7.0705385207,17.3254966134,13.0331076151
 O,0,9.4105837979,17.7432993113,15.0982375897
 H,0,9.7521477483,17.104246205,14.4172594598
 H,0,11.9721266452,17.3786731265,15.3000000601
 H,0,11.7354847049,19.7589433653,15.5342013668
 H,0,12.5307365029,20.519796952,13.3871165322
 H,0,10.978721071,21.1829007653,13.8802146432
 H,0,11.3304658848,20.6590482079,11.4079272362
 H,0,11.2416277793,18.9524102058,11.7943752254
 H,0,9.1123431827,20.226722518,10.9129226401
 H,0,8.9738890806,20.8348088991,12.5594365395
 H,0,9.1716354279,17.9101049354,11.9101772424
 H,0,7.3858386436,20.4216028442,13.7386452665
 H,0,6.0894189676,19.3996553805,14.0486137919
 H,0,6.3296680047,17.16087269,13.7015558137
 H,0,7.7666423706,16.572285473,12.9745384796
 Recover connectivity data from disk.
                           ----------------------------
                           !    Current Parameters    !
                           ! (Angstroms and Degrees)  !
 --------------------------                            --------------------------
 ! Name  Definition              Value                                          !
 --------------------------------------------------------------------------------
 ! R1    R(1,2)                  1.5066                                         !
 ! R2    R(1,10)                 1.0337                                         !
 ! R3    R(1,16)                 1.0264                                         !
 ! R4    R(1,17)                 1.0571                                         !
 ! R5    R(2,3)                  1.5279                                         !
 ! R6    R(2,5)                  1.5402                                         !
 ! R7    R(2,11)                 1.086                                          !
 ! R8    R(3,4)                  1.2233                                         !
 ! R9    R(3,18)                 1.3603                                         !
 ! R10   R(5,6)                  1.5476                                         !
 ! R11   R(5,12)                 1.0934                                         !
 ! R12   R(5,13)                 1.0952                                         !
 ! R13   R(6,7)                  1.5355                                         !
 ! R14   R(6,14)                 1.0961                                         !
 ! R15   R(6,15)                 1.093                                          !
 ! R16   R(7,8)                  1.277                                          !
 ! R17   R(7,9)                  1.2616                                         !
 ! R18   R(18,19)                1.4624                                         !
 ! R19   R(18,26)                1.0146                                         !
 ! R20   R(19,20)                1.5523                                         !
 ! R21   R(19,22)                1.5476                                         !
 ! R22   R(19,27)                1.0973                                         !
 ! R23   R(20,21)                1.2319                                         !
 ! R24   R(20,37)                1.3627                                         !
 ! R25   R(22,23)                1.5411                                         !
 ! R26   R(22,28)                1.0978                                         !
 ! R27   R(22,29)                1.0987                                         !
 ! R28   R(23,24)                1.5368                                         !
 ! R29   R(23,25)                1.5367                                         !
 ! R30   R(23,30)                1.0998                                         !
 ! R31   R(24,31)                1.0968                                         !
 ! R32   R(24,32)                1.0946                                         !
 ! R33   R(24,33)                1.0983                                         !
 ! R34   R(25,34)                1.0948                                         !
 ! R35   R(25,35)                1.0968                                         !
 ! R36   R(25,36)                1.0956                                         !
 ! R37   R(37,38)                1.4764                                         !
 ! R38   R(37,50)                1.0145                                         !
 ! R39   R(38,39)                1.5402                                         !
 ! R40   R(38,41)                1.5423                                         !
 ! R41   R(38,51)                1.0998                                         !
 ! R42   R(39,40)                1.2133                                         !
 ! R43   R(39,48)                1.3384                                         !
 ! R44   R(41,42)                1.5375                                         !
 ! R45   R(41,52)                1.0906                                         !
 ! R46   R(41,53)                1.0952                                         !
 ! R47   R(42,43)                1.5401                                         !
 ! R48   R(42,54)                1.0958                                         !
 ! R49   R(42,55)                1.0937                                         !
 ! R50   R(43,44)                1.4642                                         !
 ! R51   R(43,56)                1.0968                                         !
 ! R52   R(43,57)                1.0923                                         !
 ! R53   R(44,45)                1.3317                                         !
 ! R54   R(44,58)                1.0357                                         !
 ! R55   R(45,46)                1.3536                                         !
 ! R56   R(45,47)                1.3458                                         !
 ! R57   R(46,59)                1.0125                                         !
 ! R58   R(46,60)                1.012                                          !
 ! R59   R(47,61)                1.0113                                         !
 ! R60   R(47,62)                1.0273                                         !
 ! R61   R(48,49)                0.9944                                         !
 ! A1    A(2,1,10)             108.6254                                         !
 ! A2    A(2,1,16)             109.2557                                         !
 ! A3    A(2,1,17)             104.9129                                         !
 ! A4    A(10,1,16)            109.5364                                         !
 ! A5    A(10,1,17)            110.6544                                         !
 ! A6    A(16,1,17)            113.6581                                         !
 ! A7    A(1,2,3)              105.2126                                         !
 ! A8    A(1,2,5)              109.3053                                         !
 ! A9    A(1,2,11)             105.0615                                         !
 ! A10   A(3,2,5)              116.0041                                         !
 ! A11   A(3,2,11)             112.0334                                         !
 ! A12   A(5,2,11)             108.5974                                         !
 ! A13   A(2,3,4)              118.8269                                         !
 ! A14   A(2,3,18)             116.7707                                         !
 ! A15   A(4,3,18)             124.371                                          !
 ! A16   A(2,5,6)              111.1211                                         !
 ! A17   A(2,5,12)             109.4478                                         !
 ! A18   A(2,5,13)             109.2261                                         !
 ! A19   A(6,5,12)             109.7122                                         !
 ! A20   A(6,5,13)             111.5153                                         !
 ! A21   A(12,5,13)            105.6605                                         !
 ! A22   A(5,6,7)              114.1726                                         !
 ! A23   A(5,6,14)             109.8314                                         !
 ! A24   A(5,6,15)             110.3488                                         !
 ! A25   A(7,6,14)             108.2381                                         !
 ! A26   A(7,6,15)             106.9898                                         !
 ! A27   A(14,6,15)            106.9725                                         !
 ! A28   A(6,7,8)              118.9683                                         !
 ! A29   A(6,7,9)              117.2945                                         !
 ! A30   A(8,7,9)              123.7272                                         !
 ! A31   A(3,18,19)            127.7222                                         !
 ! A32   A(3,18,26)            113.2885                                         !
 ! A33   A(19,18,26)           117.1673                                         !
 ! A34   A(18,19,20)           111.491                                          !
 ! A35   A(18,19,22)           107.8825                                         !
 ! A36   A(18,19,27)           109.2873                                         !
 ! A37   A(20,19,22)           109.5736                                         !
 ! A38   A(20,19,27)           109.3163                                         !
 ! A39   A(22,19,27)           109.2536                                         !
 ! A40   A(19,20,21)           121.0678                                         !
 ! A41   A(19,20,37)           114.188                                          !
 ! A42   A(21,20,37)           124.7192                                         !
 ! A43   A(19,22,23)           116.8161                                         !
 ! A44   A(19,22,28)           107.3102                                         !
 ! A45   A(19,22,29)           107.1725                                         !
 ! A46   A(23,22,28)           109.4589                                         !
 ! A47   A(23,22,29)           108.4708                                         !
 ! A48   A(28,22,29)           107.2115                                         !
 ! A49   A(22,23,24)           112.6387                                         !
 ! A50   A(22,23,25)           109.117                                          !
 ! A51   A(22,23,30)           108.5976                                         !
 ! A52   A(24,23,25)           110.2326                                         !
 ! A53   A(24,23,30)           108.757                                          !
 ! A54   A(25,23,30)           107.3443                                         !
 ! A55   A(23,24,31)           110.6247                                         !
 ! A56   A(23,24,32)           110.6639                                         !
 ! A57   A(23,24,33)           113.6092                                         !
 ! A58   A(31,24,32)           107.6705                                         !
 ! A59   A(31,24,33)           106.9704                                         !
 ! A60   A(32,24,33)           107.033                                          !
 ! A61   A(23,25,34)           110.7737                                         !
 ! A62   A(23,25,35)           110.8453                                         !
 ! A63   A(23,25,36)           111.4604                                         !
 ! A64   A(34,25,35)           107.7062                                         !
 ! A65   A(34,25,36)           107.9524                                         !
 ! A66   A(35,25,36)           107.9554                                         !
 ! A67   A(20,37,38)           127.9362                                         !
 ! A68   A(20,37,50)           114.7297                                         !
 ! A69   A(38,37,50)           112.188                                          !
 ! A70   A(37,38,39)           111.9093                                         !
 ! A71   A(37,38,41)           117.2691                                         !
 ! A72   A(37,38,51)           106.5509                                         !
 ! A73   A(39,38,41)           111.4451                                         !
 ! A74   A(39,38,51)           102.9912                                         !
 ! A75   A(41,38,51)           105.2835                                         !
 ! A76   A(38,39,40)           118.4676                                         !
 ! A77   A(38,39,48)           119.9742                                         !
 ! A78   A(40,39,48)           121.381                                          !
 ! A79   A(38,41,42)           119.1342                                         !
 ! A80   A(38,41,52)           107.6234                                         !
 ! A81   A(38,41,53)           104.7582                                         !
 ! A82   A(42,41,52)           108.474                                          !
 ! A83   A(42,41,53)           109.1385                                         !
 ! A84   A(52,41,53)           107.1108                                         !
 ! A85   A(41,42,43)           116.8289                                         !
 ! A86   A(41,42,54)           106.7833                                         !
 ! A87   A(41,42,55)           110.3572                                         !
 ! A88   A(43,42,54)           107.1131                                         !
 ! A89   A(43,42,55)           108.8848                                         !
 ! A90   A(54,42,55)           106.3074                                         !
 ! A91   A(42,43,44)           111.1109                                         !
 ! A92   A(42,43,56)           109.7989                                         !
 ! A93   A(42,43,57)           109.8174                                         !
 ! A94   A(44,43,56)           108.3963                                         !
 ! A95   A(44,43,57)           110.5359                                         !
 ! A96   A(56,43,57)           107.0847                                         !
 ! A97   A(43,44,45)           127.6437                                         !
 ! A98   A(43,44,58)           114.3036                                         !
 ! A99   A(45,44,58)           116.7705                                         !
 ! A100  A(44,45,46)           121.5441                                         !
 ! A101  A(44,45,47)           118.3953                                         !
 ! A102  A(46,45,47)           120.0061                                         !
 ! A103  A(45,46,59)           116.3982                                         !
 ! A104  A(45,46,60)           116.5439                                         !
 ! A105  A(59,46,60)           112.1241                                         !
 ! A106  A(45,47,61)           117.6231                                         !
 ! A107  A(45,47,62)           115.2226                                         !
 ! A108  A(61,47,62)           114.5022                                         !
 ! A109  A(39,48,49)           115.8964                                         !
 ! D1    D(10,1,2,3)           -63.16                                           !
 ! D2    D(10,1,2,5)           171.6225                                         !
 ! D3    D(10,1,2,11)           55.25                                           !
 ! D4    D(16,1,2,3)            56.2815                                         !
 ! D5    D(16,1,2,5)           -68.9361                                         !
 ! D6    D(16,1,2,11)          174.6914                                         !
 ! D7    D(17,1,2,3)           178.4835                                         !
 ! D8    D(17,1,2,5)            53.2659                                         !
 ! D9    D(17,1,2,11)          -63.1066                                         !
 ! D10   D(1,2,3,4)            -61.4595                                         !
 ! D11   D(1,2,3,18)           116.5901                                         !
 ! D12   D(5,2,3,4)             59.4612                                         !
 ! D13   D(5,2,3,18)          -122.4892                                         !
 ! D14   D(11,2,3,4)          -175.0728                                         !
 ! D15   D(11,2,3,18)            2.9769                                         !
 ! D16   D(1,2,5,6)            -96.4118                                         !
 ! D17   D(1,2,5,12)           142.2652                                         !
 ! D18   D(1,2,5,13)            27.031                                          !
 ! D19   D(3,2,5,6)            144.8875                                         !
 ! D20   D(3,2,5,12)            23.5645                                         !
 ! D21   D(3,2,5,13)           -91.6697                                         !
 ! D22   D(11,2,5,6)            17.6913                                         !
 ! D23   D(11,2,5,12)         -103.6317                                         !
 ! D24   D(11,2,5,13)          141.1341                                         !
 ! D25   D(2,3,18,19)          -10.6418                                         !
 ! D26   D(2,3,18,26)         -174.6673                                         !
 ! D27   D(4,3,18,19)          167.288                                          !
 ! D28   D(4,3,18,26)            3.2625                                         !
 ! D29   D(2,5,6,7)             31.6704                                         !
 ! D30   D(2,5,6,14)           153.4426                                         !
 ! D31   D(2,5,6,15)           -88.8649                                         !
 ! D32   D(12,5,6,7)           152.8384                                         !
 ! D33   D(12,5,6,14)          -85.3893                                         !
 ! D34   D(12,5,6,15)           32.3031                                         !
 ! D35   D(13,5,6,7)           -90.4524                                         !
 ! D36   D(13,5,6,14)           31.3198                                         !
 ! D37   D(13,5,6,15)          149.0123                                         !
 ! D38   D(5,6,7,8)             43.7211                                         !
 ! D39   D(5,6,7,9)           -135.1707                                         !
 ! D40   D(14,6,7,8)           -78.9238                                         !
 ! D41   D(14,6,7,9)           102.1844                                         !
 ! D42   D(15,6,7,8)           166.1116                                         !
 ! D43   D(15,6,7,9)           -12.7802                                         !
 ! D44   D(3,18,19,20)         -45.2339                                         !
 ! D45   D(3,18,19,22)        -165.5895                                         !
 ! D46   D(3,18,19,27)          75.7249                                         !
 ! D47   D(26,18,19,20)        118.2589                                         !
 ! D48   D(26,18,19,22)         -2.0967                                         !
 ! D49   D(26,18,19,27)       -120.7823                                         !
 ! D50   D(18,19,20,21)        -28.7688                                         !
 ! D51   D(18,19,20,37)        149.4982                                         !
 ! D52   D(22,19,20,21)         90.5879                                         !
 ! D53   D(22,19,20,37)        -91.1451                                         !
 ! D54   D(27,19,20,21)       -149.7107                                         !
 ! D55   D(27,19,20,37)         28.5563                                         !
 ! D56   D(18,19,22,23)       -174.908                                          !
 ! D57   D(18,19,22,28)         61.8263                                         !
 ! D58   D(18,19,22,29)        -53.0531                                         !
 ! D59   D(20,19,22,23)         63.539                                          !
 ! D60   D(20,19,22,28)        -59.7267                                         !
 ! D61   D(20,19,22,29)       -174.6061                                         !
 ! D62   D(27,19,22,23)        -56.2009                                         !
 ! D63   D(27,19,22,28)       -179.4666                                         !
 ! D64   D(27,19,22,29)         65.654                                          !
 ! D65   D(19,20,37,38)        156.07                                           !
 ! D66   D(19,20,37,50)          3.6719                                         !
 ! D67   D(21,20,37,38)        -25.736                                          !
 ! D68   D(21,20,37,50)       -178.1341                                         !
 ! D69   D(19,22,23,24)         61.6511                                         !
 ! D70   D(19,22,23,25)       -175.5884                                         !
 ! D71   D(19,22,23,30)        -58.8749                                         !
 ! D72   D(28,22,23,24)       -176.1954                                         !
 ! D73   D(28,22,23,25)        -53.4348                                         !
 ! D74   D(28,22,23,30)         63.2786                                         !
 ! D75   D(29,22,23,24)        -59.5231                                         !
 ! D76   D(29,22,23,25)         63.2375                                         !
 ! D77   D(29,22,23,30)        179.9509                                         !
 ! D78   D(22,23,24,31)         58.9225                                         !
 ! D79   D(22,23,24,32)        178.1694                                         !
 ! D80   D(22,23,24,33)        -61.3993                                         !
 ! D81   D(25,23,24,31)        -63.2107                                         !
 ! D82   D(25,23,24,32)         56.0363                                         !
 ! D83   D(25,23,24,33)        176.4676                                         !
 ! D84   D(30,23,24,31)        179.3569                                         !
 ! D85   D(30,23,24,32)        -61.3961                                         !
 ! D86   D(30,23,24,33)         59.0352                                         !
 ! D87   D(22,23,25,34)        177.9952                                         !
 ! D88   D(22,23,25,35)        -62.4993                                         !
 ! D89   D(22,23,25,36)         57.7741                                         !
 ! D90   D(24,23,25,34)        -57.8155                                         !
 ! D91   D(24,23,25,35)         61.69                                           !
 ! D92   D(24,23,25,36)       -178.0366                                         !
 ! D93   D(30,23,25,34)         60.4877                                         !
 ! D94   D(30,23,25,35)        179.9932                                         !
 ! D95   D(30,23,25,36)        -59.7334                                         !
 ! D96   D(20,37,38,39)        156.897                                          !
 ! D97   D(20,37,38,41)         26.3063                                         !
 ! D98   D(20,37,38,51)        -91.2457                                         !
 ! D99   D(50,37,38,39)        -50.1351                                         !
 ! D100  D(50,37,38,41)        179.2742                                         !
 ! D101  D(50,37,38,51)         61.7222                                         !
 ! D102  D(37,38,39,40)        172.1708                                         !
 ! D103  D(37,38,39,48)         -3.0586                                         !
 ! D104  D(41,38,39,40)        -54.3139                                         !
 ! D105  D(41,38,39,48)        130.4567                                         !
 ! D106  D(51,38,39,40)         58.0981                                         !
 ! D107  D(51,38,39,48)       -117.1313                                         !
 ! D108  D(37,38,41,42)         66.9265                                         !
 ! D109  D(37,38,41,52)        -56.9702                                         !
 ! D110  D(37,38,41,53)       -170.7314                                         !
 ! D111  D(39,38,41,42)        -63.8788                                         !
 ! D112  D(39,38,41,52)        172.2246                                         !
 ! D113  D(39,38,41,53)         58.4634                                         !
 ! D114  D(51,38,41,42)       -174.8387                                         !
 ! D115  D(51,38,41,52)         61.2647                                         !
 ! D116  D(51,38,41,53)        -52.4965                                         !
 ! D117  D(38,39,48,49)        -39.3167                                         !
 ! D118  D(40,39,48,49)        145.5959                                         !
 ! D119  D(38,41,42,43)         75.445                                          !
 ! D120  D(38,41,42,54)       -164.7556                                         !
 ! D121  D(38,41,42,55)        -49.6221                                         !
 ! D122  D(52,41,42,43)       -161.0741                                         !
 ! D123  D(52,41,42,54)        -41.2747                                         !
 ! D124  D(52,41,42,55)         73.8588                                         !
 ! D125  D(53,41,42,43)        -44.6958                                         !
 ! D126  D(53,41,42,54)         75.1036                                         !
 ! D127  D(53,41,42,55)       -169.7629                                         !
 ! D128  D(41,42,43,44)        -86.8978                                         !
 ! D129  D(41,42,43,56)        153.199                                          !
 ! D130  D(41,42,43,57)         35.7066                                         !
 ! D131  D(54,42,43,44)        153.4789                                         !
 ! D132  D(54,42,43,56)         33.5757                                         !
 ! D133  D(54,42,43,57)        -83.9167                                         !
 ! D134  D(55,42,43,44)         38.907                                          !
 ! D135  D(55,42,43,56)        -80.9962                                         !
 ! D136  D(55,42,43,57)        161.5114                                         !
 ! D137  D(42,43,44,45)        144.5907                                         !
 ! D138  D(42,43,44,58)        -48.8843                                         !
 ! D139  D(56,43,44,45)        -94.6756                                         !
 ! D140  D(56,43,44,58)         71.8494                                         !
 ! D141  D(57,43,44,45)         22.4024                                         !
 ! D142  D(57,43,44,58)       -171.0726                                         !
 ! D143  D(43,44,45,46)         -7.0987                                         !
 ! D144  D(43,44,45,47)        170.2147                                         !
 ! D145  D(58,44,45,46)       -173.3381                                         !
 ! D146  D(58,44,45,47)          3.9753                                         !
 ! D147  D(44,45,46,59)        -30.6458                                         !
 ! D148  D(44,45,46,60)       -166.5313                                         !
 ! D149  D(47,45,46,59)        152.0834                                         !
 ! D150  D(47,45,46,60)         16.1979                                         !
 ! D151  D(44,45,47,61)        163.457                                          !
 ! D152  D(44,45,47,62)         23.6469                                         !
 ! D153  D(46,45,47,61)        -19.1869                                         !
 ! D154  D(46,45,47,62)       -158.9971                                         !
 --------------------------------------------------------------------------------
 Symmetry turned off by external request.
 Stoichiometry    C17H33N6O6(1+)
 Framework group  C1[X(C17H33N6O6)]
 Deg. of freedom   180
 Full point group                 C1      NOp   1
                          Input orientation:                          
 ---------------------------------------------------------------------
 Center     Atomic      Atomic             Coordinates (Angstroms)
 Number     Number       Type             X           Y           Z
 ---------------------------------------------------------------------
      1          7           0       12.698196   16.792563   10.701897
      2          6           0       12.874921   15.720453   11.745593
      3          6           0       14.382889   15.627170   11.973185
      4          8           0       15.102367   15.310240   11.035958
      5          6           0       12.182402   14.429031   11.271333
      6          6           0       10.761129   14.305802   11.871181
      7          6           0       10.059799   15.651112   12.108047
      8          8           0       10.126774   16.551063   11.204490
      9          8           0        9.463002   15.806541   13.208664
     10          1           0       13.040008   17.688509   11.087792
     11          1           0       12.352711   16.091509   12.622564
     12          1           0       12.783288   13.564432   11.566001
     13          1           0       12.159032   14.413505   10.176489
     14          1           0       10.129531   13.701418   11.209911
     15          1           0       10.798554   13.791140   12.834694
     16          1           0       13.244678   16.547034    9.868536
     17          1           0       11.656212   16.834498   10.528692
     18          7           0       14.836091   15.947731   13.215063
     19          6           0       14.090290   16.575181   14.305328
     20          6           0       13.250670   17.779347   13.800768
     21          8           0       13.608546   18.439063   12.823919
     22          6           0       15.111627   17.061507   15.361529
     23          6           0       14.537113   17.650940   16.664381
     24          6           0       13.698096   16.634022   17.454201
     25          6           0       15.692191   18.174923   17.531964
     26          1           0       15.848346   15.951089   13.284183
     27          1           0       13.423037   15.833373   14.761942
     28          1           0       15.754549   17.806730   14.875311
     29          1           0       15.746539   16.202472   15.618422
     30          1           0       13.901734   18.511790   16.409638
     31          1           0       14.300662   15.755440   17.714833
     32          1           0       13.333592   17.075586   18.387162
     33          1           0       12.819132   16.268807   16.906168
     34          1           0       15.311148   18.632608   18.450649
     35          1           0       16.365248   17.358302   17.820411
     36          1           0       16.283664   18.928046   16.999633
     37          7           0       12.102972   17.993381   14.503636
     38          6           0       11.343660   19.252160   14.640251
     39          6           0        9.869190   18.997200   15.005104
     40          8           0        9.170666   19.948046   15.287973
     41          6           0       11.472309   20.282326   13.499720
     42          6           0       10.899566   19.940726   12.114344
     43          6           0        9.369138   20.013394   11.957687
     44          7           0        8.739267   18.747814   12.339198
     45          6           0        7.567132   18.573312   12.946763
     46          7           0        6.853457   19.620325   13.422788
     47          7           0        7.070539   17.325497   13.033108
     48          8           0        9.410584   17.743299   15.098238
     49          1           0        9.752148   17.104246   14.417259
     50          1           0       11.972127   17.378673   15.300000
     51          1           0       11.735485   19.758943   15.534201
     52          1           0       12.530737   20.519797   13.387117
     53          1           0       10.978721   21.182901   13.880215
     54          1           0       11.330466   20.659048   11.407927
     55          1           0       11.241628   18.952410   11.794375
     56          1           0        9.112343   20.226723   10.912923
     57          1           0        8.973889   20.834809   12.559437
     58          1           0        9.171635   17.910105   11.910177
     59          1           0        7.385839   20.421603   13.738645
     60          1           0        6.089419   19.399655   14.048614
     61          1           0        6.329668   17.160873   13.701556
     62          1           0        7.766642   16.572285   12.974538
 ---------------------------------------------------------------------
 Rotational constants (GHZ):           0.2112316           0.1381425           0.1050368
 Standard basis: 6-31G(d) (6D, 7F)
   501 basis functions,   944 primitive gaussians,   501 cartesian basis functions
   112 alpha electrons      112 beta electrons
       nuclear repulsion energy      3337.0323753822 Hartrees.
 NAtoms=   62 NActive=   62 NUniq=   62 SFac= 1.00D+00 NAtFMM=   60 NAOKFM=T Big=T
 Integral buffers will be    131072 words long.
 Raffenetti 2 integral format.
 Two-electron integral symmetry is turned off.
 Nuclear repulsion after empirical dispersion term =     3336.9376791108 Hartrees.
 One-electron integrals computed using PRISM.
 NBasis=   501 RedAO= T EigKep=  1.57D-03  NBF=   501
 NBsUse=   501 1.00D-06 EigRej= -1.00D+00 NBFU=   501
 Initial guess from the checkpoint file:  "conf-472.chk"
 B after Tr=     0.000000    0.000000    0.000000
         Rot=    1.000000    0.000000    0.000000    0.000000 Ang=   0.00 deg.
 Requested convergence on RMS density matrix=1.00D-08 within 128 cycles.
 Requested convergence on MAX density matrix=1.00D-06.
 Requested convergence on             energy=1.00D-06.
 No special actions if energy rises.
 SCF Done:  E(RB3LYP) =  -1447.51203552     A.U. after    1 cycles
            NFock=  1  Conv=0.95D-08     -V/T= 2.0093

 **********************************************************************

            Population analysis using the SCF Density.

 **********************************************************************

 Alpha  occ. eigenvalues --  -19.28995 -19.25953 -19.24574 -19.24008 -19.23594
 Alpha  occ. eigenvalues --  -19.22746 -14.56192 -14.50405 -14.48958 -14.48704
 Alpha  occ. eigenvalues --  -14.48495 -14.47761 -10.45118 -10.43341 -10.43122
 Alpha  occ. eigenvalues --  -10.41619 -10.40948 -10.38037 -10.36984 -10.36680
 Alpha  occ. eigenvalues --  -10.34804 -10.32210 -10.31089 -10.30881 -10.30770
 Alpha  occ. eigenvalues --  -10.30369 -10.30174 -10.28196 -10.26898  -1.20490
 Alpha  occ. eigenvalues --   -1.17908  -1.16515  -1.16151  -1.13679  -1.12345
 Alpha  occ. eigenvalues --   -1.11333  -1.07017  -1.06476  -1.05291  -1.03329
 Alpha  occ. eigenvalues --   -1.01751  -0.93217  -0.92321  -0.91751  -0.87955
 Alpha  occ. eigenvalues --   -0.85892  -0.84143  -0.80843  -0.78771  -0.77232
 Alpha  occ. eigenvalues --   -0.76539  -0.75435  -0.73708  -0.72921  -0.72513
 Alpha  occ. eigenvalues --   -0.70901  -0.70483  -0.69417  -0.68783  -0.67541
 Alpha  occ. eigenvalues --   -0.67097  -0.66535  -0.64173  -0.63472  -0.62560
 Alpha  occ. eigenvalues --   -0.62134  -0.61501  -0.61057  -0.60412  -0.60273
 Alpha  occ. eigenvalues --   -0.58709  -0.58073  -0.57601  -0.56477  -0.56298
 Alpha  occ. eigenvalues --   -0.55775  -0.55478  -0.54998  -0.54732  -0.54709
 Alpha  occ. eigenvalues --   -0.53849  -0.53636  -0.53181  -0.52385  -0.52205
 Alpha  occ. eigenvalues --   -0.51736  -0.51266  -0.50418  -0.49609  -0.49174
 Alpha  occ. eigenvalues --   -0.48988  -0.48317  -0.47656  -0.47205  -0.46991
 Alpha  occ. eigenvalues --   -0.46419  -0.46077  -0.44970  -0.44081  -0.43611
 Alpha  occ. eigenvalues --   -0.43557  -0.42718  -0.40904  -0.39737  -0.39699
 Alpha  occ. eigenvalues --   -0.39172  -0.38426  -0.38163  -0.37901  -0.37760
 Alpha  occ. eigenvalues --   -0.37096  -0.36665
 Alpha virt. eigenvalues --   -0.13083  -0.11613  -0.11326  -0.10102  -0.09220
 Alpha virt. eigenvalues --   -0.06386  -0.05431  -0.04598  -0.02670  -0.02107
 Alpha virt. eigenvalues --   -0.01844  -0.01532  -0.01086   0.00108   0.00176
 Alpha virt. eigenvalues --    0.00761   0.01168   0.01587   0.02206   0.02823
 Alpha virt. eigenvalues --    0.03417   0.04146   0.04635   0.04861   0.05267
 Alpha virt. eigenvalues --    0.05616   0.05984   0.06235   0.06508   0.07061
 Alpha virt. eigenvalues --    0.07233   0.07367   0.08158   0.08219   0.08616
 Alpha virt. eigenvalues --    0.08763   0.09250   0.09839   0.09891   0.10252
 Alpha virt. eigenvalues --    0.10862   0.11213   0.11748   0.12142   0.12451
 Alpha virt. eigenvalues --    0.13084   0.13577   0.13803   0.14345   0.14992
 Alpha virt. eigenvalues --    0.15692   0.15957   0.16709   0.17300   0.17914
 Alpha virt. eigenvalues --    0.18895   0.22837   0.23871   0.25077   0.26257
 Alpha virt. eigenvalues --    0.27551   0.27921   0.28882   0.30038   0.30727
 Alpha virt. eigenvalues --    0.33541   0.36452   0.36861   0.38201   0.39043
 Alpha virt. eigenvalues --    0.39846   0.40309   0.40566   0.41149   0.41472
 Alpha virt. eigenvalues --    0.41780   0.42299   0.43271   0.43595   0.45065
 Alpha virt. eigenvalues --    0.45202   0.46050   0.46496   0.46624   0.47678
 Alpha virt. eigenvalues --    0.47906   0.48864   0.49158   0.49718   0.49864
 Alpha virt. eigenvalues --    0.51134   0.51908   0.52520   0.53241   0.53702
 Alpha virt. eigenvalues --    0.54342   0.54396   0.55078   0.55503   0.56031
 Alpha virt. eigenvalues --    0.56489   0.57514   0.57911   0.58066   0.58668
 Alpha virt. eigenvalues --    0.59909   0.60499   0.60982   0.61715   0.61805
 Alpha virt. eigenvalues --    0.62842   0.63046   0.64333   0.65167   0.65362
 Alpha virt. eigenvalues --    0.66847   0.67251   0.67387   0.69092   0.69610
 Alpha virt. eigenvalues --    0.70431   0.71028   0.71254   0.71591   0.73090
 Alpha virt. eigenvalues --    0.73638   0.73882   0.74460   0.74838   0.75159
 Alpha virt. eigenvalues --    0.75372   0.75997   0.76204   0.76871   0.77432
 Alpha virt. eigenvalues --    0.77477   0.78167   0.78278   0.78999   0.79931
 Alpha virt. eigenvalues --    0.80906   0.80978   0.81314   0.81558   0.82089
 Alpha virt. eigenvalues --    0.82995   0.83106   0.83403   0.83694   0.84472
 Alpha virt. eigenvalues --    0.84609   0.85607   0.86001   0.86453   0.86994
 Alpha virt. eigenvalues --    0.87253   0.88541   0.89068   0.89515   0.90320
 Alpha virt. eigenvalues --    0.91621   0.91775   0.92283   0.93465   0.94245
 Alpha virt. eigenvalues --    0.95176   0.95395   0.96686   0.96976   0.97259
 Alpha virt. eigenvalues --    0.98185   0.99018   0.99158   0.99908   1.00924
 Alpha virt. eigenvalues --    1.02505   1.03139   1.04310   1.05987   1.06215
 Alpha virt. eigenvalues --    1.08167   1.08554   1.09184   1.10443   1.11022
 Alpha virt. eigenvalues --    1.11978   1.13565   1.14396   1.16636   1.19070
 Alpha virt. eigenvalues --    1.19591   1.20581   1.20929   1.22098   1.22862
 Alpha virt. eigenvalues --    1.23406   1.24262   1.26487   1.27816   1.28285
 Alpha virt. eigenvalues --    1.28889   1.30082   1.31251   1.32800   1.34349
 Alpha virt. eigenvalues --    1.36166   1.36400   1.36811   1.37997   1.38143
 Alpha virt. eigenvalues --    1.39223   1.41568   1.41886   1.43765   1.44842
 Alpha virt. eigenvalues --    1.46010   1.47262   1.47950   1.49792   1.50730
 Alpha virt. eigenvalues --    1.51733   1.52466   1.54523   1.54819   1.56129
 Alpha virt. eigenvalues --    1.57317   1.57659   1.59548   1.60905   1.61492
 Alpha virt. eigenvalues --    1.62471   1.63736   1.64369   1.65686   1.66543
 Alpha virt. eigenvalues --    1.67158   1.67451   1.67534   1.68802   1.69410
 Alpha virt. eigenvalues --    1.69733   1.70603   1.70750   1.71270   1.71773
 Alpha virt. eigenvalues --    1.73001   1.74654   1.74899   1.75320   1.75782
 Alpha virt. eigenvalues --    1.77132   1.77434   1.78163   1.79002   1.80027
 Alpha virt. eigenvalues --    1.80460   1.81012   1.81889   1.82648   1.83867
 Alpha virt. eigenvalues --    1.84054   1.84356   1.85395   1.86728   1.87538
 Alpha virt. eigenvalues --    1.87973   1.88388   1.88838   1.90857   1.91467
 Alpha virt. eigenvalues --    1.91753   1.92536   1.94012   1.94697   1.95769
 Alpha virt. eigenvalues --    1.96087   1.96771   1.97292   1.98264   1.99062
 Alpha virt. eigenvalues --    2.00182   2.00653   2.01096   2.02231   2.02880
 Alpha virt. eigenvalues --    2.04464   2.05475   2.06323   2.07603   2.09789
 Alpha virt. eigenvalues --    2.11617   2.12149   2.13703   2.14279   2.14588
 Alpha virt. eigenvalues --    2.15212   2.15840   2.16690   2.17185   2.18717
 Alpha virt. eigenvalues --    2.21018   2.22004   2.22227   2.23938   2.24772
 Alpha virt. eigenvalues --    2.25721   2.26425   2.27091   2.28945   2.30275
 Alpha virt. eigenvalues --    2.30939   2.32727   2.32967   2.33300   2.35014
 Alpha virt. eigenvalues --    2.36862   2.37782   2.38211   2.39481   2.40689
 Alpha virt. eigenvalues --    2.41476   2.41942   2.43326   2.45981   2.46399
 Alpha virt. eigenvalues --    2.47144   2.47438   2.50323   2.51029   2.51553
 Alpha virt. eigenvalues --    2.52547   2.53458   2.54765   2.55369   2.55610
 Alpha virt. eigenvalues --    2.56925   2.58477   2.60698   2.62217   2.64619
 Alpha virt. eigenvalues --    2.65396   2.66314   2.67028   2.69997   2.72026
 Alpha virt. eigenvalues --    2.72869   2.75998   2.81498   2.85241   2.86811
 Alpha virt. eigenvalues --    2.87107   2.88508   2.90429   2.90598   2.94300
 Alpha virt. eigenvalues --    2.99682   3.00321   3.01485   3.03416   3.06982
 Alpha virt. eigenvalues --    3.69860   3.73107   3.80286   3.81253   3.87192
 Alpha virt. eigenvalues --    3.88087   3.97940   4.02301   4.05177   4.06459
 Alpha virt. eigenvalues --    4.08709   4.10748   4.13869   4.18111   4.18658
 Alpha virt. eigenvalues --    4.19624   4.21611   4.23890   4.27291   4.30710
 Alpha virt. eigenvalues --    4.34294   4.35998   4.40041   4.47332   4.48501
 Alpha virt. eigenvalues --    4.50160   4.53378   4.61349   4.64325
          Condensed to atoms (all electrons):
 Mulliken charges:
               1
     1  N   -0.773393
     2  C   -0.131998
     3  C    0.620198
     4  O   -0.492762
     5  C   -0.287011
     6  C   -0.356660
     7  C    0.607237
     8  O   -0.617180
     9  O   -0.597816
    10  H    0.432538
    11  H    0.204330
    12  H    0.203730
    13  H    0.177156
    14  H    0.197967
    15  H    0.181969
    16  H    0.405577
    17  H    0.440418
    18  N   -0.607524
    19  C   -0.030151
    20  C    0.594719
    21  O   -0.549097
    22  C   -0.307232
    23  C   -0.100556
    24  C   -0.461267
    25  C   -0.447488
    26  H    0.360640
    27  H    0.173180
    28  H    0.175293
    29  H    0.170961
    30  H    0.128558
    31  H    0.168458
    32  H    0.175918
    33  H    0.125134
    34  H    0.165746
    35  H    0.159678
    36  H    0.158550
    37  N   -0.623106
    38  C   -0.061756
    39  C    0.623839
    40  O   -0.482228
    41  C   -0.276192
    42  C   -0.288487
    43  C   -0.147910
    44  N   -0.644538
    45  C    0.747506
    46  N   -0.724483
    47  N   -0.758179
    48  O   -0.617936
    49  H    0.453817
    50  H    0.355338
    51  H    0.209079
    52  H    0.190462
    53  H    0.180154
    54  H    0.173479
    55  H    0.130181
    56  H    0.189595
    57  H    0.172905
    58  H    0.418152
    59  H    0.384363
    60  H    0.363703
    61  H    0.356135
    62  H    0.408286
 Sum of Mulliken charges =   1.00000
 Mulliken charges with hydrogens summed into heavy atoms:
               1
     1  N    0.505141
     2  C    0.072332
     3  C    0.620198
     4  O   -0.492762
     5  C    0.093874
     6  C    0.023275
     7  C    0.607237
     8  O   -0.617180
     9  O   -0.597816
    18  N   -0.246884
    19  C    0.143029
    20  C    0.594719
    21  O   -0.549097
    22  C    0.039022
    23  C    0.028002
    24  C    0.008243
    25  C    0.036487
    37  N   -0.267769
    38  C    0.147324
    39  C    0.623839
    40  O   -0.482228
    41  C    0.094424
    42  C    0.015174
    43  C    0.214590
    44  N   -0.226386
    45  C    0.747506
    46  N    0.023583
    47  N    0.006241
    48  O   -0.164119
 Electronic spatial extent (au):  <R**2>=         508403.3260
 Charge=              1.0000 electrons
 Dipole moment (field-independent basis, Debye):
    X=             53.6825    Y=             84.9063    Z=             64.0596  Tot=            119.1407
 Quadrupole moment (field-independent basis, Debye-Ang):
   XX=            475.5824   YY=           1349.6519   ZZ=            706.7792
   XY=            938.4819   XZ=            727.6982   YZ=           1131.3420
 Traceless Quadrupole moment (field-independent basis, Debye-Ang):
   XX=           -368.4221   YY=            505.6474   ZZ=           -137.2253
   XY=            938.4819   XZ=            727.6982   YZ=           1131.3420
 Octapole moment (field-independent basis, Debye-Ang**2):
  XXX=           2166.1546  YYY=          18602.7384  ZZZ=           5393.3153  XYY=          14610.6591
  XXY=           8236.0014  XXZ=           6687.3445  XZZ=           8194.9277  YZZ=          12488.1079
  YYZ=          17912.3541  XYZ=          12695.4815
 Hexadecapole moment (field-independent basis, Debye-Ang**3):
 XXXX=         -40656.4128 YYYY=         188850.9986 ZZZZ=         -14311.4843 XXXY=          37217.2603
 XXXZ=          35437.6533 YYYX=         193425.4146 YYYZ=         243986.2963 ZZZX=          65236.0798
 ZZZY=          95207.7778 XXYY=         119661.3183 XXZZ=          73146.1398 YYZZ=         191200.0762
 XXYZ=         115179.0204 YYXZ=         196799.5302 ZZXY=         142809.0612
 N-N= 3.336937679111D+03 E-N=-1.002182713169D+04  KE= 1.434121293964D+03
 Unable to Open any file for archive entry.
 1\1\GINC-QML-000\SP\RB3LYP\6-31G(d)\C17H33N6O6(1+)\KENGMITH\24-May-202
 2\0\\# B3LYP/6-31G* empiricaldispersion=gd3 guess=read geom=check nosy
 mm integral(ultrafinegrid)\\Candidate Structure: Conf:472 Charge calc 
 in gas phase\\1,1\N,0,12.6981962707,16.7925632249,10.7018973525\C,0,12
 .874921382,15.7204530661,11.7455932569\C,0,14.3828888758,15.6271699426
 ,11.9731846689\O,0,15.1023673034,15.3102397131,11.0359575229\C,0,12.18
 24019453,14.4290311855,11.2713330586\C,0,10.761129017,14.3058022213,11
 .8711814718\C,0,10.0597990991,15.6511118303,12.1080467523\O,0,10.12677
 37438,16.5510628903,11.2044896166\O,0,9.4630015167,15.806540615,13.208
 6638799\H,0,13.0400082878,17.6885090098,11.087792288\H,0,12.3527109191
 ,16.0915088079,12.6225643245\H,0,12.7832881894,13.5644320326,11.566000
 8157\H,0,12.1590321283,14.4135048685,10.1764894869\H,0,10.129530781,13
 .7014181029,11.209911005\H,0,10.7985538122,13.7911396448,12.8346938216
 \H,0,13.2446776187,16.547033828,9.8685363732\H,0,11.6562119085,16.8344
 984622,10.528692203\N,0,14.8360905773,15.9477308995,13.2150632926\C,0,
 14.0902895619,16.575181258,14.3053284657\C,0,13.2506696806,17.77934668
 9,13.8007684093\O,0,13.6085462702,18.4390630158,12.823919332\C,0,15.11
 1626503,17.0615065966,15.3615285022\C,0,14.5371125885,17.6509399756,16
 .6643814534\C,0,13.6980962313,16.6340219163,17.4542007998\C,0,15.69219
 09036,18.1749228751,17.5319635942\H,0,15.8483461973,15.9510889759,13.2
 841829437\H,0,13.4230367848,15.8333725268,14.7619421597\H,0,15.7545486
 449,17.8067300252,14.8753110832\H,0,15.7465387892,16.2024724931,15.618
 4218845\H,0,13.9017341886,18.5117904403,16.4096376483\H,0,14.300662277
 ,15.7554399522,17.7148332763\H,0,13.3335918371,17.0755860493,18.387161
 5626\H,0,12.8191323838,16.2688069647,16.9061683287\H,0,15.3111481028,1
 8.6326082635,18.450648928\H,0,16.3652484908,17.3583020287,17.820411370
 8\H,0,16.2836640585,18.9280462256,16.9996331992\N,0,12.1029724142,17.9
 933806139,14.5036361384\C,0,11.3436603259,19.2521596413,14.6402506266\
 C,0,9.8691901052,18.9972003912,15.005104466\O,0,9.1706657657,19.948045
 5834,15.2879725852\C,0,11.4723093567,20.2823259855,13.4997198545\C,0,1
 0.8995661329,19.9407256744,12.1143439846\C,0,9.3691376799,20.013393602
 3,11.9576869348\N,0,8.739267008,18.7478137944,12.3391982461\C,0,7.5671
 318891,18.5733116182,12.9467625876\N,0,6.8534566794,19.6203254359,13.4
 227877619\N,0,7.0705385207,17.3254966134,13.0331076151\O,0,9.410583797
 9,17.7432993113,15.0982375897\H,0,9.7521477483,17.104246205,14.4172594
 598\H,0,11.9721266452,17.3786731265,15.3000000601\H,0,11.7354847049,19
 .7589433653,15.5342013668\H,0,12.5307365029,20.519796952,13.3871165322
 \H,0,10.978721071,21.1829007653,13.8802146432\H,0,11.3304658848,20.659
 0482079,11.4079272362\H,0,11.2416277793,18.9524102058,11.7943752254\H,
 0,9.1123431827,20.226722518,10.9129226401\H,0,8.9738890806,20.83480889
 91,12.5594365395\H,0,9.1716354279,17.9101049354,11.9101772424\H,0,7.38
 58386436,20.4216028442,13.7386452665\H,0,6.0894189676,19.3996553805,14
 .0486137919\H,0,6.3296680047,17.16087269,13.7015558137\H,0,7.766642370
 6,16.572285473,12.9745384796\\Version=ES64L-G16RevC.01\HF=-1447.512035
 5\RMSD=9.502e-09\Dipole=-0.7816375,0.3602965,-0.2619872\Quadrupole=-27
 3.9127922,375.9364459,-102.0236536,697.7383162,541.0257747,841.1250559
 \PG=C01 [X(C17H33N6O6)]\\@
 The archive entry for this job was punched.


 A MUSTACHE HAIR ACROSS A CHIP IS LIKE A REDWOOD
 TREE FALLING THROUGH A HOUSING PROJECT.
 - AN IBM MANAGER IN EAST FISHKILL, NEW YORK
   AS QUOTED IN "FROM SANDS TO CIRCUITS", IBM INNOVATION JANUARY 1985.
 Job cpu time:       0 days  0 hours  2 minutes  9.0 seconds.
 Elapsed time:       0 days  0 hours  0 minutes 33.2 seconds.
 File lengths (MBytes):  RWF=    248 Int=      0 D2E=      0 Chk=     32 Scr=     16
 Normal termination of Gaussian 16 at Tue May 24 03:32:31 2022.
