 Entering Gaussian System, Link 0=/opt/software/Gaussian/g16-AVX2-C.01/g16/g16
 Input=charge-conf-669.com
 Output=charge-conf-669.log
 Initial command:
 /opt/software/Gaussian/g16-AVX2-C.01/g16/l1.exe "/mnt/gs18/scratch/users/kengmith/Gau-44209.inp" -scrdir="/mnt/gs18/scratch/users/kengmith/"
 Entering Link 1 = /opt/software/Gaussian/g16-AVX2-C.01/g16/l1.exe PID=     44234.
  
 Copyright (c) 1988-2019, Gaussian, Inc.  All Rights Reserved.
  
 This is part of the Gaussian(R) 16 program.  It is based on
 the Gaussian(R) 09 system (copyright 2009, Gaussian, Inc.),
 the Gaussian(R) 03 system (copyright 2003, Gaussian, Inc.),
 the Gaussian(R) 98 system (copyright 1998, Gaussian, Inc.),
 the Gaussian(R) 94 system (copyright 1995, Gaussian, Inc.),
 the Gaussian 92(TM) system (copyright 1992, Gaussian, Inc.),
 the Gaussian 90(TM) system (copyright 1990, Gaussian, Inc.),
 the Gaussian 88(TM) system (copyright 1988, Gaussian, Inc.),
 the Gaussian 86(TM) system (copyright 1986, Carnegie Mellon
 University), and the Gaussian 82(TM) system (copyright 1983,
 Carnegie Mellon University). Gaussian is a federally registered
 trademark of Gaussian, Inc.
  
 This software contains proprietary and confidential information,
 including trade secrets, belonging to Gaussian, Inc.
  
 This software is provided under written license and may be
 used, copied, transmitted, or stored only in accord with that
 written license.
  
 The following legend is applicable only to US Government
 contracts under FAR:
  
                    RESTRICTED RIGHTS LEGEND
  
 Use, reproduction and disclosure by the US Government is
 subject to restrictions as set forth in subparagraphs (a)
 and (c) of the Commercial Computer Software - Restricted
 Rights clause in FAR 52.227-19.
  
 Gaussian, Inc.
 340 Quinnipiac St., Bldg. 40, Wallingford CT 06492
  
  
 ---------------------------------------------------------------
 Warning -- This program may not be used in any manner that
 competes with the business of Gaussian, Inc. or will provide
 assistance to any competitor of Gaussian, Inc.  The licensee
 of this program is prohibited from giving any competitor of
 Gaussian, Inc. access to this program.  By using this program,
 the user acknowledges that Gaussian, Inc. is engaged in the
 business of creating and licensing software in the field of
 computational chemistry and represents and warrants to the
 licensee that it is not a competitor of Gaussian, Inc. and that
 it will not use this program in any manner prohibited above.
 ---------------------------------------------------------------
  

 Cite this work as:
 Gaussian 16, Revision C.01,
 M. J. Frisch, G. W. Trucks, H. B. Schlegel, G. E. Scuseria, 
 M. A. Robb, J. R. Cheeseman, G. Scalmani, V. Barone, 
 G. A. Petersson, H. Nakatsuji, X. Li, M. Caricato, A. V. Marenich, 
 J. Bloino, B. G. Janesko, R. Gomperts, B. Mennucci, H. P. Hratchian, 
 J. V. Ortiz, A. F. Izmaylov, J. L. Sonnenberg, D. Williams-Young, 
 F. Ding, F. Lipparini, F. Egidi, J. Goings, B. Peng, A. Petrone, 
 T. Henderson, D. Ranasinghe, V. G. Zakrzewski, J. Gao, N. Rega, 
 G. Zheng, W. Liang, M. Hada, M. Ehara, K. Toyota, R. Fukuda, 
 J. Hasegawa, M. Ishida, T. Nakajima, Y. Honda, O. Kitao, H. Nakai, 
 T. Vreven, K. Throssell, J. A. Montgomery, Jr., J. E. Peralta, 
 F. Ogliaro, M. J. Bearpark, J. J. Heyd, E. N. Brothers, K. N. Kudin, 
 V. N. Staroverov, T. A. Keith, R. Kobayashi, J. Normand, 
 K. Raghavachari, A. P. Rendell, J. C. Burant, S. S. Iyengar, 
 J. Tomasi, M. Cossi, J. M. Millam, M. Klene, C. Adamo, R. Cammi, 
 J. W. Ochterski, R. L. Martin, K. Morokuma, O. Farkas, 
 J. B. Foresman, and D. J. Fox, Gaussian, Inc., Wallingford CT, 2019.
 
 ******************************************
 Gaussian 16:  ES64L-G16RevC.01  3-Jul-2019
                24-May-2022 
 ******************************************
 %mem=8gb
 %nproc=4
 Will use up to    4 processors via shared memory.
 %chk=conf-669.chk
 ----------------------------------------------------------------------
 # B3LYP/6-31G* empiricaldispersion=gd3 guess=read geom=check nosymm in
 tegral(ultrafinegrid)
 ----------------------------------------------------------------------
 1/29=2,38=1,172=1/1;
 2/12=2,15=1,40=1/2;
 3/5=1,6=6,7=1,11=2,14=-4,25=1,30=1,74=-5,75=-5,116=-2,124=31/1,2,3;
 4/5=1/1;
 5/5=2,38=6/2;
 6/7=2,8=2,9=2,10=2,28=1/1;
 99/5=1,9=1/99;
 ------------------------------------------------------
 Candidate Structure: Conf:669 Charge calc in gas phase
 ------------------------------------------------------
 Structure from the checkpoint file:  "conf-669.chk"
 Charge =  1 Multiplicity = 1
 Redundant internal coordinates found in file.  (old form).
 N,0,12.7065488767,15.0492789497,15.3630428054
 C,0,11.8007091693,16.2461198322,15.4272947709
 C,0,12.3456992445,17.2163830032,16.4736337505
 O,0,13.0710529778,16.7901260303,17.363687882
 C,0,10.3588845612,15.7850789643,15.6999257428
 C,0,9.8744214875,14.660645466,14.7496660505
 C,0,10.3224683369,14.9427591397,13.3112041058
 O,0,11.5653434828,14.6979009701,13.0512221224
 O,0,9.5205464057,15.4663525465,12.5179654357
 H,0,13.6913779744,15.3308273052,15.3665230613
 H,0,11.8712327291,16.6734301229,14.42836191
 H,0,9.7114539774,16.6600122391,15.5952353798
 H,0,10.2797937995,15.4629113437,16.7452982695
 H,0,10.2791152529,13.692866159,15.0670948515
 H,0,8.7856357485,14.5992672413,14.795244007
 H,0,12.5770249829,14.442452341,16.177558521
 H,0,12.4199846281,14.5881552695,14.4238273037
 N,0,11.9494100534,18.5101771522,16.3471912626
 C,0,11.3795287903,19.1393707047,15.1476683484
 C,0,12.5116474214,19.4600698966,14.1542687552
 O,0,13.4455801459,20.1714185993,14.4798049361
 C,0,10.6679857271,20.4504861311,15.5283800335
 C,0,9.4578535693,20.2855452438,16.4669915057
 C,0,9.0132929661,21.6634427587,16.9795800294
 C,0,8.288584385,19.5645011325,15.7804152787
 H,0,12.3973379584,19.1399935001,17.0068529299
 H,0,10.6511972844,18.4583156459,14.7007025941
 H,0,10.3451854947,20.9418203128,14.6003582079
 H,0,11.4201215622,21.1120160344,15.9764606578
 H,0,9.7758367442,19.6854312604,17.3312118226
 H,0,8.6991828162,22.3074856755,16.1485964888
 H,0,8.165407677,21.568681833,17.6659983015
 H,0,9.8231845525,22.1737644485,17.5128313855
 H,0,7.4438879319,19.4547297374,16.4681579178
 H,0,7.9367663508,20.1342267757,14.9108491467
 H,0,8.5530786167,18.5582263152,15.4322150256
 N,0,12.3817122646,18.9453230534,12.8744214037
 C,0,13.4665173415,19.1561256716,11.9089436773
 C,0,12.8992033964,19.2065002444,10.4891387299
 O,0,13.5496712339,18.9066589047,9.5091813799
 C,0,14.6650730839,18.2003908573,12.0472521227
 C,0,14.3928695718,16.6872126659,12.0301820066
 C,0,13.7433827846,16.1058766378,10.764942678
 N,0,12.2772275657,16.2755830383,10.8217109485
 C,0,11.466533155,16.3272377553,9.7396638895
 N,0,11.9253179835,16.7611702878,8.549349246
 N,0,10.2049555547,15.923253204,9.8821628227
 O,0,11.628467612,19.6215445892,10.3671627518
 H,0,11.283015628,19.8389276691,11.2551527874
 H,0,11.7943580513,18.1302302694,12.7263302181
 H,0,13.8424149719,20.1657922033,12.1196983689
 H,0,15.155499757,18.4541672468,12.9929978452
 H,0,15.3665254439,18.4513262919,11.2454262328
 H,0,15.3591262308,16.1877881938,12.1670465659
 H,0,13.7798341355,16.3966520071,12.8955088784
 H,0,13.9600100192,15.0328991552,10.6965491687
 H,0,14.1517346111,16.5869787195,9.8775684395
 H,0,11.88836591,15.72043053,11.6056641082
 H,0,12.6798997365,17.4464613428,8.5525664472
 H,0,11.255672861,16.8787687408,7.8006657064
 H,0,9.5192564856,16.1350009214,9.1711741444
 H,0,9.869637878,15.6403693875,10.8245327847
 Recover connectivity data from disk.
                           ----------------------------
                           !    Current Parameters    !
                           ! (Angstroms and Degrees)  !
 --------------------------                            --------------------------
 ! Name  Definition              Value                                          !
 --------------------------------------------------------------------------------
 ! R1    R(1,2)                  1.5024                                         !
 ! R2    R(1,10)                 1.0243                                         !
 ! R3    R(1,16)                 1.0239                                         !
 ! R4    R(1,17)                 1.0848                                         !
 ! R5    R(2,3)                  1.5275                                         !
 ! R6    R(2,5)                  1.5381                                         !
 ! R7    R(2,11)                 1.0888                                         !
 ! R8    R(3,4)                  1.2248                                         !
 ! R9    R(3,18)                 1.359                                          !
 ! R10   R(5,6)                  1.5499                                         !
 ! R11   R(5,12)                 1.0935                                         !
 ! R12   R(5,13)                 1.0967                                         !
 ! R13   R(6,7)                  1.5328                                         !
 ! R14   R(6,14)                 1.096                                          !
 ! R15   R(6,15)                 1.0915                                         !
 ! R16   R(7,8)                  1.2932                                         !
 ! R17   R(7,9)                  1.2436                                         !
 ! R18   R(18,19)                1.4695                                         !
 ! R19   R(18,26)                1.0161                                         !
 ! R20   R(19,20)                1.5399                                         !
 ! R21   R(19,22)                1.5396                                         !
 ! R22   R(19,27)                1.0927                                         !
 ! R23   R(20,21)                1.2183                                         !
 ! R24   R(20,37)                1.3856                                         !
 ! R25   R(22,23)                1.5403                                         !
 ! R26   R(22,28)                1.0986                                         !
 ! R27   R(22,29)                1.0973                                         !
 ! R28   R(23,24)                1.5359                                         !
 ! R29   R(23,25)                1.5357                                         !
 ! R30   R(23,30)                1.0991                                         !
 ! R31   R(24,31)                1.0973                                         !
 ! R32   R(24,32)                1.095                                          !
 ! R33   R(24,33)                1.0958                                         !
 ! R34   R(25,34)                1.0948                                         !
 ! R35   R(25,35)                1.0975                                         !
 ! R36   R(25,36)                1.0972                                         !
 ! R37   R(37,38)                1.4674                                         !
 ! R38   R(37,50)                1.0155                                         !
 ! R39   R(38,39)                1.5298                                         !
 ! R40   R(38,41)                1.5392                                         !
 ! R41   R(38,51)                1.0978                                         !
 ! R42   R(39,40)                1.2138                                         !
 ! R43   R(39,48)                1.3424                                         !
 ! R44   R(41,42)                1.5376                                         !
 ! R45   R(41,52)                1.0952                                         !
 ! R46   R(41,53)                1.0945                                         !
 ! R47   R(42,43)                1.5364                                         !
 ! R48   R(42,54)                1.0963                                         !
 ! R49   R(42,55)                1.0996                                         !
 ! R50   R(43,44)                1.477                                          !
 ! R51   R(43,56)                1.0968                                         !
 ! R52   R(43,57)                1.0889                                         !
 ! R53   R(44,45)                1.353                                          !
 ! R54   R(44,58)                1.0363                                         !
 ! R55   R(45,46)                1.3475                                         !
 ! R56   R(45,47)                1.3323                                         !
 ! R57   R(46,59)                1.0193                                         !
 ! R58   R(46,60)                1.0113                                         !
 ! R59   R(47,61)                1.0102                                         !
 ! R60   R(47,62)                1.0395                                         !
 ! R61   R(48,49)                0.9773                                         !
 ! A1    A(2,1,10)             111.1368                                         !
 ! A2    A(2,1,16)             111.2126                                         !
 ! A3    A(2,1,17)             102.4963                                         !
 ! A4    A(10,1,16)            106.3688                                         !
 ! A5    A(10,1,17)            111.9474                                         !
 ! A6    A(16,1,17)            113.789                                          !
 ! A7    A(1,2,3)              108.6748                                         !
 ! A8    A(1,2,5)              109.5113                                         !
 ! A9    A(1,2,11)             103.554                                          !
 ! A10   A(3,2,5)              113.7931                                         !
 ! A11   A(3,2,11)             110.8591                                         !
 ! A12   A(5,2,11)             109.9369                                         !
 ! A13   A(2,3,4)              119.2117                                         !
 ! A14   A(2,3,18)             115.9088                                         !
 ! A15   A(4,3,18)             124.8648                                         !
 ! A16   A(2,5,6)              113.6915                                         !
 ! A17   A(2,5,12)             107.3508                                         !
 ! A18   A(2,5,13)             108.9413                                         !
 ! A19   A(6,5,12)             109.6782                                         !
 ! A20   A(6,5,13)             110.4108                                         !
 ! A21   A(12,5,13)            106.4755                                         !
 ! A22   A(5,6,7)              110.5172                                         !
 ! A23   A(5,6,14)             110.3434                                         !
 ! A24   A(5,6,15)             109.0876                                         !
 ! A25   A(7,6,14)             109.0501                                         !
 ! A26   A(7,6,15)             109.9454                                         !
 ! A27   A(14,6,15)            107.8544                                         !
 ! A28   A(6,7,8)              115.7697                                         !
 ! A29   A(6,7,9)              119.1836                                         !
 ! A30   A(8,7,9)              124.8382                                         !
 ! A31   A(3,18,19)            126.6295                                         !
 ! A32   A(3,18,26)            113.6494                                         !
 ! A33   A(19,18,26)           115.8165                                         !
 ! A34   A(18,19,20)           109.3073                                         !
 ! A35   A(18,19,22)           109.9992                                         !
 ! A36   A(18,19,27)           108.9959                                         !
 ! A37   A(20,19,22)           108.7807                                         !
 ! A38   A(20,19,27)           110.8511                                         !
 ! A39   A(22,19,27)           108.8974                                         !
 ! A40   A(19,20,21)           120.851                                          !
 ! A41   A(19,20,37)           116.7151                                         !
 ! A42   A(21,20,37)           122.386                                          !
 ! A43   A(19,22,23)           114.9982                                         !
 ! A44   A(19,22,28)           107.9263                                         !
 ! A45   A(19,22,29)           107.3132                                         !
 ! A46   A(23,22,28)           109.3784                                         !
 ! A47   A(23,22,29)           110.746                                          !
 ! A48   A(28,22,29)           106.065                                          !
 ! A49   A(22,23,24)           109.5542                                         !
 ! A50   A(22,23,25)           112.0869                                         !
 ! A51   A(22,23,30)           108.0771                                         !
 ! A52   A(24,23,25)           110.4896                                         !
 ! A53   A(24,23,30)           108.1283                                         !
 ! A54   A(25,23,30)           108.387                                          !
 ! A55   A(23,24,31)           110.8966                                         !
 ! A56   A(23,24,32)           110.8359                                         !
 ! A57   A(23,24,33)           111.487                                          !
 ! A58   A(31,24,32)           107.69                                           !
 ! A59   A(31,24,33)           107.8649                                         !
 ! A60   A(32,24,33)           107.9114                                         !
 ! A61   A(23,25,34)           110.7125                                         !
 ! A62   A(23,25,35)           110.7663                                         !
 ! A63   A(23,25,36)           112.8892                                         !
 ! A64   A(34,25,35)           107.6046                                         !
 ! A65   A(34,25,36)           107.062                                          !
 ! A66   A(35,25,36)           107.5737                                         !
 ! A67   A(20,37,38)           119.0145                                         !
 ! A68   A(20,37,50)           119.1511                                         !
 ! A69   A(38,37,50)           116.5462                                         !
 ! A70   A(37,38,39)           109.951                                          !
 ! A71   A(37,38,41)           115.2982                                         !
 ! A72   A(37,38,51)           105.0071                                         !
 ! A73   A(39,38,41)           113.1177                                         !
 ! A74   A(39,38,51)           105.9546                                         !
 ! A75   A(41,38,51)           106.6907                                         !
 ! A76   A(38,39,40)           122.8495                                         !
 ! A77   A(38,39,48)           116.4603                                         !
 ! A78   A(40,39,48)           120.6849                                         !
 ! A79   A(38,41,42)           118.1794                                         !
 ! A80   A(38,41,52)           106.4049                                         !
 ! A81   A(38,41,53)           106.9098                                         !
 ! A82   A(42,41,52)           108.4767                                         !
 ! A83   A(42,41,53)           109.3271                                         !
 ! A84   A(52,41,53)           107.0091                                         !
 ! A85   A(41,42,43)           117.1517                                         !
 ! A86   A(41,42,54)           106.9128                                         !
 ! A87   A(41,42,55)           110.489                                          !
 ! A88   A(43,42,54)           107.6396                                         !
 ! A89   A(43,42,55)           108.2042                                         !
 ! A90   A(54,42,55)           105.8293                                         !
 ! A91   A(42,43,44)           110.1505                                         !
 ! A92   A(42,43,56)           109.7564                                         !
 ! A93   A(42,43,57)           110.206                                          !
 ! A94   A(44,43,56)           108.1112                                         !
 ! A95   A(44,43,57)           110.6597                                         !
 ! A96   A(56,43,57)           107.9003                                         !
 ! A97   A(43,44,45)           124.6388                                         !
 ! A98   A(43,44,58)           109.8762                                         !
 ! A99   A(45,44,58)           113.6148                                         !
 ! A100  A(44,45,46)           120.9802                                         !
 ! A101  A(44,45,47)           118.0498                                         !
 ! A102  A(46,45,47)           120.9663                                         !
 ! A103  A(45,46,59)           117.76                                           !
 ! A104  A(45,46,60)           117.7726                                         !
 ! A105  A(59,46,60)           114.4771                                         !
 ! A106  A(45,47,61)           120.2579                                         !
 ! A107  A(45,47,62)           119.0081                                         !
 ! A108  A(61,47,62)           118.4333                                         !
 ! A109  A(39,48,49)           108.713                                          !
 ! D1    D(10,1,2,3)           -44.0179                                         !
 ! D2    D(10,1,2,5)          -168.8773                                         !
 ! D3    D(10,1,2,11)           73.8937                                         !
 ! D4    D(16,1,2,3)            74.2867                                         !
 ! D5    D(16,1,2,5)           -50.5727                                         !
 ! D6    D(16,1,2,11)         -167.8016                                         !
 ! D7    D(17,1,2,3)          -163.7616                                         !
 ! D8    D(17,1,2,5)            71.379                                          !
 ! D9    D(17,1,2,11)          -45.8499                                         !
 ! D10   D(1,2,3,4)            -23.2828                                         !
 ! D11   D(1,2,3,18)           158.045                                          !
 ! D12   D(5,2,3,4)             99.0154                                         !
 ! D13   D(5,2,3,18)           -79.6568                                         !
 ! D14   D(11,2,3,4)          -136.457                                          !
 ! D15   D(11,2,3,18)           44.8708                                         !
 ! D16   D(1,2,5,6)            -50.4227                                         !
 ! D17   D(1,2,5,12)          -171.9131                                         !
 ! D18   D(1,2,5,13)            73.1665                                         !
 ! D19   D(3,2,5,6)           -172.2587                                         !
 ! D20   D(3,2,5,12)            66.2509                                         !
 ! D21   D(3,2,5,13)           -48.6695                                         !
 ! D22   D(11,2,5,6)            62.7198                                         !
 ! D23   D(11,2,5,12)          -58.7705                                         !
 ! D24   D(11,2,5,13)         -173.6909                                         !
 ! D25   D(2,3,18,19)          -18.0735                                         !
 ! D26   D(2,3,18,26)         -174.7074                                         !
 ! D27   D(4,3,18,19)          163.339                                          !
 ! D28   D(4,3,18,26)            6.7051                                         !
 ! D29   D(2,5,6,7)            -42.0996                                         !
 ! D30   D(2,5,6,14)            78.5934                                         !
 ! D31   D(2,5,6,15)          -163.0914                                         !
 ! D32   D(12,5,6,7)            78.0852                                         !
 ! D33   D(12,5,6,14)         -161.2219                                         !
 ! D34   D(12,5,6,15)          -42.9067                                         !
 ! D35   D(13,5,6,7)          -164.8854                                         !
 ! D36   D(13,5,6,14)          -44.1924                                         !
 ! D37   D(13,5,6,15)           74.1227                                         !
 ! D38   D(5,6,7,8)             76.8299                                         !
 ! D39   D(5,6,7,9)            -98.177                                          !
 ! D40   D(14,6,7,8)           -44.6312                                         !
 ! D41   D(14,6,7,9)           140.3618                                         !
 ! D42   D(15,6,7,8)          -162.6895                                         !
 ! D43   D(15,6,7,9)            22.3035                                         !
 ! D44   D(3,18,19,20)         -78.317                                          !
 ! D45   D(3,18,19,22)         162.3076                                         !
 ! D46   D(3,18,19,27)          42.9802                                         !
 ! D47   D(26,18,19,20)         77.8811                                         !
 ! D48   D(26,18,19,22)        -41.4944                                         !
 ! D49   D(26,18,19,27)       -160.8218                                         !
 ! D50   D(18,19,20,21)        -57.532                                          !
 ! D51   D(18,19,20,37)        124.9257                                         !
 ! D52   D(22,19,20,21)         62.5938                                         !
 ! D53   D(22,19,20,37)       -114.9484                                         !
 ! D54   D(27,19,20,21)       -177.698                                          !
 ! D55   D(27,19,20,37)          4.7597                                         !
 ! D56   D(18,19,22,23)        -63.2671                                         !
 ! D57   D(18,19,22,28)        174.347                                          !
 ! D58   D(18,19,22,29)         60.4251                                         !
 ! D59   D(20,19,22,23)        177.0366                                         !
 ! D60   D(20,19,22,28)         54.6507                                         !
 ! D61   D(20,19,22,29)        -59.2711                                         !
 ! D62   D(27,19,22,23)         56.1204                                         !
 ! D63   D(27,19,22,28)        -66.2654                                         !
 ! D64   D(27,19,22,29)        179.8127                                         !
 ! D65   D(19,20,37,38)       -176.6033                                         !
 ! D66   D(19,20,37,50)        -23.1547                                         !
 ! D67   D(21,20,37,38)          5.8953                                         !
 ! D68   D(21,20,37,50)        159.344                                          !
 ! D69   D(19,22,23,24)        169.1815                                         !
 ! D70   D(19,22,23,25)        -67.7931                                         !
 ! D71   D(19,22,23,30)         51.5833                                         !
 ! D72   D(28,22,23,24)        -69.2172                                         !
 ! D73   D(28,22,23,25)         53.8082                                         !
 ! D74   D(28,22,23,30)        173.1846                                         !
 ! D75   D(29,22,23,24)         47.3288                                         !
 ! D76   D(29,22,23,25)        170.3542                                         !
 ! D77   D(29,22,23,30)        -70.2695                                         !
 ! D78   D(22,23,24,31)         61.5926                                         !
 ! D79   D(22,23,24,32)       -178.8481                                         !
 ! D80   D(22,23,24,33)        -58.6189                                         !
 ! D81   D(25,23,24,31)        -62.3733                                         !
 ! D82   D(25,23,24,32)         57.186                                          !
 ! D83   D(25,23,24,33)        177.4152                                         !
 ! D84   D(30,23,24,31)        179.1588                                         !
 ! D85   D(30,23,24,32)        -61.2818                                         !
 ! D86   D(30,23,24,33)         58.9474                                         !
 ! D87   D(22,23,25,34)        179.6987                                         !
 ! D88   D(22,23,25,35)        -61.0139                                         !
 ! D89   D(22,23,25,36)         59.6901                                         !
 ! D90   D(24,23,25,34)        -57.8056                                         !
 ! D91   D(24,23,25,35)         61.4818                                         !
 ! D92   D(24,23,25,36)       -177.8142                                         !
 ! D93   D(30,23,25,34)         60.5043                                         !
 ! D94   D(30,23,25,35)        179.7917                                         !
 ! D95   D(30,23,25,36)        -59.5043                                         !
 ! D96   D(20,37,38,39)       -150.3418                                         !
 ! D97   D(20,37,38,41)         80.344                                          !
 ! D98   D(20,37,38,51)        -36.7595                                         !
 ! D99   D(50,37,38,39)         55.5319                                         !
 ! D100  D(50,37,38,41)        -73.7823                                         !
 ! D101  D(50,37,38,51)        169.1142                                         !
 ! D102  D(37,38,39,40)       -153.5077                                         !
 ! D103  D(37,38,39,48)         27.3206                                         !
 ! D104  D(41,38,39,40)        -23.021                                          !
 ! D105  D(41,38,39,48)        157.8073                                         !
 ! D106  D(51,38,39,40)         93.5199                                         !
 ! D107  D(51,38,39,48)        -85.6518                                         !
 ! D108  D(37,38,41,42)         54.1495                                         !
 ! D109  D(37,38,41,52)        -68.0261                                         !
 ! D110  D(37,38,41,53)        177.8808                                         !
 ! D111  D(39,38,41,42)        -73.595                                          !
 ! D112  D(39,38,41,52)        164.2293                                         !
 ! D113  D(39,38,41,53)         50.1362                                         !
 ! D114  D(51,38,41,42)        170.2997                                         !
 ! D115  D(51,38,41,52)         48.124                                          !
 ! D116  D(51,38,41,53)        -65.9691                                         !
 ! D117  D(38,39,48,49)          0.7902                                         !
 ! D118  D(40,39,48,49)       -178.4006                                         !
 ! D119  D(38,41,42,43)         60.7091                                         !
 ! D120  D(38,41,42,54)       -178.5005                                         !
 ! D121  D(38,41,42,55)        -63.7936                                         !
 ! D122  D(52,41,42,43)       -178.1714                                         !
 ! D123  D(52,41,42,54)        -57.381                                          !
 ! D124  D(52,41,42,55)         57.326                                          !
 ! D125  D(53,41,42,43)        -61.8098                                         !
 ! D126  D(53,41,42,54)         58.9806                                         !
 ! D127  D(53,41,42,55)        173.6875                                         !
 ! D128  D(41,42,43,44)        -83.4715                                         !
 ! D129  D(41,42,43,56)        157.6055                                         !
 ! D130  D(41,42,43,57)         38.9077                                         !
 ! D131  D(54,42,43,44)        156.1203                                         !
 ! D132  D(54,42,43,56)         37.1973                                         !
 ! D133  D(54,42,43,57)        -81.5005                                         !
 ! D134  D(55,42,43,44)         42.1738                                         !
 ! D135  D(55,42,43,56)        -76.7492                                         !
 ! D136  D(55,42,43,57)        164.553                                          !
 ! D137  D(42,43,44,45)        155.2762                                         !
 ! D138  D(42,43,44,58)        -64.595                                          !
 ! D139  D(56,43,44,45)        -84.8002                                         !
 ! D140  D(56,43,44,58)         55.3286                                         !
 ! D141  D(57,43,44,45)         33.1649                                         !
 ! D142  D(57,43,44,58)        173.2937                                         !
 ! D143  D(43,44,45,46)        -27.1774                                         !
 ! D144  D(43,44,45,47)        152.1339                                         !
 ! D145  D(58,44,45,46)       -166.0318                                         !
 ! D146  D(58,44,45,47)         13.2794                                         !
 ! D147  D(44,45,46,59)        -29.5242                                         !
 ! D148  D(44,45,46,60)       -173.2669                                         !
 ! D149  D(47,45,46,59)        151.1847                                         !
 ! D150  D(47,45,46,60)          7.442                                          !
 ! D151  D(44,45,47,61)        166.29                                           !
 ! D152  D(44,45,47,62)          3.7786                                         !
 ! D153  D(46,45,47,61)        -14.3986                                         !
 ! D154  D(46,45,47,62)       -176.91                                           !
 --------------------------------------------------------------------------------
 Symmetry turned off by external request.
 Stoichiometry    C17H33N6O6(1+)
 Framework group  C1[X(C17H33N6O6)]
 Deg. of freedom   180
 Full point group                 C1      NOp   1
                          Input orientation:                          
 ---------------------------------------------------------------------
 Center     Atomic      Atomic             Coordinates (Angstroms)
 Number     Number       Type             X           Y           Z
 ---------------------------------------------------------------------
      1          7           0       12.706549   15.049279   15.363043
      2          6           0       11.800709   16.246120   15.427295
      3          6           0       12.345699   17.216383   16.473634
      4          8           0       13.071053   16.790126   17.363688
      5          6           0       10.358885   15.785079   15.699926
      6          6           0        9.874421   14.660645   14.749666
      7          6           0       10.322468   14.942759   13.311204
      8          8           0       11.565343   14.697901   13.051222
      9          8           0        9.520546   15.466353   12.517965
     10          1           0       13.691378   15.330827   15.366523
     11          1           0       11.871233   16.673430   14.428362
     12          1           0        9.711454   16.660012   15.595235
     13          1           0       10.279794   15.462911   16.745298
     14          1           0       10.279115   13.692866   15.067095
     15          1           0        8.785636   14.599267   14.795244
     16          1           0       12.577025   14.442452   16.177559
     17          1           0       12.419985   14.588155   14.423827
     18          7           0       11.949410   18.510177   16.347191
     19          6           0       11.379529   19.139371   15.147668
     20          6           0       12.511647   19.460070   14.154269
     21          8           0       13.445580   20.171419   14.479805
     22          6           0       10.667986   20.450486   15.528380
     23          6           0        9.457854   20.285545   16.466992
     24          6           0        9.013293   21.663443   16.979580
     25          6           0        8.288584   19.564501   15.780415
     26          1           0       12.397338   19.139994   17.006853
     27          1           0       10.651197   18.458316   14.700703
     28          1           0       10.345185   20.941820   14.600358
     29          1           0       11.420122   21.112016   15.976461
     30          1           0        9.775837   19.685431   17.331212
     31          1           0        8.699183   22.307486   16.148596
     32          1           0        8.165408   21.568682   17.665998
     33          1           0        9.823185   22.173764   17.512831
     34          1           0        7.443888   19.454730   16.468158
     35          1           0        7.936766   20.134227   14.910849
     36          1           0        8.553079   18.558226   15.432215
     37          7           0       12.381712   18.945323   12.874421
     38          6           0       13.466517   19.156126   11.908944
     39          6           0       12.899203   19.206500   10.489139
     40          8           0       13.549671   18.906659    9.509181
     41          6           0       14.665073   18.200391   12.047252
     42          6           0       14.392870   16.687213   12.030182
     43          6           0       13.743383   16.105877   10.764943
     44          7           0       12.277228   16.275583   10.821711
     45          6           0       11.466533   16.327238    9.739664
     46          7           0       11.925318   16.761170    8.549349
     47          7           0       10.204956   15.923253    9.882163
     48          8           0       11.628468   19.621545   10.367163
     49          1           0       11.283016   19.838928   11.255153
     50          1           0       11.794358   18.130230   12.726330
     51          1           0       13.842415   20.165792   12.119698
     52          1           0       15.155500   18.454167   12.992998
     53          1           0       15.366525   18.451326   11.245426
     54          1           0       15.359126   16.187788   12.167047
     55          1           0       13.779834   16.396652   12.895509
     56          1           0       13.960010   15.032899   10.696549
     57          1           0       14.151735   16.586979    9.877568
     58          1           0       11.888366   15.720431   11.605664
     59          1           0       12.679900   17.446461    8.552566
     60          1           0       11.255673   16.878769    7.800666
     61          1           0        9.519256   16.135001    9.171174
     62          1           0        9.869638   15.640369   10.824533
 ---------------------------------------------------------------------
 Rotational constants (GHZ):           0.2008708           0.1253712           0.1085141
 Standard basis: 6-31G(d) (6D, 7F)
   501 basis functions,   944 primitive gaussians,   501 cartesian basis functions
   112 alpha electrons      112 beta electrons
       nuclear repulsion energy      3278.0099335207 Hartrees.
 NAtoms=   62 NActive=   62 NUniq=   62 SFac= 1.00D+00 NAtFMM=   60 NAOKFM=T Big=T
 Integral buffers will be    131072 words long.
 Raffenetti 2 integral format.
 Two-electron integral symmetry is turned off.
 Nuclear repulsion after empirical dispersion term =     3277.9200090752 Hartrees.
 One-electron integrals computed using PRISM.
 NBasis=   501 RedAO= T EigKep=  1.81D-03  NBF=   501
 NBsUse=   501 1.00D-06 EigRej= -1.00D+00 NBFU=   501
 Initial guess from the checkpoint file:  "conf-669.chk"
 B after Tr=     0.000000    0.000000    0.000000
         Rot=    1.000000    0.000000    0.000000    0.000000 Ang=   0.00 deg.
 Requested convergence on RMS density matrix=1.00D-08 within 128 cycles.
 Requested convergence on MAX density matrix=1.00D-06.
 Requested convergence on             energy=1.00D-06.
 No special actions if energy rises.
 SCF Done:  E(RB3LYP) =  -1447.51373218     A.U. after    1 cycles
            NFock=  1  Conv=0.62D-08     -V/T= 2.0093

 **********************************************************************

            Population analysis using the SCF Density.

 **********************************************************************

 Alpha  occ. eigenvalues --  -19.31868 -19.26098 -19.25067 -19.24872 -19.23601
 Alpha  occ. eigenvalues --  -19.22462 -14.57402 -14.50172 -14.49214 -14.48842
 Alpha  occ. eigenvalues --  -14.48454 -14.48185 -10.45429 -10.44597 -10.42594
 Alpha  occ. eigenvalues --  -10.41872 -10.40568 -10.39270 -10.36722 -10.36345
 Alpha  occ. eigenvalues --  -10.34253 -10.33783 -10.31336 -10.31018 -10.30594
 Alpha  occ. eigenvalues --  -10.30068 -10.29033 -10.27164 -10.26005  -1.22811
 Alpha  occ. eigenvalues --   -1.17628  -1.16904  -1.16191  -1.14471  -1.13632
 Alpha  occ. eigenvalues --   -1.12251  -1.07029  -1.05993  -1.05771  -1.03130
 Alpha  occ. eigenvalues --   -1.01784  -0.93621  -0.92396  -0.91453  -0.87737
 Alpha  occ. eigenvalues --   -0.86074  -0.85006  -0.80511  -0.77808  -0.76767
 Alpha  occ. eigenvalues --   -0.76275  -0.75488  -0.74264  -0.73951  -0.72900
 Alpha  occ. eigenvalues --   -0.71269  -0.70969  -0.70387  -0.70160  -0.68264
 Alpha  occ. eigenvalues --   -0.67810  -0.66444  -0.65023  -0.62824  -0.62496
 Alpha  occ. eigenvalues --   -0.61994  -0.61300  -0.60760  -0.60373  -0.59610
 Alpha  occ. eigenvalues --   -0.59259  -0.58018  -0.57668  -0.57318  -0.56520
 Alpha  occ. eigenvalues --   -0.56096  -0.55737  -0.55428  -0.55164  -0.54554
 Alpha  occ. eigenvalues --   -0.53823  -0.53630  -0.53009  -0.52635  -0.52175
 Alpha  occ. eigenvalues --   -0.51556  -0.51272  -0.50842  -0.50450  -0.50142
 Alpha  occ. eigenvalues --   -0.49135  -0.48135  -0.47754  -0.47419  -0.47149
 Alpha  occ. eigenvalues --   -0.46583  -0.46087  -0.45995  -0.43986  -0.42901
 Alpha  occ. eigenvalues --   -0.42560  -0.42446  -0.40871  -0.40241  -0.40151
 Alpha  occ. eigenvalues --   -0.39574  -0.39019  -0.38780  -0.38259  -0.37935
 Alpha  occ. eigenvalues --   -0.36898  -0.36471
 Alpha virt. eigenvalues --   -0.12278  -0.12054  -0.11672  -0.10591  -0.09226
 Alpha virt. eigenvalues --   -0.08413  -0.06763  -0.04738  -0.03772  -0.03663
 Alpha virt. eigenvalues --   -0.03384  -0.01769  -0.00845  -0.00099   0.00103
 Alpha virt. eigenvalues --    0.00649   0.01511   0.02362   0.02602   0.03017
 Alpha virt. eigenvalues --    0.03168   0.03556   0.04289   0.04437   0.05065
 Alpha virt. eigenvalues --    0.05184   0.05551   0.06057   0.06462   0.06657
 Alpha virt. eigenvalues --    0.07164   0.07593   0.07714   0.08113   0.08275
 Alpha virt. eigenvalues --    0.08761   0.09125   0.09528   0.09967   0.10512
 Alpha virt. eigenvalues --    0.10658   0.10846   0.11493   0.12422   0.13012
 Alpha virt. eigenvalues --    0.13321   0.13568   0.13960   0.14186   0.14602
 Alpha virt. eigenvalues --    0.15522   0.16695   0.17232   0.18160   0.18282
 Alpha virt. eigenvalues --    0.18831   0.20756   0.22076   0.24854   0.25241
 Alpha virt. eigenvalues --    0.25835   0.27512   0.28605   0.29155   0.29887
 Alpha virt. eigenvalues --    0.32572   0.35358   0.35856   0.36663   0.38024
 Alpha virt. eigenvalues --    0.38532   0.38775   0.40620   0.40748   0.41477
 Alpha virt. eigenvalues --    0.42168   0.42525   0.42998   0.43691   0.44053
 Alpha virt. eigenvalues --    0.44261   0.45007   0.45733   0.46780   0.47591
 Alpha virt. eigenvalues --    0.48130   0.48613   0.49221   0.49453   0.50729
 Alpha virt. eigenvalues --    0.51128   0.51509   0.51897   0.52667   0.52970
 Alpha virt. eigenvalues --    0.53578   0.54139   0.54571   0.55330   0.55559
 Alpha virt. eigenvalues --    0.56029   0.56376   0.57200   0.58386   0.58921
 Alpha virt. eigenvalues --    0.59426   0.60290   0.61205   0.61459   0.62049
 Alpha virt. eigenvalues --    0.62519   0.63153   0.64375   0.65215   0.65881
 Alpha virt. eigenvalues --    0.66088   0.66452   0.67362   0.67764   0.68389
 Alpha virt. eigenvalues --    0.69822   0.70259   0.70945   0.71203   0.71895
 Alpha virt. eigenvalues --    0.72189   0.72603   0.72940   0.73442   0.73908
 Alpha virt. eigenvalues --    0.74700   0.75369   0.75938   0.76074   0.76773
 Alpha virt. eigenvalues --    0.77130   0.77403   0.77827   0.78564   0.79798
 Alpha virt. eigenvalues --    0.80427   0.80880   0.81194   0.81824   0.81898
 Alpha virt. eigenvalues --    0.82117   0.82498   0.82892   0.83161   0.83490
 Alpha virt. eigenvalues --    0.84336   0.84719   0.85195   0.86818   0.87425
 Alpha virt. eigenvalues --    0.87578   0.87955   0.88550   0.89007   0.89097
 Alpha virt. eigenvalues --    0.89456   0.90596   0.91311   0.92198   0.93154
 Alpha virt. eigenvalues --    0.94079   0.94718   0.94981   0.96587   0.97468
 Alpha virt. eigenvalues --    0.98235   0.99116   1.00327   1.00479   1.01816
 Alpha virt. eigenvalues --    1.02002   1.04326   1.04415   1.05934   1.06074
 Alpha virt. eigenvalues --    1.06581   1.06997   1.07985   1.08475   1.10753
 Alpha virt. eigenvalues --    1.12855   1.13536   1.14702   1.15318   1.17017
 Alpha virt. eigenvalues --    1.18048   1.19012   1.20525   1.20827   1.22040
 Alpha virt. eigenvalues --    1.23580   1.25283   1.26864   1.26961   1.27785
 Alpha virt. eigenvalues --    1.28767   1.30693   1.31948   1.32737   1.33911
 Alpha virt. eigenvalues --    1.34260   1.35163   1.36117   1.36339   1.37699
 Alpha virt. eigenvalues --    1.38648   1.41121   1.42193   1.43264   1.44052
 Alpha virt. eigenvalues --    1.45635   1.47035   1.47223   1.48941   1.50911
 Alpha virt. eigenvalues --    1.51793   1.53658   1.54771   1.55582   1.56674
 Alpha virt. eigenvalues --    1.57000   1.57518   1.58058   1.59553   1.60734
 Alpha virt. eigenvalues --    1.62083   1.62892   1.63272   1.64031   1.65086
 Alpha virt. eigenvalues --    1.65590   1.67051   1.67427   1.68640   1.68749
 Alpha virt. eigenvalues --    1.69024   1.69877   1.70216   1.70574   1.71367
 Alpha virt. eigenvalues --    1.72146   1.73118   1.73720   1.74194   1.75714
 Alpha virt. eigenvalues --    1.76382   1.76494   1.76815   1.77771   1.78661
 Alpha virt. eigenvalues --    1.78767   1.79434   1.79868   1.80271   1.80886
 Alpha virt. eigenvalues --    1.81484   1.83276   1.84070   1.84686   1.85983
 Alpha virt. eigenvalues --    1.86796   1.88297   1.88659   1.89086   1.90192
 Alpha virt. eigenvalues --    1.90941   1.91533   1.92686   1.92845   1.93462
 Alpha virt. eigenvalues --    1.93513   1.95536   1.95636   1.96166   1.97895
 Alpha virt. eigenvalues --    1.98731   1.99739   2.01125   2.01347   2.01987
 Alpha virt. eigenvalues --    2.02766   2.03848   2.06195   2.06719   2.07993
 Alpha virt. eigenvalues --    2.09539   2.10597   2.11948   2.13646   2.14565
 Alpha virt. eigenvalues --    2.14889   2.16067   2.17179   2.17974   2.18874
 Alpha virt. eigenvalues --    2.19638   2.20907   2.21485   2.22050   2.23466
 Alpha virt. eigenvalues --    2.24664   2.25098   2.26719   2.29075   2.29851
 Alpha virt. eigenvalues --    2.30389   2.31275   2.32801   2.34453   2.35132
 Alpha virt. eigenvalues --    2.35658   2.37665   2.37983   2.39061   2.39908
 Alpha virt. eigenvalues --    2.41724   2.42196   2.44295   2.44956   2.46661
 Alpha virt. eigenvalues --    2.48128   2.49640   2.50644   2.51279   2.52029
 Alpha virt. eigenvalues --    2.52748   2.54125   2.55168   2.56792   2.56938
 Alpha virt. eigenvalues --    2.58180   2.59298   2.60453   2.61126   2.61596
 Alpha virt. eigenvalues --    2.63057   2.66147   2.66995   2.68093   2.68226
 Alpha virt. eigenvalues --    2.74007   2.75692   2.79584   2.83333   2.84543
 Alpha virt. eigenvalues --    2.87426   2.87750   2.89730   2.91650   2.92471
 Alpha virt. eigenvalues --    2.95827   3.00012   3.00876   3.01705   3.02362
 Alpha virt. eigenvalues --    3.69073   3.71956   3.78462   3.82414   3.86145
 Alpha virt. eigenvalues --    3.90297   3.95263   3.95396   4.02394   4.05261
 Alpha virt. eigenvalues --    4.07320   4.10264   4.15145   4.17032   4.17517
 Alpha virt. eigenvalues --    4.18736   4.20314   4.23022   4.26288   4.27626
 Alpha virt. eigenvalues --    4.33259   4.34780   4.37820   4.42181   4.47541
 Alpha virt. eigenvalues --    4.48960   4.53037   4.57340   4.66266
          Condensed to atoms (all electrons):
 Mulliken charges:
               1
     1  N   -0.749426
     2  C   -0.124009
     3  C    0.614862
     4  O   -0.493830
     5  C   -0.306958
     6  C   -0.357146
     7  C    0.612762
     8  O   -0.638540
     9  O   -0.549135
    10  H    0.405046
    11  H    0.180145
    12  H    0.203273
    13  H    0.189959
    14  H    0.162669
    15  H    0.201348
    16  H    0.406758
    17  H    0.438349
    18  N   -0.578334
    19  C   -0.094467
    20  C    0.635133
    21  O   -0.483839
    22  C   -0.282443
    23  C   -0.080346
    24  C   -0.447569
    25  C   -0.463878
    26  H    0.365654
    27  H    0.151243
    28  H    0.151045
    29  H    0.177561
    30  H    0.140490
    31  H    0.152604
    32  H    0.164137
    33  H    0.155894
    34  H    0.171879
    35  H    0.153497
    36  H    0.133956
    37  N   -0.685293
    38  C   -0.070379
    39  C    0.642770
    40  O   -0.489857
    41  C   -0.276438
    42  C   -0.294780
    43  C   -0.151941
    44  N   -0.681337
    45  C    0.757786
    46  N   -0.750084
    47  N   -0.785534
    48  O   -0.562185
    49  H    0.430561
    50  H    0.354663
    51  H    0.235729
    52  H    0.177522
    53  H    0.191077
    54  H    0.175798
    55  H    0.113008
    56  H    0.183629
    57  H    0.197991
    58  H    0.412845
    59  H    0.408175
    60  H    0.361887
    61  H    0.358103
    62  H    0.427939
 Sum of Mulliken charges =   1.00000
 Mulliken charges with hydrogens summed into heavy atoms:
               1
     1  N    0.500728
     2  C    0.056136
     3  C    0.614862
     4  O   -0.493830
     5  C    0.086274
     6  C    0.006871
     7  C    0.612762
     8  O   -0.638540
     9  O   -0.549135
    18  N   -0.212680
    19  C    0.056775
    20  C    0.635133
    21  O   -0.483839
    22  C    0.046164
    23  C    0.060144
    24  C    0.025066
    25  C   -0.004546
    37  N   -0.330629
    38  C    0.165350
    39  C    0.642770
    40  O   -0.489857
    41  C    0.092161
    42  C   -0.005973
    43  C    0.229679
    44  N   -0.268492
    45  C    0.757786
    46  N    0.019977
    47  N    0.000508
    48  O   -0.131623
 Electronic spatial extent (au):  <R**2>=         513847.2142
 Charge=              1.0000 electrons
 Dipole moment (field-independent basis, Debye):
    X=             55.3195    Y=             80.7987    Z=             62.7358  Tot=            116.2947
 Quadrupole moment (field-independent basis, Debye-Ang):
   XX=            479.7667   YY=           1208.0546   ZZ=            692.2979
   XY=            916.5866   XZ=            719.3759   YZ=           1053.7210
 Traceless Quadrupole moment (field-independent basis, Debye-Ang):
   XX=           -313.6064   YY=            414.6816   ZZ=           -101.0752
   XY=            916.5866   XZ=            719.3759   YZ=           1053.7210
 Octapole moment (field-independent basis, Debye-Ang**2):
  XXX=           1824.6894  YYY=          14819.6534  ZZZ=           5405.3325  XYY=          13385.9416
  XXY=           7589.2373  XXZ=           6120.7531  XZZ=           7774.6663  YZZ=          11443.0640
  YYZ=          15739.9689  XYZ=          11872.5248
 Hexadecapole moment (field-independent basis, Debye-Ang**3):
 XXXX=         -47260.6021 YYYY=          94974.9008 ZZZZ=         -13228.3045 XXXY=          19620.3932
 XXXZ=          20784.5561 YYYX=         155861.6362 YYYZ=         192229.4396 ZZZX=          56920.6616
 ZZZY=          83229.9250 XXYY=          96872.4182 XXZZ=          56886.6442 YYZZ=         161845.1266
 XXYZ=          95585.7031 YYXZ=         172773.0879 ZZXY=         125280.4745
 N-N= 3.277920009075D+03 E-N=-9.903345785731D+03  KE= 1.434107595420D+03
 Unable to Open any file for archive entry.
 1\1\GINC-VIM-001\SP\RB3LYP\6-31G(d)\C17H33N6O6(1+)\KENGMITH\24-May-202
 2\0\\# B3LYP/6-31G* empiricaldispersion=gd3 guess=read geom=check nosy
 mm integral(ultrafinegrid)\\Candidate Structure: Conf:669 Charge calc 
 in gas phase\\1,1\N,0,12.7065488767,15.0492789497,15.3630428054\C,0,11
 .8007091693,16.2461198322,15.4272947709\C,0,12.3456992445,17.216383003
 2,16.4736337505\O,0,13.0710529778,16.7901260303,17.363687882\C,0,10.35
 88845612,15.7850789643,15.6999257428\C,0,9.8744214875,14.660645466,14.
 7496660505\C,0,10.3224683369,14.9427591397,13.3112041058\O,0,11.565343
 4828,14.6979009701,13.0512221224\O,0,9.5205464057,15.4663525465,12.517
 9654357\H,0,13.6913779744,15.3308273052,15.3665230613\H,0,11.871232729
 1,16.6734301229,14.42836191\H,0,9.7114539774,16.6600122391,15.59523537
 98\H,0,10.2797937995,15.4629113437,16.7452982695\H,0,10.2791152529,13.
 692866159,15.0670948515\H,0,8.7856357485,14.5992672413,14.795244007\H,
 0,12.5770249829,14.442452341,16.177558521\H,0,12.4199846281,14.5881552
 695,14.4238273037\N,0,11.9494100534,18.5101771522,16.3471912626\C,0,11
 .3795287903,19.1393707047,15.1476683484\C,0,12.5116474214,19.460069896
 6,14.1542687552\O,0,13.4455801459,20.1714185993,14.4798049361\C,0,10.6
 679857271,20.4504861311,15.5283800335\C,0,9.4578535693,20.2855452438,1
 6.4669915057\C,0,9.0132929661,21.6634427587,16.9795800294\C,0,8.288584
 385,19.5645011325,15.7804152787\H,0,12.3973379584,19.1399935001,17.006
 8529299\H,0,10.6511972844,18.4583156459,14.7007025941\H,0,10.345185494
 7,20.9418203128,14.6003582079\H,0,11.4201215622,21.1120160344,15.97646
 06578\H,0,9.7758367442,19.6854312604,17.3312118226\H,0,8.6991828162,22
 .3074856755,16.1485964888\H,0,8.165407677,21.568681833,17.6659983015\H
 ,0,9.8231845525,22.1737644485,17.5128313855\H,0,7.4438879319,19.454729
 7374,16.4681579178\H,0,7.9367663508,20.1342267757,14.9108491467\H,0,8.
 5530786167,18.5582263152,15.4322150256\N,0,12.3817122646,18.9453230534
 ,12.8744214037\C,0,13.4665173415,19.1561256716,11.9089436773\C,0,12.89
 92033964,19.2065002444,10.4891387299\O,0,13.5496712339,18.9066589047,9
 .5091813799\C,0,14.6650730839,18.2003908573,12.0472521227\C,0,14.39286
 95718,16.6872126659,12.0301820066\C,0,13.7433827846,16.1058766378,10.7
 64942678\N,0,12.2772275657,16.2755830383,10.8217109485\C,0,11.46653315
 5,16.3272377553,9.7396638895\N,0,11.9253179835,16.7611702878,8.5493492
 46\N,0,10.2049555547,15.923253204,9.8821628227\O,0,11.628467612,19.621
 5445892,10.3671627518\H,0,11.283015628,19.8389276691,11.2551527874\H,0
 ,11.7943580513,18.1302302694,12.7263302181\H,0,13.8424149719,20.165792
 2033,12.1196983689\H,0,15.155499757,18.4541672468,12.9929978452\H,0,15
 .3665254439,18.4513262919,11.2454262328\H,0,15.3591262308,16.187788193
 8,12.1670465659\H,0,13.7798341355,16.3966520071,12.8955088784\H,0,13.9
 600100192,15.0328991552,10.6965491687\H,0,14.1517346111,16.5869787195,
 9.8775684395\H,0,11.88836591,15.72043053,11.6056641082\H,0,12.67989973
 65,17.4464613428,8.5525664472\H,0,11.255672861,16.8787687408,7.8006657
 064\H,0,9.5192564856,16.1350009214,9.1711741444\H,0,9.869637878,15.640
 3693875,10.8245327847\\Version=ES64L-G16RevC.01\HF=-1447.5137322\RMSD=
 6.200e-09\Dipole=-0.3834201,-1.5723231,-0.5953068\Quadrupole=-233.1586
 626,308.3055845,-75.1469219,681.4597088,534.8383249,783.4157176\PG=C01
  [X(C17H33N6O6)]\\@
 The archive entry for this job was punched.


 THE SECRET OF SUCCESS IN LIFE IS TO EAT WHAT YOU LIKE, AND LET THE FOOD
 FIGHT IT OUT INSIDE YOU. -- FROM A FORTUNE COOKIE
 Job cpu time:       0 days  0 hours  1 minutes 48.7 seconds.
 Elapsed time:       0 days  0 hours  0 minutes 28.4 seconds.
 File lengths (MBytes):  RWF=    248 Int=      0 D2E=      0 Chk=     32 Scr=     16
 Normal termination of Gaussian 16 at Tue May 24 03:33:32 2022.
