 Entering Gaussian System, Link 0=/opt/software/Gaussian/g16-AVX2-C.01/g16/g16
 Input=charge-conf-950.com
 Output=charge-conf-950.log
 Initial command:
 /opt/software/Gaussian/g16-AVX2-C.01/g16/l1.exe "/mnt/gs18/scratch/users/kengmith/Gau-48928.inp" -scrdir="/mnt/gs18/scratch/users/kengmith/"
 Entering Link 1 = /opt/software/Gaussian/g16-AVX2-C.01/g16/l1.exe PID=     48952.
  
 Copyright (c) 1988-2019, Gaussian, Inc.  All Rights Reserved.
  
 This is part of the Gaussian(R) 16 program.  It is based on
 the Gaussian(R) 09 system (copyright 2009, Gaussian, Inc.),
 the Gaussian(R) 03 system (copyright 2003, Gaussian, Inc.),
 the Gaussian(R) 98 system (copyright 1998, Gaussian, Inc.),
 the Gaussian(R) 94 system (copyright 1995, Gaussian, Inc.),
 the Gaussian 92(TM) system (copyright 1992, Gaussian, Inc.),
 the Gaussian 90(TM) system (copyright 1990, Gaussian, Inc.),
 the Gaussian 88(TM) system (copyright 1988, Gaussian, Inc.),
 the Gaussian 86(TM) system (copyright 1986, Carnegie Mellon
 University), and the Gaussian 82(TM) system (copyright 1983,
 Carnegie Mellon University). Gaussian is a federally registered
 trademark of Gaussian, Inc.
  
 This software contains proprietary and confidential information,
 including trade secrets, belonging to Gaussian, Inc.
  
 This software is provided under written license and may be
 used, copied, transmitted, or stored only in accord with that
 written license.
  
 The following legend is applicable only to US Government
 contracts under FAR:
  
                    RESTRICTED RIGHTS LEGEND
  
 Use, reproduction and disclosure by the US Government is
 subject to restrictions as set forth in subparagraphs (a)
 and (c) of the Commercial Computer Software - Restricted
 Rights clause in FAR 52.227-19.
  
 Gaussian, Inc.
 340 Quinnipiac St., Bldg. 40, Wallingford CT 06492
  
  
 ---------------------------------------------------------------
 Warning -- This program may not be used in any manner that
 competes with the business of Gaussian, Inc. or will provide
 assistance to any competitor of Gaussian, Inc.  The licensee
 of this program is prohibited from giving any competitor of
 Gaussian, Inc. access to this program.  By using this program,
 the user acknowledges that Gaussian, Inc. is engaged in the
 business of creating and licensing software in the field of
 computational chemistry and represents and warrants to the
 licensee that it is not a competitor of Gaussian, Inc. and that
 it will not use this program in any manner prohibited above.
 ---------------------------------------------------------------
  

 Cite this work as:
 Gaussian 16, Revision C.01,
 M. J. Frisch, G. W. Trucks, H. B. Schlegel, G. E. Scuseria, 
 M. A. Robb, J. R. Cheeseman, G. Scalmani, V. Barone, 
 G. A. Petersson, H. Nakatsuji, X. Li, M. Caricato, A. V. Marenich, 
 J. Bloino, B. G. Janesko, R. Gomperts, B. Mennucci, H. P. Hratchian, 
 J. V. Ortiz, A. F. Izmaylov, J. L. Sonnenberg, D. Williams-Young, 
 F. Ding, F. Lipparini, F. Egidi, J. Goings, B. Peng, A. Petrone, 
 T. Henderson, D. Ranasinghe, V. G. Zakrzewski, J. Gao, N. Rega, 
 G. Zheng, W. Liang, M. Hada, M. Ehara, K. Toyota, R. Fukuda, 
 J. Hasegawa, M. Ishida, T. Nakajima, Y. Honda, O. Kitao, H. Nakai, 
 T. Vreven, K. Throssell, J. A. Montgomery, Jr., J. E. Peralta, 
 F. Ogliaro, M. J. Bearpark, J. J. Heyd, E. N. Brothers, K. N. Kudin, 
 V. N. Staroverov, T. A. Keith, R. Kobayashi, J. Normand, 
 K. Raghavachari, A. P. Rendell, J. C. Burant, S. S. Iyengar, 
 J. Tomasi, M. Cossi, J. M. Millam, M. Klene, C. Adamo, R. Cammi, 
 J. W. Ochterski, R. L. Martin, K. Morokuma, O. Farkas, 
 J. B. Foresman, and D. J. Fox, Gaussian, Inc., Wallingford CT, 2019.
 
 ******************************************
 Gaussian 16:  ES64L-G16RevC.01  3-Jul-2019
                24-May-2022 
 ******************************************
 %mem=8gb
 %nproc=4
 Will use up to    4 processors via shared memory.
 %chk=conf-950.chk
 ----------------------------------------------------------------------
 # B3LYP/6-31G* empiricaldispersion=gd3 guess=read geom=check nosymm in
 tegral(ultrafinegrid)
 ----------------------------------------------------------------------
 1/29=2,38=1,172=1/1;
 2/12=2,15=1,40=1/2;
 3/5=1,6=6,7=1,11=2,14=-4,25=1,30=1,74=-5,75=-5,116=-2,124=31/1,2,3;
 4/5=1/1;
 5/5=2,38=6/2;
 6/7=2,8=2,9=2,10=2,28=1/1;
 99/5=1,9=1/99;
 ------------------------------------------------------
 Candidate Structure: Conf:950 Charge calc in gas phase
 ------------------------------------------------------
 Structure from the checkpoint file:  "conf-950.chk"
 Charge =  1 Multiplicity = 1
 Redundant internal coordinates found in file.  (old form).
 N,0,7.8180899,17.5913164069,15.2658541913
 C,0,8.7244701763,17.4357413204,14.0615422469
 C,0,8.2777667144,18.572571044,13.1206545493
 O,0,7.2308454509,19.1721538442,13.3919312562
 C,0,8.6059572862,16.0206413055,13.4675826976
 C,0,9.4674790278,14.9978958494,14.2365365746
 C,0,10.8708128095,15.5950623972,14.4098772266
 O,0,11.138238684,16.1090150024,15.5289949527
 O,0,11.6179970989,15.6506948679,13.3809325215
 H,0,7.3618705046,16.7146839489,15.5330112944
 H,0,9.7389671733,17.6204970841,14.416018247
 H,0,8.9330791375,16.0549117446,12.4270089078
 H,0,7.5485138667,15.7260584178,13.4360610467
 H,0,9.047751808,14.7807038897,15.224379497
 H,0,9.5088561227,14.0681810369,13.6625821102
 H,0,8.3156602303,17.9514282928,16.0851079679
 H,0,7.1061692263,18.2996666987,14.9285298243
 N,0,9.0607805579,18.8378789607,12.065383602
 C,0,10.413600552,18.3238913069,11.8045577637
 C,0,11.4533292285,19.2702605039,12.4170573652
 O,0,11.3802583788,20.4795246018,12.2647211545
 C,0,10.6446447591,18.2150734727,10.2849465859
 C,0,9.8646768186,17.0624475316,9.6227459846
 C,0,9.7603005047,17.2893038176,8.1082768622
 C,0,10.514967329,15.7011812615,9.923948495
 H,0,8.7902108911,19.6657792459,11.5417862541
 H,0,10.5191524181,17.3334006318,12.2426318761
 H,0,11.7192682352,18.0733812536,10.1091685739
 H,0,10.389292554,19.1825357883,9.8334495295
 H,0,8.844201135,17.0671540224,10.0356466983
 H,0,10.7573670904,17.3399652176,7.6530504349
 H,0,9.2169552834,16.4694001359,7.626577061
 H,0,9.2369331527,18.2238409461,7.8765323506
 H,0,11.489156548,15.6314535116,9.4226913208
 H,0,10.6903114891,15.5279570734,10.9926497622
 H,0,9.8933403731,14.8828261249,9.544539553
 N,0,12.4906176161,18.6384482024,13.0624380403
 C,0,13.5942361597,19.4295731168,13.6093347862
 C,0,14.922867483,18.6907594902,13.4201205392
 O,0,15.8961656142,18.8825324739,14.1161807253
 C,0,13.4019307778,19.9630621488,15.0420346766
 C,0,13.0736568676,18.963095143,16.1629542806
 C,0,14.0833630003,17.8257512894,16.3871724276
 N,0,13.8436070894,16.7709179881,15.3935091724
 C,0,14.7294284785,15.9472733705,14.8321015619
 N,0,16.0606354238,16.1042510696,15.0080555806
 N,0,14.2612974201,14.917205672,14.105073069
 O,0,14.969948089,17.8075957475,12.4031264781
 H,0,14.096809842,17.7987178524,11.9636765294
 H,0,12.361156681,17.6673366006,13.3583753089
 H,0,13.6564990806,20.3134713801,12.9602870418
 H,0,12.594331526,20.7013929731,14.9917104296
 H,0,14.3169340489,20.5080063783,15.2960278636
 H,0,13.0014460497,19.5347990279,17.0954439981
 H,0,12.0854825989,18.5135486228,16.0025174605
 H,0,13.9526384945,17.3965336364,17.3875868007
 H,0,15.1024656162,18.2060445125,16.3133651156
 H,0,12.8505564206,16.4601553507,15.3850211722
 H,0,16.3887868622,17.0483288303,15.1835152758
 H,0,16.6669705887,15.5972174795,14.3761543118
 H,0,14.9014158218,14.4065629876,13.5136130554
 H,0,13.2841984136,14.9778931859,13.7871302492
 Recover connectivity data from disk.
                           ----------------------------
                           !    Current Parameters    !
                           ! (Angstroms and Degrees)  !
 --------------------------                            --------------------------
 ! Name  Definition              Value                                          !
 --------------------------------------------------------------------------------
 ! R1    R(1,2)                  1.5153                                         !
 ! R2    R(1,10)                 1.0237                                         !
 ! R3    R(1,16)                 1.0239                                         !
 ! R4    R(1,17)                 1.0594                                         !
 ! R5    R(2,3)                  1.5418                                         !
 ! R6    R(2,5)                  1.5393                                         !
 ! R7    R(2,11)                 1.0904                                         !
 ! R8    R(3,4)                  1.2366                                         !
 ! R9    R(3,18)                 1.3406                                         !
 ! R10   R(5,6)                  1.5426                                         !
 ! R11   R(5,12)                 1.0913                                         !
 ! R12   R(5,13)                 1.0982                                         !
 ! R13   R(6,7)                  1.5349                                         !
 ! R14   R(6,14)                 1.0951                                         !
 ! R15   R(6,15)                 1.0934                                         !
 ! R16   R(7,8)                  1.2602                                         !
 ! R17   R(7,9)                  1.2728                                         !
 ! R18   R(18,19)                1.4705                                         !
 ! R19   R(18,26)                1.0163                                         !
 ! R20   R(19,20)                1.5336                                         !
 ! R21   R(19,22)                1.5409                                         !
 ! R22   R(19,27)                1.0882                                         !
 ! R23   R(20,21)                1.221                                          !
 ! R24   R(20,37)                1.3754                                         !
 ! R25   R(22,23)                1.5412                                         !
 ! R26   R(22,28)                1.0981                                         !
 ! R27   R(22,29)                1.0977                                         !
 ! R28   R(23,24)                1.5349                                         !
 ! R29   R(23,25)                1.5384                                         !
 ! R30   R(23,30)                1.1009                                         !
 ! R31   R(24,31)                1.0972                                         !
 ! R32   R(24,32)                1.0952                                         !
 ! R33   R(24,33)                1.0959                                         !
 ! R34   R(25,34)                1.0978                                         !
 ! R35   R(25,35)                1.0968                                         !
 ! R36   R(25,36)                1.0955                                         !
 ! R37   R(37,38)                1.4639                                         !
 ! R38   R(37,50)                1.0234                                         !
 ! R39   R(38,39)                1.532                                          !
 ! R40   R(38,41)                1.5409                                         !
 ! R41   R(38,51)                1.0984                                         !
 ! R42   R(39,40)                1.2119                                         !
 ! R43   R(39,48)                1.3478                                         !
 ! R44   R(41,42)                1.5376                                         !
 ! R45   R(41,52)                1.0954                                         !
 ! R46   R(41,53)                1.0949                                         !
 ! R47   R(42,43)                1.5373                                         !
 ! R48   R(42,54)                1.0962                                         !
 ! R49   R(42,55)                1.0974                                         !
 ! R50   R(43,44)                1.4689                                         !
 ! R51   R(43,56)                1.0964                                         !
 ! R52   R(43,57)                1.0902                                         !
 ! R53   R(44,45)                1.3335                                         !
 ! R54   R(44,58)                1.0406                                         !
 ! R55   R(45,46)                1.3519                                         !
 ! R56   R(45,47)                1.3449                                         !
 ! R57   R(46,59)                1.0148                                         !
 ! R58   R(46,60)                1.0119                                         !
 ! R59   R(47,61)                1.0101                                         !
 ! R60   R(47,62)                1.0293                                         !
 ! R61   R(48,49)                0.9775                                         !
 ! A1    A(2,1,10)             112.7096                                         !
 ! A2    A(2,1,16)             112.4169                                         !
 ! A3    A(2,1,17)             102.5648                                         !
 ! A4    A(10,1,16)            107.9944                                         !
 ! A5    A(10,1,17)            110.8655                                         !
 ! A6    A(16,1,17)            110.2522                                         !
 ! A7    A(1,2,3)              103.6509                                         !
 ! A8    A(1,2,5)              110.7944                                         !
 ! A9    A(1,2,11)             106.3049                                         !
 ! A10   A(3,2,5)              114.839                                          !
 ! A11   A(3,2,11)             110.0601                                         !
 ! A12   A(5,2,11)             110.6613                                         !
 ! A13   A(2,3,4)              117.9646                                         !
 ! A14   A(2,3,18)             117.1986                                         !
 ! A15   A(4,3,18)             124.8367                                         !
 ! A16   A(2,5,6)              111.9735                                         !
 ! A17   A(2,5,12)             108.42                                           !
 ! A18   A(2,5,13)             109.3797                                         !
 ! A19   A(6,5,12)             109.1912                                         !
 ! A20   A(6,5,13)             111.9776                                         !
 ! A21   A(12,5,13)            105.6458                                         !
 ! A22   A(5,6,7)              107.9968                                         !
 ! A23   A(5,6,14)             111.5376                                         !
 ! A24   A(5,6,15)             108.8582                                         !
 ! A25   A(7,6,14)             109.0091                                         !
 ! A26   A(7,6,15)             110.8238                                         !
 ! A27   A(14,6,15)            108.626                                          !
 ! A28   A(6,7,8)              116.9347                                         !
 ! A29   A(6,7,9)              117.5427                                         !
 ! A30   A(8,7,9)              125.1342                                         !
 ! A31   A(3,18,19)            127.4311                                         !
 ! A32   A(3,18,26)            114.2861                                         !
 ! A33   A(19,18,26)           115.9955                                         !
 ! A34   A(18,19,20)           109.7057                                         !
 ! A35   A(18,19,22)           109.7274                                         !
 ! A36   A(18,19,27)           109.6327                                         !
 ! A37   A(20,19,22)           109.621                                          !
 ! A38   A(20,19,27)           109.5821                                         !
 ! A39   A(22,19,27)           108.5533                                         !
 ! A40   A(19,20,21)           121.3837                                         !
 ! A41   A(19,20,37)           114.5353                                         !
 ! A42   A(21,20,37)           123.9612                                         !
 ! A43   A(19,22,23)           113.6186                                         !
 ! A44   A(19,22,28)           108.283                                          !
 ! A45   A(19,22,29)           107.9684                                         !
 ! A46   A(23,22,28)           109.2673                                         !
 ! A47   A(23,22,29)           111.3872                                         !
 ! A48   A(28,22,29)           105.9935                                         !
 ! A49   A(22,23,24)           110.3536                                         !
 ! A50   A(22,23,25)           111.3283                                         !
 ! A51   A(22,23,30)           107.7441                                         !
 ! A52   A(24,23,25)           110.653                                          !
 ! A53   A(24,23,30)           107.8429                                         !
 ! A54   A(25,23,30)           108.7955                                         !
 ! A55   A(23,24,31)           110.7558                                         !
 ! A56   A(23,24,32)           110.9193                                         !
 ! A57   A(23,24,33)           111.5406                                         !
 ! A58   A(31,24,32)           107.6322                                         !
 ! A59   A(31,24,33)           107.8703                                         !
 ! A60   A(32,24,33)           107.9667                                         !
 ! A61   A(23,25,34)           109.9937                                         !
 ! A62   A(23,25,35)           113.4607                                         !
 ! A63   A(23,25,36)           110.692                                          !
 ! A64   A(34,25,35)           107.0386                                         !
 ! A65   A(34,25,36)           107.3354                                         !
 ! A66   A(35,25,36)           108.0721                                         !
 ! A67   A(20,37,38)           119.7109                                         !
 ! A68   A(20,37,50)           118.436                                          !
 ! A69   A(38,37,50)           120.0094                                         !
 ! A70   A(37,38,39)           110.3078                                         !
 ! A71   A(37,38,41)           116.129                                          !
 ! A72   A(37,38,51)           104.8848                                         !
 ! A73   A(39,38,41)           112.958                                          !
 ! A74   A(39,38,51)           105.4234                                         !
 ! A75   A(41,38,51)           106.1345                                         !
 ! A76   A(38,39,40)           123.3184                                         !
 ! A77   A(38,39,48)           116.0729                                         !
 ! A78   A(40,39,48)           120.6008                                         !
 ! A79   A(38,41,42)           118.641                                          !
 ! A80   A(38,41,52)           106.4195                                         !
 ! A81   A(38,41,53)           106.4831                                         !
 ! A82   A(42,41,52)           108.3272                                         !
 ! A83   A(42,41,53)           109.4513                                         !
 ! A84   A(52,41,53)           106.9375                                         !
 ! A85   A(41,42,43)           116.5672                                         !
 ! A86   A(41,42,54)           107.1595                                         !
 ! A87   A(41,42,55)           110.6145                                         !
 ! A88   A(43,42,54)           107.761                                          !
 ! A89   A(43,42,55)           108.0399                                         !
 ! A90   A(54,42,55)           106.1822                                         !
 ! A91   A(42,43,44)           108.9911                                         !
 ! A92   A(42,43,56)           110.1446                                         !
 ! A93   A(42,43,57)           110.2431                                         !
 ! A94   A(44,43,56)           108.4612                                         !
 ! A95   A(44,43,57)           110.9329                                         !
 ! A96   A(56,43,57)           108.0452                                         !
 ! A97   A(43,44,45)           128.3111                                         !
 ! A98   A(43,44,58)           112.0712                                         !
 ! A99   A(45,44,58)           116.4904                                         !
 ! A100  A(44,45,46)           121.8424                                         !
 ! A101  A(44,45,47)           117.9971                                         !
 ! A102  A(46,45,47)           120.1346                                         !
 ! A103  A(45,46,59)           116.6762                                         !
 ! A104  A(45,46,60)           116.7787                                         !
 ! A105  A(59,46,60)           112.3558                                         !
 ! A106  A(45,47,61)           118.8906                                         !
 ! A107  A(45,47,62)           116.8876                                         !
 ! A108  A(61,47,62)           116.7758                                         !
 ! A109  A(39,48,49)           108.2987                                         !
 ! D1    D(10,1,2,3)           129.5192                                         !
 ! D2    D(10,1,2,5)             5.8339                                         !
 ! D3    D(10,1,2,11)         -114.4529                                         !
 ! D4    D(16,1,2,3)          -108.1436                                         !
 ! D5    D(16,1,2,5)           128.1711                                         !
 ! D6    D(16,1,2,11)            7.8843                                         !
 ! D7    D(17,1,2,3)            10.2535                                         !
 ! D8    D(17,1,2,5)          -113.4318                                         !
 ! D9    D(17,1,2,11)          126.2814                                         !
 ! D10   D(1,2,3,4)            -11.4452                                         !
 ! D11   D(1,2,3,18)           168.4583                                         !
 ! D12   D(5,2,3,4)            109.5521                                         !
 ! D13   D(5,2,3,18)           -70.5444                                         !
 ! D14   D(11,2,3,4)          -124.7894                                         !
 ! D15   D(11,2,3,18)           55.1141                                         !
 ! D16   D(1,2,5,6)            -81.5841                                         !
 ! D17   D(1,2,5,12)           157.8856                                         !
 ! D18   D(1,2,5,13)            43.1472                                         !
 ! D19   D(3,2,5,6)            161.4173                                         !
 ! D20   D(3,2,5,12)            40.8871                                         !
 ! D21   D(3,2,5,13)           -73.8513                                         !
 ! D22   D(11,2,5,6)            36.0716                                         !
 ! D23   D(11,2,5,12)          -84.4586                                         !
 ! D24   D(11,2,5,13)          160.8029                                         !
 ! D25   D(2,3,18,19)          -10.7714                                         !
 ! D26   D(2,3,18,26)         -172.7462                                         !
 ! D27   D(4,3,18,19)          169.1248                                         !
 ! D28   D(4,3,18,26)            7.15                                           !
 ! D29   D(2,5,6,7)            -48.2545                                         !
 ! D30   D(2,5,6,14)            71.5072                                         !
 ! D31   D(2,5,6,15)          -168.6485                                         !
 ! D32   D(12,5,6,7)            71.8264                                         !
 ! D33   D(12,5,6,14)         -168.4119                                         !
 ! D34   D(12,5,6,15)          -48.5676                                         !
 ! D35   D(13,5,6,7)          -171.5322                                         !
 ! D36   D(13,5,6,14)          -51.7705                                         !
 ! D37   D(13,5,6,15)           68.0738                                         !
 ! D38   D(5,6,7,8)            100.2479                                         !
 ! D39   D(5,6,7,9)            -72.9705                                         !
 ! D40   D(14,6,7,8)           -21.0962                                         !
 ! D41   D(14,6,7,9)           165.6854                                         !
 ! D42   D(15,6,7,8)          -140.5978                                         !
 ! D43   D(15,6,7,9)            46.1837                                         !
 ! D44   D(3,18,19,20)         -89.9074                                         !
 ! D45   D(3,18,19,22)         149.6045                                         !
 ! D46   D(3,18,19,27)          30.4735                                         !
 ! D47   D(26,18,19,20)         71.8043                                         !
 ! D48   D(26,18,19,22)        -48.6837                                         !
 ! D49   D(26,18,19,27)       -167.8147                                         !
 ! D50   D(18,19,20,21)        -46.3561                                         !
 ! D51   D(18,19,20,37)        137.4727                                         !
 ! D52   D(22,19,20,21)         74.1965                                         !
 ! D53   D(22,19,20,37)       -101.9747                                         !
 ! D54   D(27,19,20,21)       -166.7678                                         !
 ! D55   D(27,19,20,37)         17.0611                                         !
 ! D56   D(18,19,22,23)        -72.2317                                         !
 ! D57   D(18,19,22,28)        166.1833                                         !
 ! D58   D(18,19,22,29)         51.8399                                         !
 ! D59   D(20,19,22,23)        167.2289                                         !
 ! D60   D(20,19,22,28)         45.6439                                         !
 ! D61   D(20,19,22,29)        -68.6995                                         !
 ! D62   D(27,19,22,23)         47.5608                                         !
 ! D63   D(27,19,22,28)        -74.0242                                         !
 ! D64   D(27,19,22,29)        171.6324                                         !
 ! D65   D(19,20,37,38)        175.8445                                         !
 ! D66   D(19,20,37,50)        -19.6062                                         !
 ! D67   D(21,20,37,38)         -0.2144                                         !
 ! D68   D(21,20,37,50)        164.3349                                         !
 ! D69   D(19,22,23,24)        161.1692                                         !
 ! D70   D(19,22,23,25)        -75.5527                                         !
 ! D71   D(19,22,23,30)         43.663                                          !
 ! D72   D(28,22,23,24)        -77.7959                                         !
 ! D73   D(28,22,23,25)         45.4822                                         !
 ! D74   D(28,22,23,30)        164.6978                                         !
 ! D75   D(29,22,23,24)         38.971                                          !
 ! D76   D(29,22,23,25)        162.2491                                         !
 ! D77   D(29,22,23,30)        -78.5353                                         !
 ! D78   D(22,23,24,31)         59.9215                                         !
 ! D79   D(22,23,24,32)        179.3708                                         !
 ! D80   D(22,23,24,33)        -60.2373                                         !
 ! D81   D(25,23,24,31)        -63.7485                                         !
 ! D82   D(25,23,24,32)         55.7008                                         !
 ! D83   D(25,23,24,33)        176.0927                                         !
 ! D84   D(30,23,24,31)        177.3668                                         !
 ! D85   D(30,23,24,32)        -63.1839                                         !
 ! D86   D(30,23,24,33)         57.208                                          !
 ! D87   D(22,23,25,34)        -67.8699                                         !
 ! D88   D(22,23,25,35)         51.9857                                         !
 ! D89   D(22,23,25,36)        173.6817                                         !
 ! D90   D(24,23,25,34)         55.2371                                         !
 ! D91   D(24,23,25,35)        175.0927                                         !
 ! D92   D(24,23,25,36)        -63.2113                                         !
 ! D93   D(30,23,25,34)        173.5432                                         !
 ! D94   D(30,23,25,35)        -66.6012                                         !
 ! D95   D(30,23,25,36)         55.0948                                         !
 ! D96   D(20,37,38,39)       -142.434                                          !
 ! D97   D(20,37,38,41)         87.417                                          !
 ! D98   D(20,37,38,51)        -29.3685                                         !
 ! D99   D(50,37,38,39)         53.2621                                         !
 ! D100  D(50,37,38,41)        -76.8869                                         !
 ! D101  D(50,37,38,51)        166.3276                                         !
 ! D102  D(37,38,39,40)       -155.8251                                         !
 ! D103  D(37,38,39,48)         25.1979                                         !
 ! D104  D(41,38,39,40)        -24.0091                                         !
 ! D105  D(41,38,39,48)        157.014                                          !
 ! D106  D(51,38,39,40)         91.4548                                         !
 ! D107  D(51,38,39,48)        -87.5221                                         !
 ! D108  D(37,38,41,42)         55.0699                                         !
 ! D109  D(37,38,41,52)        -67.2372                                         !
 ! D110  D(37,38,41,53)        178.9389                                         !
 ! D111  D(39,38,41,42)        -73.8044                                         !
 ! D112  D(39,38,41,52)        163.8885                                         !
 ! D113  D(39,38,41,53)         50.0646                                         !
 ! D114  D(51,38,41,42)        171.1579                                         !
 ! D115  D(51,38,41,52)         48.8507                                         !
 ! D116  D(51,38,41,53)        -64.9732                                         !
 ! D117  D(38,39,48,49)         -0.7221                                         !
 ! D118  D(40,39,48,49)       -179.7289                                         !
 ! D119  D(38,41,42,43)         57.9215                                         !
 ! D120  D(38,41,42,54)        178.6754                                         !
 ! D121  D(38,41,42,55)        -65.9977                                         !
 ! D122  D(52,41,42,43)        179.267                                          !
 ! D123  D(52,41,42,54)        -59.9791                                         !
 ! D124  D(52,41,42,55)         55.3477                                         !
 ! D125  D(53,41,42,43)        -64.4724                                         !
 ! D126  D(53,41,42,54)         56.2815                                         !
 ! D127  D(53,41,42,55)        171.6084                                         !
 ! D128  D(41,42,43,44)        -80.6895                                         !
 ! D129  D(41,42,43,56)        160.4317                                         !
 ! D130  D(41,42,43,57)         41.2911                                         !
 ! D131  D(54,42,43,44)        158.8766                                         !
 ! D132  D(54,42,43,56)         39.9978                                         !
 ! D133  D(54,42,43,57)        -79.1428                                         !
 ! D134  D(55,42,43,44)         44.5402                                         !
 ! D135  D(55,42,43,56)        -74.3386                                         !
 ! D136  D(55,42,43,57)        166.5208                                         !
 ! D137  D(42,43,44,45)        148.132                                          !
 ! D138  D(42,43,44,58)        -52.8385                                         !
 ! D139  D(56,43,44,45)        -91.9429                                         !
 ! D140  D(56,43,44,58)         67.0866                                         !
 ! D141  D(57,43,44,45)         26.5697                                         !
 ! D142  D(57,43,44,58)       -174.4007                                         !
 ! D143  D(43,44,45,46)         -8.5135                                         !
 ! D144  D(43,44,45,47)        169.6363                                         !
 ! D145  D(58,44,45,46)       -166.7629                                         !
 ! D146  D(58,44,45,47)         11.3869                                         !
 ! D147  D(44,45,46,59)        -28.1222                                         !
 ! D148  D(44,45,46,60)       -165.0388                                         !
 ! D149  D(47,45,46,59)        153.7668                                         !
 ! D150  D(47,45,46,60)         16.8501                                         !
 ! D151  D(44,45,47,61)        166.884                                          !
 ! D152  D(44,45,47,62)         17.9353                                         !
 ! D153  D(46,45,47,61)        -14.9334                                         !
 ! D154  D(46,45,47,62)       -163.8821                                         !
 --------------------------------------------------------------------------------
 Symmetry turned off by external request.
 Stoichiometry    C17H33N6O6(1+)
 Framework group  C1[X(C17H33N6O6)]
 Deg. of freedom   180
 Full point group                 C1      NOp   1
                          Input orientation:                          
 ---------------------------------------------------------------------
 Center     Atomic      Atomic             Coordinates (Angstroms)
 Number     Number       Type             X           Y           Z
 ---------------------------------------------------------------------
      1          7           0        7.818090   17.591316   15.265854
      2          6           0        8.724470   17.435741   14.061542
      3          6           0        8.277767   18.572571   13.120655
      4          8           0        7.230845   19.172154   13.391931
      5          6           0        8.605957   16.020641   13.467583
      6          6           0        9.467479   14.997896   14.236537
      7          6           0       10.870813   15.595062   14.409877
      8          8           0       11.138239   16.109015   15.528995
      9          8           0       11.617997   15.650695   13.380933
     10          1           0        7.361871   16.714684   15.533011
     11          1           0        9.738967   17.620497   14.416018
     12          1           0        8.933079   16.054912   12.427009
     13          1           0        7.548514   15.726058   13.436061
     14          1           0        9.047752   14.780704   15.224379
     15          1           0        9.508856   14.068181   13.662582
     16          1           0        8.315660   17.951428   16.085108
     17          1           0        7.106169   18.299667   14.928530
     18          7           0        9.060781   18.837879   12.065384
     19          6           0       10.413601   18.323891   11.804558
     20          6           0       11.453329   19.270261   12.417057
     21          8           0       11.380258   20.479525   12.264721
     22          6           0       10.644645   18.215073   10.284947
     23          6           0        9.864677   17.062448    9.622746
     24          6           0        9.760301   17.289304    8.108277
     25          6           0       10.514967   15.701181    9.923948
     26          1           0        8.790211   19.665779   11.541786
     27          1           0       10.519152   17.333401   12.242632
     28          1           0       11.719268   18.073381   10.109169
     29          1           0       10.389293   19.182536    9.833450
     30          1           0        8.844201   17.067154   10.035647
     31          1           0       10.757367   17.339965    7.653050
     32          1           0        9.216955   16.469400    7.626577
     33          1           0        9.236933   18.223841    7.876532
     34          1           0       11.489157   15.631454    9.422691
     35          1           0       10.690311   15.527957   10.992650
     36          1           0        9.893340   14.882826    9.544540
     37          7           0       12.490618   18.638448   13.062438
     38          6           0       13.594236   19.429573   13.609335
     39          6           0       14.922867   18.690759   13.420121
     40          8           0       15.896166   18.882532   14.116181
     41          6           0       13.401931   19.963062   15.042035
     42          6           0       13.073657   18.963095   16.162954
     43          6           0       14.083363   17.825751   16.387172
     44          7           0       13.843607   16.770918   15.393509
     45          6           0       14.729428   15.947273   14.832102
     46          7           0       16.060635   16.104251   15.008056
     47          7           0       14.261297   14.917206   14.105073
     48          8           0       14.969948   17.807596   12.403126
     49          1           0       14.096810   17.798718   11.963677
     50          1           0       12.361157   17.667337   13.358375
     51          1           0       13.656499   20.313471   12.960287
     52          1           0       12.594332   20.701393   14.991710
     53          1           0       14.316934   20.508006   15.296028
     54          1           0       13.001446   19.534799   17.095444
     55          1           0       12.085483   18.513549   16.002517
     56          1           0       13.952638   17.396534   17.387587
     57          1           0       15.102466   18.206045   16.313365
     58          1           0       12.850556   16.460155   15.385021
     59          1           0       16.388787   17.048329   15.183515
     60          1           0       16.666971   15.597217   14.376154
     61          1           0       14.901416   14.406563   13.513613
     62          1           0       13.284198   14.977893   13.787130
 ---------------------------------------------------------------------
 Rotational constants (GHZ):           0.2173012           0.1247976           0.1154591
 Standard basis: 6-31G(d) (6D, 7F)
   501 basis functions,   944 primitive gaussians,   501 cartesian basis functions
   112 alpha electrons      112 beta electrons
       nuclear repulsion energy      3322.5301809771 Hartrees.
 NAtoms=   62 NActive=   62 NUniq=   62 SFac= 1.00D+00 NAtFMM=   60 NAOKFM=T Big=T
 Integral buffers will be    131072 words long.
 Raffenetti 2 integral format.
 Two-electron integral symmetry is turned off.
 Nuclear repulsion after empirical dispersion term =     3322.4374609535 Hartrees.
 One-electron integrals computed using PRISM.
 NBasis=   501 RedAO= T EigKep=  1.74D-03  NBF=   501
 NBsUse=   501 1.00D-06 EigRej= -1.00D+00 NBFU=   501
 Initial guess from the checkpoint file:  "conf-950.chk"
 B after Tr=     0.000000    0.000000    0.000000
         Rot=    1.000000    0.000000    0.000000    0.000000 Ang=   0.00 deg.
 Requested convergence on RMS density matrix=1.00D-08 within 128 cycles.
 Requested convergence on MAX density matrix=1.00D-06.
 Requested convergence on             energy=1.00D-06.
 No special actions if energy rises.
 SCF Done:  E(RB3LYP) =  -1447.51160217     A.U. after    3 cycles
            NFock=  3  Conv=0.91D-09     -V/T= 2.0093

 **********************************************************************

            Population analysis using the SCF Density.

 **********************************************************************

 Alpha  occ. eigenvalues --  -19.30466 -19.26948 -19.24568 -19.23352 -19.21948
 Alpha  occ. eigenvalues --  -19.21914 -14.60217 -14.50071 -14.48333 -14.47967
 Alpha  occ. eigenvalues --  -14.47680 -14.47571 -10.44674 -10.43891 -10.43040
 Alpha  occ. eigenvalues --  -10.40360 -10.40283 -10.39728 -10.35451 -10.34859
 Alpha  occ. eigenvalues --  -10.34130 -10.33391 -10.30791 -10.29710 -10.29509
 Alpha  occ. eigenvalues --  -10.29223 -10.28752 -10.26227 -10.25795  -1.21288
 Alpha  occ. eigenvalues --   -1.19413  -1.15418  -1.15255  -1.14059  -1.13190
 Alpha  occ. eigenvalues --   -1.12810  -1.06661  -1.05983  -1.04117  -1.02504
 Alpha  occ. eigenvalues --   -1.01259  -0.94357  -0.91960  -0.90396  -0.86988
 Alpha  occ. eigenvalues --   -0.86182  -0.84513  -0.79518  -0.77489  -0.77114
 Alpha  occ. eigenvalues --   -0.75862  -0.74643  -0.74081  -0.73683  -0.72669
 Alpha  occ. eigenvalues --   -0.72398  -0.71265  -0.70032  -0.69027  -0.67836
 Alpha  occ. eigenvalues --   -0.66727  -0.65770  -0.64831  -0.62711  -0.62382
 Alpha  occ. eigenvalues --   -0.61253  -0.60748  -0.60226  -0.60073  -0.59618
 Alpha  occ. eigenvalues --   -0.58122  -0.57860  -0.56807  -0.56485  -0.56335
 Alpha  occ. eigenvalues --   -0.56136  -0.55762  -0.54516  -0.54247  -0.53967
 Alpha  occ. eigenvalues --   -0.53413  -0.52716  -0.52170  -0.51775  -0.51638
 Alpha  occ. eigenvalues --   -0.50885  -0.50477  -0.50419  -0.49670  -0.49384
 Alpha  occ. eigenvalues --   -0.48807  -0.48204  -0.47574  -0.46967  -0.45740
 Alpha  occ. eigenvalues --   -0.45644  -0.45137  -0.44572  -0.42767  -0.42433
 Alpha  occ. eigenvalues --   -0.42201  -0.42060  -0.41331  -0.40162  -0.39819
 Alpha  occ. eigenvalues --   -0.39077  -0.38068  -0.37607  -0.37034  -0.36460
 Alpha  occ. eigenvalues --   -0.36097  -0.35604
 Alpha virt. eigenvalues --   -0.12648  -0.11093  -0.10412  -0.10025  -0.09513
 Alpha virt. eigenvalues --   -0.08637  -0.06301  -0.04928  -0.04206  -0.03563
 Alpha virt. eigenvalues --   -0.02568  -0.01379  -0.00617  -0.00078   0.00344
 Alpha virt. eigenvalues --    0.00973   0.01778   0.02193   0.02409   0.03559
 Alpha virt. eigenvalues --    0.04038   0.04445   0.04791   0.04986   0.05621
 Alpha virt. eigenvalues --    0.06119   0.06255   0.06563   0.06869   0.07055
 Alpha virt. eigenvalues --    0.07689   0.07973   0.08220   0.08643   0.08930
 Alpha virt. eigenvalues --    0.09429   0.10015   0.10270   0.10888   0.11022
 Alpha virt. eigenvalues --    0.11316   0.11776   0.11974   0.12690   0.12877
 Alpha virt. eigenvalues --    0.13630   0.14011   0.14572   0.15496   0.15781
 Alpha virt. eigenvalues --    0.16201   0.16521   0.17632   0.18261   0.18871
 Alpha virt. eigenvalues --    0.19391   0.21976   0.22928   0.24299   0.25985
 Alpha virt. eigenvalues --    0.27710   0.28261   0.29528   0.30014   0.30804
 Alpha virt. eigenvalues --    0.32612   0.36015   0.36542   0.37104   0.38736
 Alpha virt. eigenvalues --    0.39901   0.40060   0.40836   0.41355   0.42427
 Alpha virt. eigenvalues --    0.42737   0.42880   0.44116   0.44432   0.44679
 Alpha virt. eigenvalues --    0.45128   0.46088   0.46829   0.47591   0.47684
 Alpha virt. eigenvalues --    0.48344   0.49138   0.49658   0.50557   0.51483
 Alpha virt. eigenvalues --    0.52063   0.52765   0.53055   0.53298   0.53664
 Alpha virt. eigenvalues --    0.54156   0.54640   0.55651   0.55922   0.56388
 Alpha virt. eigenvalues --    0.56971   0.57023   0.57956   0.58197   0.59878
 Alpha virt. eigenvalues --    0.60559   0.60600   0.61844   0.62124   0.62298
 Alpha virt. eigenvalues --    0.62887   0.63767   0.64420   0.65703   0.65827
 Alpha virt. eigenvalues --    0.67093   0.67144   0.67699   0.67932   0.69075
 Alpha virt. eigenvalues --    0.69391   0.70225   0.70650   0.71586   0.72148
 Alpha virt. eigenvalues --    0.72652   0.73418   0.73480   0.74221   0.74395
 Alpha virt. eigenvalues --    0.74677   0.75369   0.75810   0.76490   0.77166
 Alpha virt. eigenvalues --    0.77492   0.77862   0.78865   0.79238   0.79855
 Alpha virt. eigenvalues --    0.80258   0.80787   0.81377   0.81920   0.82537
 Alpha virt. eigenvalues --    0.82615   0.82934   0.83228   0.84077   0.84366
 Alpha virt. eigenvalues --    0.84865   0.85277   0.85766   0.86237   0.86648
 Alpha virt. eigenvalues --    0.88262   0.88357   0.89208   0.89573   0.90616
 Alpha virt. eigenvalues --    0.90766   0.91490   0.92841   0.93784   0.94208
 Alpha virt. eigenvalues --    0.94808   0.95554   0.95908   0.97043   0.97515
 Alpha virt. eigenvalues --    0.98502   0.98830   0.99211   1.00848   1.01641
 Alpha virt. eigenvalues --    1.03297   1.03960   1.04357   1.06278   1.06631
 Alpha virt. eigenvalues --    1.06949   1.08460   1.09312   1.10454   1.12382
 Alpha virt. eigenvalues --    1.12490   1.15453   1.15613   1.16510   1.17094
 Alpha virt. eigenvalues --    1.18065   1.19046   1.20542   1.21700   1.22655
 Alpha virt. eigenvalues --    1.23345   1.26131   1.26363   1.27473   1.27993
 Alpha virt. eigenvalues --    1.28579   1.30393   1.32340   1.34483   1.36066
 Alpha virt. eigenvalues --    1.36076   1.36350   1.37334   1.39263   1.40927
 Alpha virt. eigenvalues --    1.41056   1.43084   1.44125   1.45112   1.46250
 Alpha virt. eigenvalues --    1.46724   1.47766   1.49503   1.50217   1.51500
 Alpha virt. eigenvalues --    1.52712   1.54400   1.55990   1.57120   1.57597
 Alpha virt. eigenvalues --    1.58192   1.58563   1.60069   1.60760   1.62476
 Alpha virt. eigenvalues --    1.63526   1.64693   1.64774   1.65325   1.66686
 Alpha virt. eigenvalues --    1.67610   1.68070   1.68515   1.69404   1.70043
 Alpha virt. eigenvalues --    1.70144   1.70510   1.70983   1.71332   1.72518
 Alpha virt. eigenvalues --    1.73277   1.73810   1.74206   1.75543   1.76089
 Alpha virt. eigenvalues --    1.76796   1.78064   1.78218   1.78505   1.79888
 Alpha virt. eigenvalues --    1.80086   1.80983   1.81603   1.82173   1.83042
 Alpha virt. eigenvalues --    1.83328   1.84605   1.85195   1.85431   1.86741
 Alpha virt. eigenvalues --    1.87603   1.88247   1.88595   1.89519   1.90421
 Alpha virt. eigenvalues --    1.90929   1.92018   1.92428   1.93152   1.93850
 Alpha virt. eigenvalues --    1.94379   1.95406   1.96355   1.96946   1.98490
 Alpha virt. eigenvalues --    1.99616   2.01031   2.01214   2.01966   2.03910
 Alpha virt. eigenvalues --    2.05447   2.05900   2.06624   2.07667   2.09019
 Alpha virt. eigenvalues --    2.10038   2.10423   2.12072   2.14100   2.14656
 Alpha virt. eigenvalues --    2.15742   2.16329   2.16748   2.17503   2.18427
 Alpha virt. eigenvalues --    2.19699   2.20317   2.21603   2.22529   2.23218
 Alpha virt. eigenvalues --    2.25007   2.25334   2.26501   2.28488   2.28989
 Alpha virt. eigenvalues --    2.31235   2.32213   2.32719   2.34397   2.36763
 Alpha virt. eigenvalues --    2.37700   2.37944   2.38999   2.40916   2.41345
 Alpha virt. eigenvalues --    2.42749   2.43082   2.43857   2.45546   2.47334
 Alpha virt. eigenvalues --    2.48291   2.50196   2.50835   2.51997   2.52100
 Alpha virt. eigenvalues --    2.53920   2.54525   2.55287   2.56466   2.58564
 Alpha virt. eigenvalues --    2.59606   2.60185   2.60929   2.62385   2.63849
 Alpha virt. eigenvalues --    2.65270   2.65896   2.68731   2.69126   2.69366
 Alpha virt. eigenvalues --    2.75650   2.77490   2.81269   2.84061   2.85376
 Alpha virt. eigenvalues --    2.88193   2.88864   2.89568   2.91605   2.92463
 Alpha virt. eigenvalues --    3.00683   3.00915   3.01476   3.03695   3.06095
 Alpha virt. eigenvalues --    3.63599   3.71989   3.78797   3.83165   3.86913
 Alpha virt. eigenvalues --    3.87892   3.95364   3.99372   4.04543   4.07266
 Alpha virt. eigenvalues --    4.08173   4.10291   4.15717   4.18020   4.20014
 Alpha virt. eigenvalues --    4.21689   4.22495   4.23254   4.24905   4.27616
 Alpha virt. eigenvalues --    4.36773   4.38622   4.39821   4.45628   4.48831
 Alpha virt. eigenvalues --    4.50997   4.53298   4.55691   4.74027
          Condensed to atoms (all electrons):
 Mulliken charges:
               1
     1  N   -0.755856
     2  C   -0.114397
     3  C    0.634899
     4  O   -0.518211
     5  C   -0.335695
     6  C   -0.316728
     7  C    0.570070
     8  O   -0.575833
     9  O   -0.595830
    10  H    0.415424
    11  H    0.235661
    12  H    0.219080
    13  H    0.175025
    14  H    0.152855
    15  H    0.190280
    16  H    0.422198
    17  H    0.432169
    18  N   -0.568088
    19  C   -0.134415
    20  C    0.624208
    21  O   -0.497234
    22  C   -0.267415
    23  C   -0.081721
    24  C   -0.447900
    25  C   -0.482022
    26  H    0.372014
    27  H    0.190796
    28  H    0.148999
    29  H    0.166729
    30  H    0.128423
    31  H    0.153505
    32  H    0.161515
    33  H    0.152716
    34  H    0.149444
    35  H    0.165483
    36  H    0.158722
    37  N   -0.702958
    38  C   -0.066719
    39  C    0.633397
    40  O   -0.488138
    41  C   -0.273187
    42  C   -0.299352
    43  C   -0.149895
    44  N   -0.657121
    45  C    0.741315
    46  N   -0.728901
    47  N   -0.780258
    48  O   -0.576414
    49  H    0.427958
    50  H    0.379335
    51  H    0.228380
    52  H    0.170127
    53  H    0.184233
    54  H    0.169187
    55  H    0.148843
    56  H    0.184825
    57  H    0.188051
    58  H    0.418287
    59  H    0.392169
    60  H    0.360650
    61  H    0.354902
    62  H    0.412418
 Sum of Mulliken charges =   1.00000
 Mulliken charges with hydrogens summed into heavy atoms:
               1
     1  N    0.513934
     2  C    0.121264
     3  C    0.634899
     4  O   -0.518211
     5  C    0.058409
     6  C    0.026406
     7  C    0.570070
     8  O   -0.575833
     9  O   -0.595830
    18  N   -0.196074
    19  C    0.056381
    20  C    0.624208
    21  O   -0.497234
    22  C    0.048312
    23  C    0.046701
    24  C    0.019836
    25  C   -0.008373
    37  N   -0.323623
    38  C    0.161661
    39  C    0.633397
    40  O   -0.488138
    41  C    0.081173
    42  C    0.018678
    43  C    0.222980
    44  N   -0.238835
    45  C    0.741315
    46  N    0.023919
    47  N   -0.012939
    48  O   -0.148456
 Electronic spatial extent (au):  <R**2>=         508275.6725
 Charge=              1.0000 electrons
 Dipole moment (field-independent basis, Debye):
    X=             51.7138    Y=             80.3073    Z=             68.4048  Tot=            117.4853
 Quadrupole moment (field-independent basis, Debye-Ang):
   XX=            443.3438   YY=           1173.6230   ZZ=            829.6309
   XY=            857.3468   XZ=            730.1245   YZ=           1152.5302
 Traceless Quadrupole moment (field-independent basis, Debye-Ang):
   XX=           -372.1888   YY=            358.0905   ZZ=             14.0983
   XY=            857.3468   XZ=            730.1245   YZ=           1152.5302
 Octapole moment (field-independent basis, Debye-Ang**2):
  XXX=           2004.6385  YYY=          13492.9162  ZZZ=           8116.5037  XYY=          12271.4389
  XXY=           7031.9507  XXZ=           6386.5449  XZZ=           8587.2624  YZZ=          14016.5001
  YYZ=          17184.1554  XYZ=          12213.7347
 Hexadecapole moment (field-independent basis, Debye-Ang**3):
 XXXX=         -34808.5752 YYYY=          56410.2605 ZZZZ=          40444.3314 XXXY=          22954.7448
 XXXZ=          32512.7830 YYYX=         132683.9193 YYYZ=         208895.5468 ZZZX=          76071.4414
 ZZZY=         136959.0003 XXYY=          87263.6954 XXZZ=          69677.1909 YYZZ=         206031.3461
 XXYZ=         102989.0443 YYXZ=         178371.4166 ZZXY=         143945.7675
 N-N= 3.322437460954D+03 E-N=-9.993571386910D+03  KE= 1.434128666341D+03
 Unable to Open any file for archive entry.
 1\1\GINC-VIM-000\SP\RB3LYP\6-31G(d)\C17H33N6O6(1+)\KENGMITH\24-May-202
 2\0\\# B3LYP/6-31G* empiricaldispersion=gd3 guess=read geom=check nosy
 mm integral(ultrafinegrid)\\Candidate Structure: Conf:950 Charge calc 
 in gas phase\\1,1\N,0,7.8180899,17.5913164069,15.2658541913\C,0,8.7244
 701763,17.4357413204,14.0615422469\C,0,8.2777667144,18.572571044,13.12
 06545493\O,0,7.2308454509,19.1721538442,13.3919312562\C,0,8.6059572862
 ,16.0206413055,13.4675826976\C,0,9.4674790278,14.9978958494,14.2365365
 746\C,0,10.8708128095,15.5950623972,14.4098772266\O,0,11.138238684,16.
 1090150024,15.5289949527\O,0,11.6179970989,15.6506948679,13.3809325215
 \H,0,7.3618705046,16.7146839489,15.5330112944\H,0,9.7389671733,17.6204
 970841,14.416018247\H,0,8.9330791375,16.0549117446,12.4270089078\H,0,7
 .5485138667,15.7260584178,13.4360610467\H,0,9.047751808,14.7807038897,
 15.224379497\H,0,9.5088561227,14.0681810369,13.6625821102\H,0,8.315660
 2303,17.9514282928,16.0851079679\H,0,7.1061692263,18.2996666987,14.928
 5298243\N,0,9.0607805579,18.8378789607,12.065383602\C,0,10.413600552,1
 8.3238913069,11.8045577637\C,0,11.4533292285,19.2702605039,12.41705736
 52\O,0,11.3802583788,20.4795246018,12.2647211545\C,0,10.6446447591,18.
 2150734727,10.2849465859\C,0,9.8646768186,17.0624475316,9.6227459846\C
 ,0,9.7603005047,17.2893038176,8.1082768622\C,0,10.514967329,15.7011812
 615,9.923948495\H,0,8.7902108911,19.6657792459,11.5417862541\H,0,10.51
 91524181,17.3334006318,12.2426318761\H,0,11.7192682352,18.0733812536,1
 0.1091685739\H,0,10.389292554,19.1825357883,9.8334495295\H,0,8.8442011
 35,17.0671540224,10.0356466983\H,0,10.7573670904,17.3399652176,7.65305
 04349\H,0,9.2169552834,16.4694001359,7.626577061\H,0,9.2369331527,18.2
 238409461,7.8765323506\H,0,11.489156548,15.6314535116,9.4226913208\H,0
 ,10.6903114891,15.5279570734,10.9926497622\H,0,9.8933403731,14.8828261
 249,9.544539553\N,0,12.4906176161,18.6384482024,13.0624380403\C,0,13.5
 942361597,19.4295731168,13.6093347862\C,0,14.922867483,18.6907594902,1
 3.4201205392\O,0,15.8961656142,18.8825324739,14.1161807253\C,0,13.4019
 307778,19.9630621488,15.0420346766\C,0,13.0736568676,18.963095143,16.1
 629542806\C,0,14.0833630003,17.8257512894,16.3871724276\N,0,13.8436070
 894,16.7709179881,15.3935091724\C,0,14.7294284785,15.9472733705,14.832
 1015619\N,0,16.0606354238,16.1042510696,15.0080555806\N,0,14.261297420
 1,14.917205672,14.105073069\O,0,14.969948089,17.8075957475,12.40312647
 81\H,0,14.096809842,17.7987178524,11.9636765294\H,0,12.361156681,17.66
 73366006,13.3583753089\H,0,13.6564990806,20.3134713801,12.9602870418\H
 ,0,12.594331526,20.7013929731,14.9917104296\H,0,14.3169340489,20.50800
 63783,15.2960278636\H,0,13.0014460497,19.5347990279,17.0954439981\H,0,
 12.0854825989,18.5135486228,16.0025174605\H,0,13.9526384945,17.3965336
 364,17.3875868007\H,0,15.1024656162,18.2060445125,16.3133651156\H,0,12
 .8505564206,16.4601553507,15.3850211722\H,0,16.3887868622,17.048328830
 3,15.1835152758\H,0,16.6669705887,15.5972174795,14.3761543118\H,0,14.9
 014158218,14.4065629876,13.5136130554\H,0,13.2841984136,14.9778931859,
 13.7871302492\\Version=ES64L-G16RevC.01\HF=-1447.5116022\RMSD=9.105e-1
 0\Dipole=-1.6708031,-1.5831984,1.7273995\Quadrupole=-276.7132339,266.2
 314921,10.4817418,637.4163108,542.8296962,856.8779599\PG=C01 [X(C17H33
 N6O6)]\\@
 The archive entry for this job was punched.


 IN THE FIGHT BETWEEN YOU AND THE WORLD, BACK THE WORLD

                                        -- FRANZ KAFKA
 Job cpu time:       0 days  0 hours  3 minutes 55.5 seconds.
 Elapsed time:       0 days  0 hours  0 minutes 59.4 seconds.
 File lengths (MBytes):  RWF=    248 Int=      0 D2E=      0 Chk=     32 Scr=     16
 Normal termination of Gaussian 16 at Tue May 24 03:34:38 2022.
