 Entering Gaussian System, Link 0=/opt/software/Gaussian/g16-AVX2-C.01/g16/g16
 Input=charge-conf-966.com
 Output=charge-conf-966.log
 Initial command:
 /opt/software/Gaussian/g16-AVX2-C.01/g16/l1.exe "/mnt/gs18/scratch/users/kengmith/Gau-48951.inp" -scrdir="/mnt/gs18/scratch/users/kengmith/"
 Entering Link 1 = /opt/software/Gaussian/g16-AVX2-C.01/g16/l1.exe PID=     48973.
  
 Copyright (c) 1988-2019, Gaussian, Inc.  All Rights Reserved.
  
 This is part of the Gaussian(R) 16 program.  It is based on
 the Gaussian(R) 09 system (copyright 2009, Gaussian, Inc.),
 the Gaussian(R) 03 system (copyright 2003, Gaussian, Inc.),
 the Gaussian(R) 98 system (copyright 1998, Gaussian, Inc.),
 the Gaussian(R) 94 system (copyright 1995, Gaussian, Inc.),
 the Gaussian 92(TM) system (copyright 1992, Gaussian, Inc.),
 the Gaussian 90(TM) system (copyright 1990, Gaussian, Inc.),
 the Gaussian 88(TM) system (copyright 1988, Gaussian, Inc.),
 the Gaussian 86(TM) system (copyright 1986, Carnegie Mellon
 University), and the Gaussian 82(TM) system (copyright 1983,
 Carnegie Mellon University). Gaussian is a federally registered
 trademark of Gaussian, Inc.
  
 This software contains proprietary and confidential information,
 including trade secrets, belonging to Gaussian, Inc.
  
 This software is provided under written license and may be
 used, copied, transmitted, or stored only in accord with that
 written license.
  
 The following legend is applicable only to US Government
 contracts under FAR:
  
                    RESTRICTED RIGHTS LEGEND
  
 Use, reproduction and disclosure by the US Government is
 subject to restrictions as set forth in subparagraphs (a)
 and (c) of the Commercial Computer Software - Restricted
 Rights clause in FAR 52.227-19.
  
 Gaussian, Inc.
 340 Quinnipiac St., Bldg. 40, Wallingford CT 06492
  
  
 ---------------------------------------------------------------
 Warning -- This program may not be used in any manner that
 competes with the business of Gaussian, Inc. or will provide
 assistance to any competitor of Gaussian, Inc.  The licensee
 of this program is prohibited from giving any competitor of
 Gaussian, Inc. access to this program.  By using this program,
 the user acknowledges that Gaussian, Inc. is engaged in the
 business of creating and licensing software in the field of
 computational chemistry and represents and warrants to the
 licensee that it is not a competitor of Gaussian, Inc. and that
 it will not use this program in any manner prohibited above.
 ---------------------------------------------------------------
  

 Cite this work as:
 Gaussian 16, Revision C.01,
 M. J. Frisch, G. W. Trucks, H. B. Schlegel, G. E. Scuseria, 
 M. A. Robb, J. R. Cheeseman, G. Scalmani, V. Barone, 
 G. A. Petersson, H. Nakatsuji, X. Li, M. Caricato, A. V. Marenich, 
 J. Bloino, B. G. Janesko, R. Gomperts, B. Mennucci, H. P. Hratchian, 
 J. V. Ortiz, A. F. Izmaylov, J. L. Sonnenberg, D. Williams-Young, 
 F. Ding, F. Lipparini, F. Egidi, J. Goings, B. Peng, A. Petrone, 
 T. Henderson, D. Ranasinghe, V. G. Zakrzewski, J. Gao, N. Rega, 
 G. Zheng, W. Liang, M. Hada, M. Ehara, K. Toyota, R. Fukuda, 
 J. Hasegawa, M. Ishida, T. Nakajima, Y. Honda, O. Kitao, H. Nakai, 
 T. Vreven, K. Throssell, J. A. Montgomery, Jr., J. E. Peralta, 
 F. Ogliaro, M. J. Bearpark, J. J. Heyd, E. N. Brothers, K. N. Kudin, 
 V. N. Staroverov, T. A. Keith, R. Kobayashi, J. Normand, 
 K. Raghavachari, A. P. Rendell, J. C. Burant, S. S. Iyengar, 
 J. Tomasi, M. Cossi, J. M. Millam, M. Klene, C. Adamo, R. Cammi, 
 J. W. Ochterski, R. L. Martin, K. Morokuma, O. Farkas, 
 J. B. Foresman, and D. J. Fox, Gaussian, Inc., Wallingford CT, 2019.
 
 ******************************************
 Gaussian 16:  ES64L-G16RevC.01  3-Jul-2019
                24-May-2022 
 ******************************************
 %mem=8gb
 %nproc=4
 Will use up to    4 processors via shared memory.
 %chk=conf-966.chk
 ----------------------------------------------------------------------
 # B3LYP/6-31G* empiricaldispersion=gd3 guess=read geom=check nosymm in
 tegral(ultrafinegrid)
 ----------------------------------------------------------------------
 1/29=2,38=1,172=1/1;
 2/12=2,15=1,40=1/2;
 3/5=1,6=6,7=1,11=2,14=-4,25=1,30=1,74=-5,75=-5,116=-2,124=31/1,2,3;
 4/5=1/1;
 5/5=2,38=6/2;
 6/7=2,8=2,9=2,10=2,28=1/1;
 99/5=1,9=1/99;
 ------------------------------------------------------
 Candidate Structure: Conf:966 Charge calc in gas phase
 ------------------------------------------------------
 Structure from the checkpoint file:  "conf-966.chk"
 Charge =  1 Multiplicity = 1
 Redundant internal coordinates found in file.  (old form).
 N,0,10.8859491333,14.6039393847,10.5400507229
 C,0,11.3055084746,15.9861404761,10.9980695575
 C,0,10.3363830794,16.9256786698,10.2527635821
 O,0,9.6437158803,16.4450065825,9.348115926
 C,0,12.7964859301,16.2299922175,10.7033011925
 C,0,13.7071333513,15.6068734284,11.7810492988
 C,0,13.1671097957,16.0223278917,13.1565281818
 O,0,12.4756833158,15.1725430864,13.779138502
 O,0,13.3393752178,17.231354665,13.5154577984
 H,0,11.67442256,14.0405667983,10.2100227923
 H,0,11.113829064,16.0248641859,12.0708073699
 H,0,12.9692251151,17.3069365118,10.6667058587
 H,0,13.0347840364,15.85736751,9.6981477155
 H,0,13.7163574267,14.5137096403,11.7167431685
 H,0,14.7270415403,15.9737613913,11.6371243065
 H,0,10.4067302675,14.0772417276,11.2758232336
 H,0,10.2161905907,14.8175965528,9.7474128952
 N,0,10.3081713214,18.2089103051,10.6391966779
 C,0,10.9329231713,18.7969421389,11.8334055616
 C,0,9.9480695971,18.7501594997,13.0080759667
 O,0,8.7846265384,19.0964614238,12.8766634866
 C,0,11.3285803853,20.2584550212,11.5472570232
 C,0,12.5377404347,20.3971354108,10.6015938607
 C,0,12.5834766968,21.8070788864,9.9966445704
 C,0,13.8555278171,20.0751247934,11.3271206781
 H,0,9.576203727,18.761478915,10.2014026957
 H,0,11.8314973987,18.2387057943,12.0885744205
 H,0,11.5586834517,20.7465281799,12.5036318574
 H,0,10.4466853752,20.7760398358,11.1479817993
 H,0,12.4026423458,19.6805148065,9.7769428344
 H,0,11.6792118184,22.0260585352,9.4175686141
 H,0,12.6706151251,22.5656383764,10.7846385251
 H,0,13.4461536763,21.9193022922,9.331285427
 H,0,14.0680267936,20.8461106796,12.0791735501
 H,0,13.8417631813,19.1111792444,11.8500043191
 H,0,14.6937539746,20.0672731357,10.6218563427
 N,0,10.5068048824,18.3724713621,14.2068077381
 C,0,9.6904453257,18.3768752656,15.4219002346
 C,0,10.5202468728,18.8544517349,16.61796536
 O,0,10.2599906334,18.5670675431,17.7661402703
 C,0,8.9019989485,17.0857950379,15.7149419862
 C,0,9.668329297,15.7548354635,15.7912721703
 C,0,10.8006287155,15.6720391681,16.8276473252
 N,0,11.9998800793,16.3173523341,16.2772619951
 C,0,12.9568929101,16.9773801391,16.9305831927
 N,0,12.8433475263,17.2843947143,18.2422954926
 N,0,14.0726939775,17.3040572059,16.2546794798
 O,0,11.5710025873,19.6480916312,16.3307284792
 H,0,11.6117303869,19.7640432536,15.3609503667
 H,0,11.400211797,17.8735190329,14.192242891
 H,0,8.9402803458,19.1615402372,15.2547675265
 H,0,8.1426703484,17.0015116595,14.9299336755
 H,0,8.3696780241,17.2543384856,16.6567157358
 H,0,8.9372819708,14.9741618485,16.0314837226
 H,0,10.0852835362,15.4921769647,14.8107274922
 H,0,11.0385980335,14.6238505365,17.0440041615
 H,0,10.4948998267,16.1483686082,17.7594474819
 H,0,12.252645563,15.9388794049,15.3415133537
 H,0,11.902262896,17.4062212532,18.6019365151
 H,0,13.4870989996,17.9751006254,18.6063362303
 H,0,14.7141959294,17.9686694821,16.6634339374
 H,0,14.017192048,17.2843852837,15.2270113931
 Recover connectivity data from disk.
                           ----------------------------
                           !    Current Parameters    !
                           ! (Angstroms and Degrees)  !
 --------------------------                            --------------------------
 ! Name  Definition              Value                                          !
 --------------------------------------------------------------------------------
 ! R1    R(1,2)                  1.5154                                         !
 ! R2    R(1,10)                 1.0237                                         !
 ! R3    R(1,16)                 1.0239                                         !
 ! R4    R(1,17)                 1.0595                                         !
 ! R5    R(2,3)                  1.5419                                         !
 ! R6    R(2,5)                  1.5393                                         !
 ! R7    R(2,11)                 1.0904                                         !
 ! R8    R(3,4)                  1.2366                                         !
 ! R9    R(3,18)                 1.3405                                         !
 ! R10   R(5,6)                  1.5424                                         !
 ! R11   R(5,12)                 1.0913                                         !
 ! R12   R(5,13)                 1.0982                                         !
 ! R13   R(6,7)                  1.535                                          !
 ! R14   R(6,14)                 1.0951                                         !
 ! R15   R(6,15)                 1.0934                                         !
 ! R16   R(7,8)                  1.2601                                         !
 ! R17   R(7,9)                  1.2729                                         !
 ! R18   R(18,19)                1.4705                                         !
 ! R19   R(18,26)                1.0163                                         !
 ! R20   R(19,20)                1.5336                                         !
 ! R21   R(19,22)                1.5409                                         !
 ! R22   R(19,27)                1.0882                                         !
 ! R23   R(20,21)                1.221                                          !
 ! R24   R(20,37)                1.3754                                         !
 ! R25   R(22,23)                1.5413                                         !
 ! R26   R(22,28)                1.0981                                         !
 ! R27   R(22,29)                1.0977                                         !
 ! R28   R(23,24)                1.5349                                         !
 ! R29   R(23,25)                1.5384                                         !
 ! R30   R(23,30)                1.1008                                         !
 ! R31   R(24,31)                1.0959                                         !
 ! R32   R(24,32)                1.0972                                         !
 ! R33   R(24,33)                1.0952                                         !
 ! R34   R(25,34)                1.0978                                         !
 ! R35   R(25,35)                1.0967                                         !
 ! R36   R(25,36)                1.0955                                         !
 ! R37   R(37,38)                1.4639                                         !
 ! R38   R(37,50)                1.0234                                         !
 ! R39   R(38,39)                1.5321                                         !
 ! R40   R(38,41)                1.5409                                         !
 ! R41   R(38,51)                1.0984                                         !
 ! R42   R(39,40)                1.2119                                         !
 ! R43   R(39,48)                1.3478                                         !
 ! R44   R(41,42)                1.5377                                         !
 ! R45   R(41,52)                1.0954                                         !
 ! R46   R(41,53)                1.0949                                         !
 ! R47   R(42,43)                1.5372                                         !
 ! R48   R(42,54)                1.0962                                         !
 ! R49   R(42,55)                1.0974                                         !
 ! R50   R(43,44)                1.4689                                         !
 ! R51   R(43,56)                1.0964                                         !
 ! R52   R(43,57)                1.0902                                         !
 ! R53   R(44,45)                1.3335                                         !
 ! R54   R(44,58)                1.0406                                         !
 ! R55   R(45,46)                1.3519                                         !
 ! R56   R(45,47)                1.3448                                         !
 ! R57   R(46,59)                1.0148                                         !
 ! R58   R(46,60)                1.0119                                         !
 ! R59   R(47,61)                1.0101                                         !
 ! R60   R(47,62)                1.0294                                         !
 ! R61   R(48,49)                0.9775                                         !
 ! A1    A(2,1,10)             112.7156                                         !
 ! A2    A(2,1,16)             112.4317                                         !
 ! A3    A(2,1,17)             102.5453                                         !
 ! A4    A(10,1,16)            108.002                                          !
 ! A5    A(10,1,17)            110.8967                                         !
 ! A6    A(16,1,17)            110.2103                                         !
 ! A7    A(1,2,3)              103.6316                                         !
 ! A8    A(1,2,5)              110.7815                                         !
 ! A9    A(1,2,11)             106.3243                                         !
 ! A10   A(3,2,5)              114.8165                                         !
 ! A11   A(3,2,11)             110.0847                                         !
 ! A12   A(5,2,11)             110.6732                                         !
 ! A13   A(2,3,4)              117.9577                                         !
 ! A14   A(2,3,18)             117.2073                                         !
 ! A15   A(4,3,18)             124.8349                                         !
 ! A16   A(2,5,6)              111.9667                                         !
 ! A17   A(2,5,12)             108.4255                                         !
 ! A18   A(2,5,13)             109.3727                                         !
 ! A19   A(6,5,12)             109.1864                                         !
 ! A20   A(6,5,13)             111.9847                                         !
 ! A21   A(12,5,13)            105.6526                                         !
 ! A22   A(5,6,7)              108.0036                                         !
 ! A23   A(5,6,14)             111.544                                          !
 ! A24   A(5,6,15)             108.8555                                         !
 ! A25   A(7,6,14)             109.0119                                         !
 ! A26   A(7,6,15)             110.8116                                         !
 ! A27   A(14,6,15)            108.6248                                         !
 ! A28   A(6,7,8)              116.9537                                         !
 ! A29   A(6,7,9)              117.5256                                         !
 ! A30   A(8,7,9)              125.1331                                         !
 ! A31   A(3,18,19)            127.446                                          !
 ! A32   A(3,18,26)            114.2984                                         !
 ! A33   A(19,18,26)           116.0045                                         !
 ! A34   A(18,19,20)           109.6951                                         !
 ! A35   A(18,19,22)           109.7288                                         !
 ! A36   A(18,19,27)           109.641                                          !
 ! A37   A(20,19,22)           109.6369                                         !
 ! A38   A(20,19,27)           109.5738                                         !
 ! A39   A(22,19,27)           108.5466                                         !
 ! A40   A(19,20,21)           121.3877                                         !
 ! A41   A(19,20,37)           114.523                                          !
 ! A42   A(21,20,37)           123.9708                                         !
 ! A43   A(19,22,23)           113.6227                                         !
 ! A44   A(19,22,28)           108.2786                                         !
 ! A45   A(19,22,29)           107.9667                                         !
 ! A46   A(23,22,28)           109.2677                                         !
 ! A47   A(23,22,29)           111.3869                                         !
 ! A48   A(28,22,29)           105.9951                                         !
 ! A49   A(22,23,24)           110.3554                                         !
 ! A50   A(22,23,25)           111.335                                          !
 ! A51   A(22,23,30)           107.7443                                         !
 ! A52   A(24,23,25)           110.6478                                         !
 ! A53   A(24,23,30)           107.8415                                         !
 ! A54   A(25,23,30)           108.7934                                         !
 ! A55   A(23,24,31)           111.5442                                         !
 ! A56   A(23,24,32)           110.7545                                         !
 ! A57   A(23,24,33)           110.9178                                         !
 ! A58   A(31,24,32)           107.8706                                         !
 ! A59   A(31,24,33)           107.9661                                         !
 ! A60   A(32,24,33)           107.6317                                         !
 ! A61   A(23,25,34)           109.9921                                         !
 ! A62   A(23,25,35)           113.4581                                         !
 ! A63   A(23,25,36)           110.6906                                         !
 ! A64   A(34,25,35)           107.0433                                         !
 ! A65   A(34,25,36)           107.3349                                         !
 ! A66   A(35,25,36)           108.0741                                         !
 ! A67   A(20,37,38)           119.7394                                         !
 ! A68   A(20,37,50)           118.4313                                         !
 ! A69   A(38,37,50)           120.0078                                         !
 ! A70   A(37,38,39)           110.2981                                         !
 ! A71   A(37,38,41)           116.1474                                         !
 ! A72   A(37,38,51)           104.876                                          !
 ! A73   A(39,38,41)           112.9451                                         !
 ! A74   A(39,38,51)           105.4278                                         !
 ! A75   A(41,38,51)           106.1434                                         !
 ! A76   A(38,39,40)           123.3271                                         !
 ! A77   A(38,39,48)           116.0684                                         !
 ! A78   A(40,39,48)           120.5968                                         !
 ! A79   A(38,41,42)           118.663                                          !
 ! A80   A(38,41,52)           106.4316                                         !
 ! A81   A(38,41,53)           106.462                                          !
 ! A82   A(42,41,52)           108.3267                                         !
 ! A83   A(42,41,53)           109.4417                                         !
 ! A84   A(52,41,53)           106.9327                                         !
 ! A85   A(41,42,43)           116.5624                                         !
 ! A86   A(41,42,54)           107.1543                                         !
 ! A87   A(41,42,55)           110.6195                                         !
 ! A88   A(43,42,54)           107.7667                                         !
 ! A89   A(43,42,55)           108.0375                                         !
 ! A90   A(54,42,55)           106.1846                                         !
 ! A91   A(42,43,44)           108.972                                          !
 ! A92   A(42,43,56)           110.1452                                         !
 ! A93   A(42,43,57)           110.2505                                         !
 ! A94   A(44,43,56)           108.4658                                         !
 ! A95   A(44,43,57)           110.9318                                         !
 ! A96   A(56,43,57)           108.053                                          !
 ! A97   A(43,44,45)           128.301                                          !
 ! A98   A(43,44,58)           112.0549                                         !
 ! A99   A(45,44,58)           116.5042                                         !
 ! A100  A(44,45,46)           121.834                                          !
 ! A101  A(44,45,47)           117.9972                                         !
 ! A102  A(46,45,47)           120.1429                                         !
 ! A103  A(45,46,59)           116.6794                                         !
 ! A104  A(45,46,60)           116.7833                                         !
 ! A105  A(59,46,60)           112.3654                                         !
 ! A106  A(45,47,61)           118.9058                                         !
 ! A107  A(45,47,62)           116.8972                                         !
 ! A108  A(61,47,62)           116.7963                                         !
 ! A109  A(39,48,49)           108.2861                                         !
 ! D1    D(10,1,2,3)           129.6976                                         !
 ! D2    D(10,1,2,5)             6.0583                                         !
 ! D3    D(10,1,2,11)         -114.2474                                         !
 ! D4    D(16,1,2,3)          -107.9394                                         !
 ! D5    D(16,1,2,5)           128.4213                                         !
 ! D6    D(16,1,2,11)            8.1156                                         !
 ! D7    D(17,1,2,3)            10.4037                                         !
 ! D8    D(17,1,2,5)          -113.2356                                         !
 ! D9    D(17,1,2,11)          126.4587                                         !
 ! D10   D(1,2,3,4)            -11.4819                                         !
 ! D11   D(1,2,3,18)           168.4319                                         !
 ! D12   D(5,2,3,4)            109.4735                                         !
 ! D13   D(5,2,3,18)           -70.6127                                         !
 ! D14   D(11,2,3,4)          -124.8491                                         !
 ! D15   D(11,2,3,18)           55.0648                                         !
 ! D16   D(1,2,5,6)            -81.6076                                         !
 ! D17   D(1,2,5,12)           157.8688                                         !
 ! D18   D(1,2,5,13)            43.1229                                         !
 ! D19   D(3,2,5,6)            161.4427                                         !
 ! D20   D(3,2,5,12)            40.9192                                         !
 ! D21   D(3,2,5,13)           -73.8267                                         !
 ! D22   D(11,2,5,6)            36.0715                                         !
 ! D23   D(11,2,5,12)          -84.452                                          !
 ! D24   D(11,2,5,13)          160.8021                                         !
 ! D25   D(2,3,18,19)          -10.6492                                         !
 ! D26   D(2,3,18,26)         -172.7653                                         !
 ! D27   D(4,3,18,19)          169.258                                          !
 ! D28   D(4,3,18,26)            7.142                                          !
 ! D29   D(2,5,6,7)            -48.4407                                         !
 ! D30   D(2,5,6,14)            71.3325                                         !
 ! D31   D(2,5,6,15)          -168.8226                                         !
 ! D32   D(12,5,6,7)            71.6395                                         !
 ! D33   D(12,5,6,14)         -168.5873                                         !
 ! D34   D(12,5,6,15)          -48.7423                                         !
 ! D35   D(13,5,6,7)          -171.7095                                         !
 ! D36   D(13,5,6,14)          -51.9362                                         !
 ! D37   D(13,5,6,15)           67.9087                                         !
 ! D38   D(5,6,7,8)            100.4411                                         !
 ! D39   D(5,6,7,9)            -72.7837                                         !
 ! D40   D(14,6,7,8)           -20.9164                                         !
 ! D41   D(14,6,7,9)           165.8588                                         !
 ! D42   D(15,6,7,8)          -140.4109                                         !
 ! D43   D(15,6,7,9)            46.3643                                         !
 ! D44   D(3,18,19,20)         -90.0166                                         !
 ! D45   D(3,18,19,22)         149.4815                                         !
 ! D46   D(3,18,19,27)          30.3527                                         !
 ! D47   D(26,18,19,20)         71.839                                          !
 ! D48   D(26,18,19,22)        -48.663                                          !
 ! D49   D(26,18,19,27)       -167.7918                                         !
 ! D50   D(18,19,20,21)        -46.3903                                         !
 ! D51   D(18,19,20,37)        137.4187                                         !
 ! D52   D(22,19,20,21)         74.1674                                         !
 ! D53   D(22,19,20,37)       -102.0236                                         !
 ! D54   D(27,19,20,21)       -166.8004                                         !
 ! D55   D(27,19,20,37)         17.0086                                         !
 ! D56   D(18,19,22,23)        -72.1567                                         !
 ! D57   D(18,19,22,28)        166.2583                                         !
 ! D58   D(18,19,22,29)         51.9161                                         !
 ! D59   D(20,19,22,23)        167.3061                                         !
 ! D60   D(20,19,22,28)         45.7211                                         !
 ! D61   D(20,19,22,29)        -68.6211                                         !
 ! D62   D(27,19,22,23)         47.6427                                         !
 ! D63   D(27,19,22,28)        -73.9423                                         !
 ! D64   D(27,19,22,29)        171.7155                                         !
 ! D65   D(19,20,37,38)        175.876                                          !
 ! D66   D(19,20,37,50)        -19.4837                                         !
 ! D67   D(21,20,37,38)         -0.203                                          !
 ! D68   D(21,20,37,50)        164.4373                                         !
 ! D69   D(19,22,23,24)        161.1027                                         !
 ! D70   D(19,22,23,25)        -75.6199                                         !
 ! D71   D(19,22,23,30)         43.5971                                         !
 ! D72   D(28,22,23,24)        -77.865                                          !
 ! D73   D(28,22,23,25)         45.4124                                         !
 ! D74   D(28,22,23,30)        164.6294                                         !
 ! D75   D(29,22,23,24)         38.9039                                         !
 ! D76   D(29,22,23,25)        162.1813                                         !
 ! D77   D(29,22,23,30)        -78.6017                                         !
 ! D78   D(22,23,24,31)        -60.2382                                         !
 ! D79   D(22,23,24,32)         59.9224                                         !
 ! D80   D(22,23,24,33)        179.3692                                         !
 ! D81   D(25,23,24,31)        176.0858                                         !
 ! D82   D(25,23,24,32)        -63.7536                                         !
 ! D83   D(25,23,24,33)         55.6932                                         !
 ! D84   D(30,23,24,31)         57.2075                                         !
 ! D85   D(30,23,24,32)        177.3681                                         !
 ! D86   D(30,23,24,33)        -63.1851                                         !
 ! D87   D(22,23,25,34)        -67.8765                                         !
 ! D88   D(22,23,25,35)         51.9822                                         !
 ! D89   D(22,23,25,36)        173.6777                                         !
 ! D90   D(24,23,25,34)         55.2337                                         !
 ! D91   D(24,23,25,35)        175.0924                                         !
 ! D92   D(24,23,25,36)        -63.2121                                         !
 ! D93   D(30,23,25,34)        173.5338                                         !
 ! D94   D(30,23,25,35)        -66.6075                                         !
 ! D95   D(30,23,25,36)         55.088                                          !
 ! D96   D(20,37,38,39)       -142.1151                                         !
 ! D97   D(20,37,38,41)         87.7472                                         !
 ! D98   D(20,37,38,51)        -29.0533                                         !
 ! D99   D(50,37,38,39)         53.4888                                         !
 ! D100  D(50,37,38,41)        -76.6489                                         !
 ! D101  D(50,37,38,51)        166.5506                                         !
 ! D102  D(37,38,39,40)       -155.8161                                         !
 ! D103  D(37,38,39,48)         25.1921                                         !
 ! D104  D(41,38,39,40)        -23.9945                                         !
 ! D105  D(41,38,39,48)        157.0137                                         !
 ! D106  D(51,38,39,40)         91.4761                                         !
 ! D107  D(51,38,39,48)        -87.5157                                         !
 ! D108  D(37,38,41,42)         55.0963                                         !
 ! D109  D(37,38,41,52)        -67.2354                                         !
 ! D110  D(37,38,41,53)        178.9502                                         !
 ! D111  D(39,38,41,42)        -73.7685                                         !
 ! D112  D(39,38,41,52)        163.8997                                         !
 ! D113  D(39,38,41,53)         50.0854                                         !
 ! D114  D(51,38,41,42)        171.1897                                         !
 ! D115  D(51,38,41,52)         48.8579                                         !
 ! D116  D(51,38,41,53)        -64.9564                                         !
 ! D117  D(38,39,48,49)         -0.762                                          !
 ! D118  D(40,39,48,49)       -179.7833                                         !
 ! D119  D(38,41,42,43)         57.8154                                         !
 ! D120  D(38,41,42,54)        178.5696                                         !
 ! D121  D(38,41,42,55)        -66.101                                          !
 ! D122  D(52,41,42,43)        179.1926                                         !
 ! D123  D(52,41,42,54)        -60.0532                                         !
 ! D124  D(52,41,42,55)         55.2761                                         !
 ! D125  D(53,41,42,43)        -64.558                                          !
 ! D126  D(53,41,42,54)         56.1962                                         !
 ! D127  D(53,41,42,55)        171.5255                                         !
 ! D128  D(41,42,43,44)        -80.6547                                         !
 ! D129  D(41,42,43,56)        160.4721                                         !
 ! D130  D(41,42,43,57)         41.3169                                         !
 ! D131  D(54,42,43,44)        158.9169                                         !
 ! D132  D(54,42,43,56)         40.0437                                         !
 ! D133  D(54,42,43,57)        -79.1114                                         !
 ! D134  D(55,42,43,44)         44.576                                          !
 ! D135  D(55,42,43,56)        -74.2972                                         !
 ! D136  D(55,42,43,57)        166.5477                                         !
 ! D137  D(42,43,44,45)        148.2022                                         !
 ! D138  D(42,43,44,58)        -52.8063                                         !
 ! D139  D(56,43,44,45)        -91.8803                                         !
 ! D140  D(56,43,44,58)         67.1112                                         !
 ! D141  D(57,43,44,45)         26.644                                          !
 ! D142  D(57,43,44,58)       -174.3645                                         !
 ! D143  D(43,44,45,46)         -8.5726                                         !
 ! D144  D(43,44,45,47)        169.5795                                         !
 ! D145  D(58,44,45,46)       -166.777                                          !
 ! D146  D(58,44,45,47)         11.375                                          !
 ! D147  D(44,45,46,59)        -28.1549                                         !
 ! D148  D(44,45,46,60)       -165.0979                                         !
 ! D149  D(47,45,46,59)        153.732                                          !
 ! D150  D(47,45,46,60)         16.789                                          !
 ! D151  D(44,45,47,61)        166.8712                                         !
 ! D152  D(44,45,47,62)         17.8296                                         !
 ! D153  D(46,45,47,61)        -14.9443                                         !
 ! D154  D(46,45,47,62)       -163.9859                                         !
 --------------------------------------------------------------------------------
 Symmetry turned off by external request.
 Stoichiometry    C17H33N6O6(1+)
 Framework group  C1[X(C17H33N6O6)]
 Deg. of freedom   180
 Full point group                 C1      NOp   1
                          Input orientation:                          
 ---------------------------------------------------------------------
 Center     Atomic      Atomic             Coordinates (Angstroms)
 Number     Number       Type             X           Y           Z
 ---------------------------------------------------------------------
      1          7           0       10.885949   14.603939   10.540051
      2          6           0       11.305508   15.986140   10.998070
      3          6           0       10.336383   16.925679   10.252764
      4          8           0        9.643716   16.445007    9.348116
      5          6           0       12.796486   16.229992   10.703301
      6          6           0       13.707133   15.606873   11.781049
      7          6           0       13.167110   16.022328   13.156528
      8          8           0       12.475683   15.172543   13.779139
      9          8           0       13.339375   17.231355   13.515458
     10          1           0       11.674423   14.040567   10.210023
     11          1           0       11.113829   16.024864   12.070807
     12          1           0       12.969225   17.306937   10.666706
     13          1           0       13.034784   15.857368    9.698148
     14          1           0       13.716357   14.513710   11.716743
     15          1           0       14.727042   15.973761   11.637124
     16          1           0       10.406730   14.077242   11.275823
     17          1           0       10.216191   14.817597    9.747413
     18          7           0       10.308171   18.208910   10.639197
     19          6           0       10.932923   18.796942   11.833406
     20          6           0        9.948070   18.750159   13.008076
     21          8           0        8.784627   19.096461   12.876663
     22          6           0       11.328580   20.258455   11.547257
     23          6           0       12.537740   20.397135   10.601594
     24          6           0       12.583477   21.807079    9.996645
     25          6           0       13.855528   20.075125   11.327121
     26          1           0        9.576204   18.761479   10.201403
     27          1           0       11.831497   18.238706   12.088574
     28          1           0       11.558683   20.746528   12.503632
     29          1           0       10.446685   20.776040   11.147982
     30          1           0       12.402642   19.680515    9.776943
     31          1           0       11.679212   22.026059    9.417569
     32          1           0       12.670615   22.565638   10.784639
     33          1           0       13.446154   21.919302    9.331285
     34          1           0       14.068027   20.846111   12.079174
     35          1           0       13.841763   19.111179   11.850004
     36          1           0       14.693754   20.067273   10.621856
     37          7           0       10.506805   18.372471   14.206808
     38          6           0        9.690445   18.376875   15.421900
     39          6           0       10.520247   18.854452   16.617965
     40          8           0       10.259991   18.567068   17.766140
     41          6           0        8.901999   17.085795   15.714942
     42          6           0        9.668329   15.754835   15.791272
     43          6           0       10.800629   15.672039   16.827647
     44          7           0       11.999880   16.317352   16.277262
     45          6           0       12.956893   16.977380   16.930583
     46          7           0       12.843348   17.284395   18.242295
     47          7           0       14.072694   17.304057   16.254679
     48          8           0       11.571003   19.648092   16.330728
     49          1           0       11.611730   19.764043   15.360950
     50          1           0       11.400212   17.873519   14.192243
     51          1           0        8.940280   19.161540   15.254768
     52          1           0        8.142670   17.001512   14.929934
     53          1           0        8.369678   17.254338   16.656716
     54          1           0        8.937282   14.974162   16.031484
     55          1           0       10.085284   15.492177   14.810727
     56          1           0       11.038598   14.623851   17.044004
     57          1           0       10.494900   16.148369   17.759447
     58          1           0       12.252646   15.938879   15.341513
     59          1           0       11.902263   17.406221   18.601937
     60          1           0       13.487099   17.975101   18.606336
     61          1           0       14.714196   17.968669   16.663434
     62          1           0       14.017192   17.284385   15.227011
 ---------------------------------------------------------------------
 Rotational constants (GHZ):           0.2173029           0.1247797           0.1154663
 Standard basis: 6-31G(d) (6D, 7F)
   501 basis functions,   944 primitive gaussians,   501 cartesian basis functions
   112 alpha electrons      112 beta electrons
       nuclear repulsion energy      3322.4615761758 Hartrees.
 NAtoms=   62 NActive=   62 NUniq=   62 SFac= 1.00D+00 NAtFMM=   60 NAOKFM=T Big=T
 Integral buffers will be    131072 words long.
 Raffenetti 2 integral format.
 Two-electron integral symmetry is turned off.
 Nuclear repulsion after empirical dispersion term =     3322.3688559145 Hartrees.
 One-electron integrals computed using PRISM.
 NBasis=   501 RedAO= T EigKep=  1.74D-03  NBF=   501
 NBsUse=   501 1.00D-06 EigRej= -1.00D+00 NBFU=   501
 Initial guess from the checkpoint file:  "conf-966.chk"
 B after Tr=     0.000000    0.000000    0.000000
         Rot=    1.000000    0.000000    0.000000    0.000000 Ang=   0.00 deg.
 Requested convergence on RMS density matrix=1.00D-08 within 128 cycles.
 Requested convergence on MAX density matrix=1.00D-06.
 Requested convergence on             energy=1.00D-06.
 No special actions if energy rises.
 SCF Done:  E(RB3LYP) =  -1447.51160540     A.U. after    2 cycles
            NFock=  2  Conv=0.72D-08     -V/T= 2.0093

 **********************************************************************

            Population analysis using the SCF Density.

 **********************************************************************

 Alpha  occ. eigenvalues --  -19.30464 -19.26953 -19.24568 -19.23355 -19.21941
 Alpha  occ. eigenvalues --  -19.21906 -14.60220 -14.50078 -14.48330 -14.47974
 Alpha  occ. eigenvalues --  -14.47677 -14.47571 -10.44673 -10.43896 -10.43039
 Alpha  occ. eigenvalues --  -10.40365 -10.40292 -10.39722 -10.35453 -10.34861
 Alpha  occ. eigenvalues --  -10.34128 -10.33382 -10.30792 -10.29714 -10.29501
 Alpha  occ. eigenvalues --  -10.29229 -10.28753 -10.26222 -10.25796  -1.21287
 Alpha  occ. eigenvalues --   -1.19419  -1.15420  -1.15249  -1.14062  -1.13188
 Alpha  occ. eigenvalues --   -1.12809  -1.06668  -1.05975  -1.04121  -1.02501
 Alpha  occ. eigenvalues --   -1.01258  -0.94360  -0.91961  -0.90395  -0.86989
 Alpha  occ. eigenvalues --   -0.86183  -0.84514  -0.79515  -0.77489  -0.77112
 Alpha  occ. eigenvalues --   -0.75865  -0.74642  -0.74078  -0.73689  -0.72668
 Alpha  occ. eigenvalues --   -0.72405  -0.71265  -0.70033  -0.69031  -0.67836
 Alpha  occ. eigenvalues --   -0.66727  -0.65771  -0.64831  -0.62715  -0.62384
 Alpha  occ. eigenvalues --   -0.61257  -0.60749  -0.60227  -0.60071  -0.59617
 Alpha  occ. eigenvalues --   -0.58124  -0.57863  -0.56805  -0.56484  -0.56332
 Alpha  occ. eigenvalues --   -0.56135  -0.55763  -0.54515  -0.54241  -0.53969
 Alpha  occ. eigenvalues --   -0.53413  -0.52713  -0.52168  -0.51775  -0.51637
 Alpha  occ. eigenvalues --   -0.50885  -0.50480  -0.50420  -0.49676  -0.49383
 Alpha  occ. eigenvalues --   -0.48809  -0.48207  -0.47571  -0.46967  -0.45737
 Alpha  occ. eigenvalues --   -0.45641  -0.45136  -0.44567  -0.42764  -0.42434
 Alpha  occ. eigenvalues --   -0.42203  -0.42059  -0.41335  -0.40167  -0.39819
 Alpha  occ. eigenvalues --   -0.39089  -0.38066  -0.37601  -0.37029  -0.36456
 Alpha  occ. eigenvalues --   -0.36098  -0.35597
 Alpha virt. eigenvalues --   -0.12651  -0.11097  -0.10413  -0.10022  -0.09510
 Alpha virt. eigenvalues --   -0.08626  -0.06307  -0.04936  -0.04205  -0.03565
 Alpha virt. eigenvalues --   -0.02572  -0.01376  -0.00615  -0.00075   0.00343
 Alpha virt. eigenvalues --    0.00971   0.01776   0.02194   0.02414   0.03561
 Alpha virt. eigenvalues --    0.04041   0.04445   0.04787   0.04985   0.05622
 Alpha virt. eigenvalues --    0.06116   0.06254   0.06563   0.06870   0.07052
 Alpha virt. eigenvalues --    0.07691   0.07970   0.08226   0.08645   0.08932
 Alpha virt. eigenvalues --    0.09426   0.10014   0.10273   0.10890   0.11019
 Alpha virt. eigenvalues --    0.11317   0.11779   0.11977   0.12690   0.12871
 Alpha virt. eigenvalues --    0.13626   0.14008   0.14575   0.15495   0.15780
 Alpha virt. eigenvalues --    0.16195   0.16514   0.17628   0.18258   0.18873
 Alpha virt. eigenvalues --    0.19385   0.21973   0.22928   0.24286   0.25985
 Alpha virt. eigenvalues --    0.27707   0.28263   0.29529   0.30010   0.30798
 Alpha virt. eigenvalues --    0.32612   0.36015   0.36541   0.37100   0.38741
 Alpha virt. eigenvalues --    0.39905   0.40054   0.40840   0.41361   0.42431
 Alpha virt. eigenvalues --    0.42737   0.42885   0.44103   0.44426   0.44675
 Alpha virt. eigenvalues --    0.45131   0.46086   0.46844   0.47587   0.47680
 Alpha virt. eigenvalues --    0.48343   0.49131   0.49656   0.50560   0.51480
 Alpha virt. eigenvalues --    0.52054   0.52760   0.53046   0.53293   0.53669
 Alpha virt. eigenvalues --    0.54157   0.54636   0.55647   0.55917   0.56393
 Alpha virt. eigenvalues --    0.56972   0.57016   0.57949   0.58187   0.59874
 Alpha virt. eigenvalues --    0.60558   0.60598   0.61847   0.62128   0.62293
 Alpha virt. eigenvalues --    0.62886   0.63768   0.64415   0.65705   0.65827
 Alpha virt. eigenvalues --    0.67091   0.67144   0.67696   0.67938   0.69073
 Alpha virt. eigenvalues --    0.69384   0.70223   0.70658   0.71585   0.72156
 Alpha virt. eigenvalues --    0.72658   0.73422   0.73476   0.74220   0.74412
 Alpha virt. eigenvalues --    0.74682   0.75383   0.75808   0.76493   0.77165
 Alpha virt. eigenvalues --    0.77492   0.77853   0.78878   0.79240   0.79858
 Alpha virt. eigenvalues --    0.80258   0.80782   0.81384   0.81927   0.82536
 Alpha virt. eigenvalues --    0.82636   0.82925   0.83232   0.84068   0.84373
 Alpha virt. eigenvalues --    0.84882   0.85269   0.85780   0.86247   0.86649
 Alpha virt. eigenvalues --    0.88271   0.88353   0.89209   0.89591   0.90617
 Alpha virt. eigenvalues --    0.90778   0.91484   0.92831   0.93787   0.94220
 Alpha virt. eigenvalues --    0.94822   0.95598   0.95883   0.97031   0.97510
 Alpha virt. eigenvalues --    0.98506   0.98807   0.99207   1.00872   1.01667
 Alpha virt. eigenvalues --    1.03301   1.03957   1.04355   1.06273   1.06613
 Alpha virt. eigenvalues --    1.06973   1.08471   1.09343   1.10450   1.12417
 Alpha virt. eigenvalues --    1.12517   1.15482   1.15601   1.16517   1.17112
 Alpha virt. eigenvalues --    1.18075   1.19038   1.20540   1.21698   1.22651
 Alpha virt. eigenvalues --    1.23359   1.26128   1.26417   1.27486   1.27982
 Alpha virt. eigenvalues --    1.28578   1.30397   1.32325   1.34477   1.36064
 Alpha virt. eigenvalues --    1.36083   1.36349   1.37358   1.39271   1.40928
 Alpha virt. eigenvalues --    1.41052   1.43074   1.44127   1.45140   1.46225
 Alpha virt. eigenvalues --    1.46723   1.47776   1.49517   1.50210   1.51494
 Alpha virt. eigenvalues --    1.52711   1.54398   1.55976   1.57114   1.57606
 Alpha virt. eigenvalues --    1.58191   1.58555   1.60074   1.60748   1.62473
 Alpha virt. eigenvalues --    1.63531   1.64677   1.64767   1.65341   1.66690
 Alpha virt. eigenvalues --    1.67614   1.68076   1.68521   1.69399   1.70051
 Alpha virt. eigenvalues --    1.70109   1.70500   1.70989   1.71336   1.72518
 Alpha virt. eigenvalues --    1.73287   1.73806   1.74224   1.75546   1.76095
 Alpha virt. eigenvalues --    1.76789   1.78070   1.78212   1.78510   1.79867
 Alpha virt. eigenvalues --    1.80081   1.80967   1.81591   1.82171   1.83052
 Alpha virt. eigenvalues --    1.83313   1.84617   1.85186   1.85408   1.86752
 Alpha virt. eigenvalues --    1.87589   1.88235   1.88605   1.89519   1.90408
 Alpha virt. eigenvalues --    1.90936   1.92008   1.92424   1.93144   1.93853
 Alpha virt. eigenvalues --    1.94387   1.95410   1.96358   1.96937   1.98479
 Alpha virt. eigenvalues --    1.99608   2.01030   2.01211   2.01956   2.03934
 Alpha virt. eigenvalues --    2.05445   2.05896   2.06625   2.07675   2.09016
 Alpha virt. eigenvalues --    2.10019   2.10418   2.12053   2.14097   2.14659
 Alpha virt. eigenvalues --    2.15747   2.16329   2.16730   2.17501   2.18412
 Alpha virt. eigenvalues --    2.19692   2.20315   2.21603   2.22516   2.23210
 Alpha virt. eigenvalues --    2.25012   2.25344   2.26492   2.28479   2.28992
 Alpha virt. eigenvalues --    2.31229   2.32200   2.32706   2.34396   2.36764
 Alpha virt. eigenvalues --    2.37695   2.37922   2.38994   2.40910   2.41327
 Alpha virt. eigenvalues --    2.42727   2.43074   2.43852   2.45552   2.47341
 Alpha virt. eigenvalues --    2.48284   2.50186   2.50815   2.51970   2.52083
 Alpha virt. eigenvalues --    2.53927   2.54517   2.55282   2.56468   2.58566
 Alpha virt. eigenvalues --    2.59614   2.60194   2.60923   2.62389   2.63847
 Alpha virt. eigenvalues --    2.65272   2.65896   2.68742   2.69113   2.69361
 Alpha virt. eigenvalues --    2.75634   2.77496   2.81270   2.84067   2.85396
 Alpha virt. eigenvalues --    2.88191   2.88874   2.89557   2.91605   2.92459
 Alpha virt. eigenvalues --    3.00681   3.00916   3.01466   3.03692   3.06087
 Alpha virt. eigenvalues --    3.63594   3.72003   3.78826   3.83172   3.86914
 Alpha virt. eigenvalues --    3.87894   3.95361   3.99356   4.04555   4.07269
 Alpha virt. eigenvalues --    4.08191   4.10269   4.15761   4.18034   4.20008
 Alpha virt. eigenvalues --    4.21695   4.22501   4.23245   4.24922   4.27629
 Alpha virt. eigenvalues --    4.36773   4.38614   4.39825   4.45631   4.48812
 Alpha virt. eigenvalues --    4.51005   4.53283   4.55690   4.74037
          Condensed to atoms (all electrons):
 Mulliken charges:
               1
     1  N   -0.755897
     2  C   -0.114354
     3  C    0.634995
     4  O   -0.518288
     5  C   -0.335657
     6  C   -0.316868
     7  C    0.570146
     8  O   -0.575575
     9  O   -0.595860
    10  H    0.415439
    11  H    0.235496
    12  H    0.219166
    13  H    0.175000
    14  H    0.152734
    15  H    0.190309
    16  H    0.422164
    17  H    0.432198
    18  N   -0.568063
    19  C   -0.134608
    20  C    0.624285
    21  O   -0.497146
    22  C   -0.267440
    23  C   -0.081697
    24  C   -0.447902
    25  C   -0.482148
    26  H    0.372040
    27  H    0.191013
    28  H    0.148915
    29  H    0.166758
    30  H    0.128381
    31  H    0.152691
    32  H    0.153505
    33  H    0.161514
    34  H    0.149379
    35  H    0.165698
    36  H    0.158673
    37  N   -0.702884
    38  C   -0.066975
    39  C    0.633424
    40  O   -0.488089
    41  C   -0.273116
    42  C   -0.299546
    43  C   -0.149888
    44  N   -0.657316
    45  C    0.741553
    46  N   -0.729054
    47  N   -0.780386
    48  O   -0.576394
    49  H    0.427946
    50  H    0.379226
    51  H    0.228535
    52  H    0.169845
    53  H    0.184297
    54  H    0.169182
    55  H    0.149212
    56  H    0.184844
    57  H    0.188126
    58  H    0.418227
    59  H    0.392199
    60  H    0.360633
    61  H    0.354900
    62  H    0.412502
 Sum of Mulliken charges =   1.00000
 Mulliken charges with hydrogens summed into heavy atoms:
               1
     1  N    0.513904
     2  C    0.121143
     3  C    0.634995
     4  O   -0.518288
     5  C    0.058509
     6  C    0.026176
     7  C    0.570146
     8  O   -0.575575
     9  O   -0.595860
    18  N   -0.196023
    19  C    0.056405
    20  C    0.624285
    21  O   -0.497146
    22  C    0.048234
    23  C    0.046685
    24  C    0.019808
    25  C   -0.008398
    37  N   -0.323657
    38  C    0.161560
    39  C    0.633424
    40  O   -0.488089
    41  C    0.081025
    42  C    0.018849
    43  C    0.223081
    44  N   -0.239090
    45  C    0.741553
    46  N    0.023778
    47  N   -0.012984
    48  O   -0.148448
 Electronic spatial extent (au):  <R**2>=         511796.8118
 Charge=              1.0000 electrons
 Dipole moment (field-independent basis, Debye):
    X=             58.0571    Y=             78.5711    Z=             62.3853  Tot=            115.9137
 Quadrupole moment (field-independent basis, Debye-Ang):
   XX=            537.6649   YY=           1143.1224   ZZ=            689.4321
   XY=            965.5694   XZ=            760.3203   YZ=           1034.5210
 Traceless Quadrupole moment (field-independent basis, Debye-Ang):
   XX=           -252.4083   YY=            353.0493   ZZ=           -100.6411
   XY=            965.5694   XZ=            760.3203   YZ=           1034.5210
 Octapole moment (field-independent basis, Debye-Ang**2):
  XXX=           2881.3947  YYY=          13409.4530  ZZZ=           5696.1125  XYY=          14435.9401
  XXY=           8937.9012  XXZ=           7094.0460  XZZ=           8659.5074  YZZ=          11427.2649
  YYZ=          15161.8835  XYZ=          12844.4809
 Hexadecapole moment (field-independent basis, Debye-Ang**3):
 XXXX=         -27508.2922 YYYY=          68763.6499 ZZZZ=           1131.8315 XXXY=          45873.8567
 XXXZ=          38952.4299 YYYX=         180155.5596 YYYZ=         178336.2666 ZZZX=          78912.2839
 ZZZY=          92113.4540 XXYY=         128796.2525 XXZZ=          78188.7181 YYZZ=         159636.6230
 XXYZ=         120783.3383 YYXZ=         194211.6915 ZZXY=         147295.8635
 N-N= 3.322368855914D+03 E-N=-9.993433551421D+03  KE= 1.434128346152D+03
 Unable to Open any file for archive entry.
 1\1\GINC-VIM-000\SP\RB3LYP\6-31G(d)\C17H33N6O6(1+)\KENGMITH\24-May-202
 2\0\\# B3LYP/6-31G* empiricaldispersion=gd3 guess=read geom=check nosy
 mm integral(ultrafinegrid)\\Candidate Structure: Conf:966 Charge calc 
 in gas phase\\1,1\N,0,10.8859491333,14.6039393847,10.5400507229\C,0,11
 .3055084746,15.9861404761,10.9980695575\C,0,10.3363830794,16.925678669
 8,10.2527635821\O,0,9.6437158803,16.4450065825,9.348115926\C,0,12.7964
 859301,16.2299922175,10.7033011925\C,0,13.7071333513,15.6068734284,11.
 7810492988\C,0,13.1671097957,16.0223278917,13.1565281818\O,0,12.475683
 3158,15.1725430864,13.779138502\O,0,13.3393752178,17.231354665,13.5154
 577984\H,0,11.67442256,14.0405667983,10.2100227923\H,0,11.113829064,16
 .0248641859,12.0708073699\H,0,12.9692251151,17.3069365118,10.666705858
 7\H,0,13.0347840364,15.85736751,9.6981477155\H,0,13.7163574267,14.5137
 096403,11.7167431685\H,0,14.7270415403,15.9737613913,11.6371243065\H,0
 ,10.4067302675,14.0772417276,11.2758232336\H,0,10.2161905907,14.817596
 5528,9.7474128952\N,0,10.3081713214,18.2089103051,10.6391966779\C,0,10
 .9329231713,18.7969421389,11.8334055616\C,0,9.9480695971,18.7501594997
 ,13.0080759667\O,0,8.7846265384,19.0964614238,12.8766634866\C,0,11.328
 5803853,20.2584550212,11.5472570232\C,0,12.5377404347,20.3971354108,10
 .6015938607\C,0,12.5834766968,21.8070788864,9.9966445704\C,0,13.855527
 8171,20.0751247934,11.3271206781\H,0,9.576203727,18.761478915,10.20140
 26957\H,0,11.8314973987,18.2387057943,12.0885744205\H,0,11.5586834517,
 20.7465281799,12.5036318574\H,0,10.4466853752,20.7760398358,11.1479817
 993\H,0,12.4026423458,19.6805148065,9.7769428344\H,0,11.6792118184,22.
 0260585352,9.4175686141\H,0,12.6706151251,22.5656383764,10.7846385251\
 H,0,13.4461536763,21.9193022922,9.331285427\H,0,14.0680267936,20.84611
 06796,12.0791735501\H,0,13.8417631813,19.1111792444,11.8500043191\H,0,
 14.6937539746,20.0672731357,10.6218563427\N,0,10.5068048824,18.3724713
 621,14.2068077381\C,0,9.6904453257,18.3768752656,15.4219002346\C,0,10.
 5202468728,18.8544517349,16.61796536\O,0,10.2599906334,18.5670675431,1
 7.7661402703\C,0,8.9019989485,17.0857950379,15.7149419862\C,0,9.668329
 297,15.7548354635,15.7912721703\C,0,10.8006287155,15.6720391681,16.827
 6473252\N,0,11.9998800793,16.3173523341,16.2772619951\C,0,12.956892910
 1,16.9773801391,16.9305831927\N,0,12.8433475263,17.2843947143,18.24229
 54926\N,0,14.0726939775,17.3040572059,16.2546794798\O,0,11.5710025873,
 19.6480916312,16.3307284792\H,0,11.6117303869,19.7640432536,15.3609503
 667\H,0,11.400211797,17.8735190329,14.192242891\H,0,8.9402803458,19.16
 15402372,15.2547675265\H,0,8.1426703484,17.0015116595,14.9299336755\H,
 0,8.3696780241,17.2543384856,16.6567157358\H,0,8.9372819708,14.9741618
 485,16.0314837226\H,0,10.0852835362,15.4921769647,14.8107274922\H,0,11
 .0385980335,14.6238505365,17.0440041615\H,0,10.4948998267,16.148368608
 2,17.7594474819\H,0,12.252645563,15.9388794049,15.3415133537\H,0,11.90
 2262896,17.4062212532,18.6019365151\H,0,13.4870989996,17.9751006254,18
 .6063362303\H,0,14.7141959294,17.9686694821,16.6634339374\H,0,14.01719
 2048,17.2843852837,15.2270113931\\Version=ES64L-G16RevC.01\HF=-1447.51
 16054\RMSD=7.213e-09\Dipole=1.1506916,-2.4443836,-0.9915365\Quadrupole
 =-187.6593508,262.4835165,-74.8241657,717.8771902,565.2795432,769.1409
 951\PG=C01 [X(C17H33N6O6)]\\@
 The archive entry for this job was punched.


 ... THIS SEEMS PLAINLY ABSURD; BUT WHOEVER WISHES TO BECOME A 
 PHILOSOPHER MUST LEARN NOT TO BE FRIGHTENED BY ABSURDITIES.

                          -- BERTRAND RUSSELL
 Job cpu time:       0 days  0 hours  2 minutes 53.3 seconds.
 Elapsed time:       0 days  0 hours  0 minutes 43.8 seconds.
 File lengths (MBytes):  RWF=    248 Int=      0 D2E=      0 Chk=     32 Scr=     16
 Normal termination of Gaussian 16 at Tue May 24 03:34:22 2022.
