 Entering Gaussian System, Link 0=/opt/software/Gaussian/g16-AVX2-C.01/g16/g16
 Input=charge-conf-474.com
 Output=charge-conf-474.log
 Initial command:
 /opt/software/Gaussian/g16-AVX2-C.01/g16/l1.exe "/mnt/gs18/scratch/users/kengmith/Gau-44233.inp" -scrdir="/mnt/gs18/scratch/users/kengmith/"
 Entering Link 1 = /opt/software/Gaussian/g16-AVX2-C.01/g16/l1.exe PID=     44248.
  
 Copyright (c) 1988-2019, Gaussian, Inc.  All Rights Reserved.
  
 This is part of the Gaussian(R) 16 program.  It is based on
 the Gaussian(R) 09 system (copyright 2009, Gaussian, Inc.),
 the Gaussian(R) 03 system (copyright 2003, Gaussian, Inc.),
 the Gaussian(R) 98 system (copyright 1998, Gaussian, Inc.),
 the Gaussian(R) 94 system (copyright 1995, Gaussian, Inc.),
 the Gaussian 92(TM) system (copyright 1992, Gaussian, Inc.),
 the Gaussian 90(TM) system (copyright 1990, Gaussian, Inc.),
 the Gaussian 88(TM) system (copyright 1988, Gaussian, Inc.),
 the Gaussian 86(TM) system (copyright 1986, Carnegie Mellon
 University), and the Gaussian 82(TM) system (copyright 1983,
 Carnegie Mellon University). Gaussian is a federally registered
 trademark of Gaussian, Inc.
  
 This software contains proprietary and confidential information,
 including trade secrets, belonging to Gaussian, Inc.
  
 This software is provided under written license and may be
 used, copied, transmitted, or stored only in accord with that
 written license.
  
 The following legend is applicable only to US Government
 contracts under FAR:
  
                    RESTRICTED RIGHTS LEGEND
  
 Use, reproduction and disclosure by the US Government is
 subject to restrictions as set forth in subparagraphs (a)
 and (c) of the Commercial Computer Software - Restricted
 Rights clause in FAR 52.227-19.
  
 Gaussian, Inc.
 340 Quinnipiac St., Bldg. 40, Wallingford CT 06492
  
  
 ---------------------------------------------------------------
 Warning -- This program may not be used in any manner that
 competes with the business of Gaussian, Inc. or will provide
 assistance to any competitor of Gaussian, Inc.  The licensee
 of this program is prohibited from giving any competitor of
 Gaussian, Inc. access to this program.  By using this program,
 the user acknowledges that Gaussian, Inc. is engaged in the
 business of creating and licensing software in the field of
 computational chemistry and represents and warrants to the
 licensee that it is not a competitor of Gaussian, Inc. and that
 it will not use this program in any manner prohibited above.
 ---------------------------------------------------------------
  

 Cite this work as:
 Gaussian 16, Revision C.01,
 M. J. Frisch, G. W. Trucks, H. B. Schlegel, G. E. Scuseria, 
 M. A. Robb, J. R. Cheeseman, G. Scalmani, V. Barone, 
 G. A. Petersson, H. Nakatsuji, X. Li, M. Caricato, A. V. Marenich, 
 J. Bloino, B. G. Janesko, R. Gomperts, B. Mennucci, H. P. Hratchian, 
 J. V. Ortiz, A. F. Izmaylov, J. L. Sonnenberg, D. Williams-Young, 
 F. Ding, F. Lipparini, F. Egidi, J. Goings, B. Peng, A. Petrone, 
 T. Henderson, D. Ranasinghe, V. G. Zakrzewski, J. Gao, N. Rega, 
 G. Zheng, W. Liang, M. Hada, M. Ehara, K. Toyota, R. Fukuda, 
 J. Hasegawa, M. Ishida, T. Nakajima, Y. Honda, O. Kitao, H. Nakai, 
 T. Vreven, K. Throssell, J. A. Montgomery, Jr., J. E. Peralta, 
 F. Ogliaro, M. J. Bearpark, J. J. Heyd, E. N. Brothers, K. N. Kudin, 
 V. N. Staroverov, T. A. Keith, R. Kobayashi, J. Normand, 
 K. Raghavachari, A. P. Rendell, J. C. Burant, S. S. Iyengar, 
 J. Tomasi, M. Cossi, J. M. Millam, M. Klene, C. Adamo, R. Cammi, 
 J. W. Ochterski, R. L. Martin, K. Morokuma, O. Farkas, 
 J. B. Foresman, and D. J. Fox, Gaussian, Inc., Wallingford CT, 2019.
 
 ******************************************
 Gaussian 16:  ES64L-G16RevC.01  3-Jul-2019
                24-May-2022 
 ******************************************
 %mem=8gb
 %nproc=4
 Will use up to    4 processors via shared memory.
 %chk=conf-474.chk
 ----------------------------------------------------------------------
 # B3LYP/6-31G* empiricaldispersion=gd3 guess=read geom=check nosymm in
 tegral(ultrafinegrid)
 ----------------------------------------------------------------------
 1/29=2,38=1,172=1/1;
 2/12=2,15=1,40=1/2;
 3/5=1,6=6,7=1,11=2,14=-4,25=1,30=1,74=-5,75=-5,116=-2,124=31/1,2,3;
 4/5=1/1;
 5/5=2,38=6/2;
 6/7=2,8=2,9=2,10=2,28=1/1;
 99/5=1,9=1/99;
 ------------------------------------------------------
 Candidate Structure: Conf:474 Charge calc in gas phase
 ------------------------------------------------------
 Structure from the checkpoint file:  "conf-474.chk"
 Charge =  1 Multiplicity = 1
 Redundant internal coordinates found in file.  (old form).
 N,0,12.2358765369,14.8322718509,10.9057910885
 C,0,12.5020429496,15.0690428229,12.37013699
 C,0,14.0054659687,15.0426497898,12.6259268214
 O,0,14.7556286242,14.5236053589,11.8086824973
 C,0,11.68108387,14.0806135019,13.2123763456
 C,0,10.1543066963,14.2704721206,13.017520328
 C,0,9.9153480286,15.7674728772,12.8227110811
 O,0,9.9422175579,16.196462208,11.622062468
 O,0,9.8746784063,16.5074701516,13.8457546637
 H,0,12.9340748439,15.3149805448,10.3287153948
 H,0,12.1431350684,16.0840190944,12.5231850433
 H,0,11.9414236354,14.2476510106,14.259670126
 H,0,11.9934338899,13.0554693829,12.9784809187
 H,0,9.7959456008,13.724828693,12.1395855679
 H,0,9.625811411,13.8986130809,13.8978110607
 H,0,12.3019776982,13.8381678175,10.6656945596
 H,0,11.267159677,15.213402386,10.7422758354
 N,0,14.3782319762,15.6281485982,13.794910986
 C,0,13.5448094334,16.5566279616,14.5785915743
 C,0,13.5775334696,17.9535071438,13.9358561068
 O,0,14.6404665148,18.5199271812,13.7356366487
 C,0,14.0650571507,16.6566072201,16.021497563
 C,0,13.2414759211,17.6001198533,16.9219880531
 C,0,11.7728235897,17.1610984379,17.0539679727
 C,0,13.9015836578,17.6990678392,18.3045178184
 H,0,15.3831209469,15.7211876284,13.9117641499
 H,0,12.523755642,16.1779643277,14.6098035224
 H,0,15.1030653745,17.0093906871,15.9832101571
 H,0,14.0720514295,15.6466165965,16.4511421023
 H,0,13.2685152007,18.6047321184,16.4713918505
 H,0,11.7097718545,16.1573830253,17.4932272856
 H,0,11.2287937572,17.8406352148,17.7197858693
 H,0,11.2338490657,17.1290839239,16.0985092617
 H,0,13.358342252,18.3990800749,18.9481002338
 H,0,13.9069957097,16.7221945056,18.8036853717
 H,0,14.9380665677,18.0454541324,18.2284497056
 N,0,12.3576774069,18.5354718646,13.6687691642
 C,0,12.3263845746,19.904408204,13.1509426037
 C,0,11.1518882142,20.6825081904,13.7455037572
 O,0,10.6672468567,21.6546174339,13.2064132937
 C,0,12.4407663643,20.0465695444,11.6212633643
 C,0,11.4206865676,19.3144043989,10.735430161
 C,0,9.9453009632,19.7049383525,10.9176733253
 N,0,9.3944297169,18.9946626393,12.0796297204
 C,0,8.4300660221,19.4032386159,12.9088059673
 N,0,7.9823150496,20.6776927063,12.8972253097
 N,0,7.878262539,18.4989577814,13.7363523783
 O,0,10.6870379131,20.2553062795,14.9350440868
 H,0,11.2128635112,19.4858819426,15.2289478961
 H,0,11.5082746552,17.9673802234,13.6518536196
 H,0,13.2258898275,20.3803853573,13.5645162673
 H,0,13.4438941109,19.6953681118,11.3565333936
 H,0,12.4101284172,21.1185690563,11.4011317289
 H,0,11.6922542773,19.5180549728,9.6931585805
 H,0,11.5052293877,18.2270716115,10.8660850391
 H,0,9.3662545149,19.4207043055,10.0309587555
 H,0,9.8551383615,20.7832808969,11.0477112904
 H,0,9.5461360344,17.9764783988,12.0239631879
 H,0,8.6596789544,21.3930218906,12.6491929726
 H,0,7.3804260482,20.9577779941,13.6609596508
 H,0,7.3373097581,18.8293030705,14.523398897
 H,0,8.4078377169,17.6306656546,13.8782100261
 Recover connectivity data from disk.
                           ----------------------------
                           !    Current Parameters    !
                           ! (Angstroms and Degrees)  !
 --------------------------                            --------------------------
 ! Name  Definition              Value                                          !
 --------------------------------------------------------------------------------
 ! R1    R(1,2)                  1.5071                                         !
 ! R2    R(1,10)                 1.0264                                         !
 ! R3    R(1,16)                 1.0248                                         !
 ! R4    R(1,17)                 1.0538                                         !
 ! R5    R(2,3)                  1.5253                                         !
 ! R6    R(2,5)                  1.5363                                         !
 ! R7    R(2,11)                 1.0874                                         !
 ! R8    R(3,4)                  1.2248                                         !
 ! R9    R(3,18)                 1.3595                                         !
 ! R10   R(5,6)                  1.5508                                         !
 ! R11   R(5,12)                 1.092                                          !
 ! R12   R(5,13)                 1.0969                                         !
 ! R13   R(6,7)                  1.5284                                         !
 ! R14   R(6,14)                 1.094                                          !
 ! R15   R(6,15)                 1.092                                          !
 ! R16   R(7,8)                  1.2753                                         !
 ! R17   R(7,9)                  1.2633                                         !
 ! R18   R(18,19)                1.4734                                         !
 ! R19   R(18,26)                1.0159                                         !
 ! R20   R(19,20)                1.538                                          !
 ! R21   R(19,22)                1.5371                                         !
 ! R22   R(19,27)                1.0895                                         !
 ! R23   R(20,21)                1.221                                          !
 ! R24   R(20,37)                1.3777                                         !
 ! R25   R(22,23)                1.5425                                         !
 ! R26   R(22,28)                1.097                                          !
 ! R27   R(22,29)                1.0976                                         !
 ! R28   R(23,24)                1.5385                                         !
 ! R29   R(23,25)                1.5352                                         !
 ! R30   R(23,30)                1.1014                                         !
 ! R31   R(24,31)                1.0974                                         !
 ! R32   R(24,32)                1.0959                                         !
 ! R33   R(24,33)                1.0975                                         !
 ! R34   R(25,34)                1.0951                                         !
 ! R35   R(25,35)                1.097                                          !
 ! R36   R(25,36)                1.0955                                         !
 ! R37   R(37,38)                1.4639                                         !
 ! R38   R(37,50)                1.022                                          !
 ! R39   R(38,39)                1.5292                                         !
 ! R40   R(38,41)                1.5405                                         !
 ! R41   R(38,51)                1.0985                                         !
 ! R42   R(39,40)                1.2126                                         !
 ! R43   R(39,48)                1.3467                                         !
 ! R44   R(41,42)                1.5367                                         !
 ! R45   R(41,52)                1.0953                                         !
 ! R46   R(41,53)                1.0948                                         !
 ! R47   R(42,43)                1.537                                          !
 ! R48   R(42,54)                1.0962                                         !
 ! R49   R(42,55)                1.0984                                         !
 ! R50   R(43,44)                1.469                                          !
 ! R51   R(43,56)                1.0965                                         !
 ! R52   R(43,57)                1.0899                                         !
 ! R53   R(44,45)                1.3358                                         !
 ! R54   R(44,58)                1.0309                                         !
 ! R55   R(45,46)                1.3509                                         !
 ! R56   R(45,47)                1.3443                                         !
 ! R57   R(46,59)                1.0159                                         !
 ! R58   R(46,60)                1.0119                                         !
 ! R59   R(47,61)                1.0105                                         !
 ! R60   R(47,62)                1.0269                                         !
 ! R61   R(48,49)                0.9772                                         !
 ! A1    A(2,1,10)             110.6263                                         !
 ! A2    A(2,1,16)             111.6324                                         !
 ! A3    A(2,1,17)             104.8513                                         !
 ! A4    A(10,1,16)            106.296                                          !
 ! A5    A(10,1,17)            111.5922                                         !
 ! A6    A(16,1,17)            111.9493                                         !
 ! A7    A(1,2,3)              109.531                                          !
 ! A8    A(1,2,5)              109.7077                                         !
 ! A9    A(1,2,11)             103.0094                                         !
 ! A10   A(3,2,5)              115.0648                                         !
 ! A11   A(3,2,11)             108.5352                                         !
 ! A12   A(5,2,11)             110.3033                                         !
 ! A13   A(2,3,4)              119.9445                                         !
 ! A14   A(2,3,18)             114.0173                                         !
 ! A15   A(4,3,18)             126.0382                                         !
 ! A16   A(2,5,6)              112.2365                                         !
 ! A17   A(2,5,12)             107.455                                          !
 ! A18   A(2,5,13)             109.4036                                         !
 ! A19   A(6,5,12)             109.6626                                         !
 ! A20   A(6,5,13)             111.5901                                         !
 ! A21   A(12,5,13)            106.2345                                         !
 ! A22   A(5,6,7)              106.8485                                         !
 ! A23   A(5,6,14)             111.2383                                         !
 ! A24   A(5,6,15)             109.4804                                         !
 ! A25   A(7,6,14)             109.5724                                         !
 ! A26   A(7,6,15)             111.1375                                         !
 ! A27   A(14,6,15)            108.5737                                         !
 ! A28   A(6,7,8)              116.499                                          !
 ! A29   A(6,7,9)              118.3951                                         !
 ! A30   A(8,7,9)              124.477                                          !
 ! A31   A(3,18,19)            125.0051                                         !
 ! A32   A(3,18,26)            114.1767                                         !
 ! A33   A(19,18,26)           116.1434                                         !
 ! A34   A(18,19,20)           109.7571                                         !
 ! A35   A(18,19,22)           110.4165                                         !
 ! A36   A(18,19,27)           109.0474                                         !
 ! A37   A(20,19,22)           109.0274                                         !
 ! A38   A(20,19,27)           110.3402                                         !
 ! A39   A(22,19,27)           108.2357                                         !
 ! A40   A(19,20,21)           120.5572                                         !
 ! A41   A(19,20,37)           116.4767                                         !
 ! A42   A(21,20,37)           122.893                                          !
 ! A43   A(19,22,23)           114.0217                                         !
 ! A44   A(19,22,28)           107.9641                                         !
 ! A45   A(19,22,29)           108.0448                                         !
 ! A46   A(23,22,28)           109.2007                                         !
 ! A47   A(23,22,29)           109.7389                                         !
 ! A48   A(28,22,29)           107.6713                                         !
 ! A49   A(22,23,24)           112.6564                                         !
 ! A50   A(22,23,25)           109.6069                                         !
 ! A51   A(22,23,30)           107.8175                                         !
 ! A52   A(24,23,25)           110.5842                                         !
 ! A53   A(24,23,30)           108.5911                                         !
 ! A54   A(25,23,30)           107.4027                                         !
 ! A55   A(23,24,31)           110.4971                                         !
 ! A56   A(23,24,32)           110.429                                          !
 ! A57   A(23,24,33)           113.731                                          !
 ! A58   A(31,24,32)           107.1821                                         !
 ! A59   A(31,24,33)           107.072                                          !
 ! A60   A(32,24,33)           107.6514                                         !
 ! A61   A(23,25,34)           110.9241                                         !
 ! A62   A(23,25,35)           110.7621                                         !
 ! A63   A(23,25,36)           111.3871                                         !
 ! A64   A(34,25,35)           107.7121                                         !
 ! A65   A(34,25,36)           107.9405                                         !
 ! A66   A(35,25,36)           107.9684                                         !
 ! A67   A(20,37,38)           118.8491                                         !
 ! A68   A(20,37,50)           120.2845                                         !
 ! A69   A(38,37,50)           119.7467                                         !
 ! A70   A(37,38,39)           110.7752                                         !
 ! A71   A(37,38,41)           115.845                                          !
 ! A72   A(37,38,51)           104.7441                                         !
 ! A73   A(39,38,41)           113.3374                                         !
 ! A74   A(39,38,51)           105.1924                                         !
 ! A75   A(41,38,51)           105.8461                                         !
 ! A76   A(38,39,40)           122.8211                                         !
 ! A77   A(38,39,48)           116.5604                                         !
 ! A78   A(40,39,48)           120.5991                                         !
 ! A79   A(38,41,42)           118.63                                           !
 ! A80   A(38,41,52)           106.165                                          !
 ! A81   A(38,41,53)           106.7345                                         !
 ! A82   A(42,41,52)           108.4127                                         !
 ! A83   A(42,41,53)           109.3936                                         !
 ! A84   A(52,41,53)           106.9177                                         !
 ! A85   A(41,42,43)           116.6019                                         !
 ! A86   A(41,42,54)           107.1664                                         !
 ! A87   A(41,42,55)           110.6094                                         !
 ! A88   A(43,42,54)           107.6585                                         !
 ! A89   A(43,42,55)           108.1374                                         !
 ! A90   A(54,42,55)           106.1376                                         !
 ! A91   A(42,43,44)           109.3222                                         !
 ! A92   A(42,43,56)           110.1911                                         !
 ! A93   A(42,43,57)           110.1784                                         !
 ! A94   A(44,43,56)           108.4376                                         !
 ! A95   A(44,43,57)           110.6696                                         !
 ! A96   A(56,43,57)           108.0151                                         !
 ! A97   A(43,44,45)           127.864                                          !
 ! A98   A(43,44,58)           112.3106                                         !
 ! A99   A(45,44,58)           116.2205                                         !
 ! A100  A(44,45,46)           121.5012                                         !
 ! A101  A(44,45,47)           118.2103                                         !
 ! A102  A(46,45,47)           120.2559                                         !
 ! A103  A(45,46,59)           116.4488                                         !
 ! A104  A(45,46,60)           116.8593                                         !
 ! A105  A(59,46,60)           112.7035                                         !
 ! A106  A(45,47,61)           118.6394                                         !
 ! A107  A(45,47,62)           116.2413                                         !
 ! A108  A(61,47,62)           116.4158                                         !
 ! A109  A(39,48,49)           109.2508                                         !
 ! D1    D(10,1,2,3)           -38.9622                                         !
 ! D2    D(10,1,2,5)          -166.158                                          !
 ! D3    D(10,1,2,11)           76.3872                                         !
 ! D4    D(16,1,2,3)            79.1895                                         !
 ! D5    D(16,1,2,5)           -48.0062                                         !
 ! D6    D(16,1,2,11)         -165.4611                                         !
 ! D7    D(17,1,2,3)          -159.4                                            !
 ! D8    D(17,1,2,5)            73.4042                                         !
 ! D9    D(17,1,2,11)          -44.0506                                         !
 ! D10   D(1,2,3,4)            -18.6777                                         !
 ! D11   D(1,2,3,18)           161.3167                                         !
 ! D12   D(5,2,3,4)            105.4411                                         !
 ! D13   D(5,2,3,18)           -74.5645                                         !
 ! D14   D(11,2,3,4)          -130.4461                                         !
 ! D15   D(11,2,3,18)           49.5483                                         !
 ! D16   D(1,2,5,6)            -62.354                                          !
 ! D17   D(1,2,5,12)           177.008                                          !
 ! D18   D(1,2,5,13)            62.0809                                         !
 ! D19   D(3,2,5,6)            173.6204                                         !
 ! D20   D(3,2,5,12)            52.9824                                         !
 ! D21   D(3,2,5,13)           -61.9447                                         !
 ! D22   D(11,2,5,6)            50.4442                                         !
 ! D23   D(11,2,5,12)          -70.1938                                         !
 ! D24   D(11,2,5,13)          174.8791                                         !
 ! D25   D(2,3,18,19)          -17.7052                                         !
 ! D26   D(2,3,18,26)         -172.4013                                         !
 ! D27   D(4,3,18,19)          162.2888                                         !
 ! D28   D(4,3,18,26)            7.5927                                         !
 ! D29   D(2,5,6,7)            -34.9467                                         !
 ! D30   D(2,5,6,14)            84.6061                                         !
 ! D31   D(2,5,6,15)          -155.3965                                         !
 ! D32   D(12,5,6,7)            84.4074                                         !
 ! D33   D(12,5,6,14)         -156.0399                                         !
 ! D34   D(12,5,6,15)          -36.0424                                         !
 ! D35   D(13,5,6,7)          -158.1616                                         !
 ! D36   D(13,5,6,14)          -38.6088                                         !
 ! D37   D(13,5,6,15)           81.3886                                         !
 ! D38   D(5,6,7,8)             90.6296                                         !
 ! D39   D(5,6,7,9)            -80.6917                                         !
 ! D40   D(14,6,7,8)           -29.9929                                         !
 ! D41   D(14,6,7,9)           158.6858                                         !
 ! D42   D(15,6,7,8)          -149.9864                                         !
 ! D43   D(15,6,7,9)            38.6922                                         !
 ! D44   D(3,18,19,20)         -78.3047                                         !
 ! D45   D(3,18,19,22)         161.4751                                         !
 ! D46   D(3,18,19,27)          42.675                                          !
 ! D47   D(26,18,19,20)         75.9503                                         !
 ! D48   D(26,18,19,22)        -44.27                                           !
 ! D49   D(26,18,19,27)       -163.07                                           !
 ! D50   D(18,19,20,21)        -55.4876                                         !
 ! D51   D(18,19,20,37)        127.5331                                         !
 ! D52   D(22,19,20,21)         65.5733                                         !
 ! D53   D(22,19,20,37)       -111.406                                          !
 ! D54   D(27,19,20,21)       -175.6845                                         !
 ! D55   D(27,19,20,37)          7.3362                                         !
 ! D56   D(18,19,22,23)       -179.4341                                         !
 ! D57   D(18,19,22,28)         59.0311                                         !
 ! D58   D(18,19,22,29)        -57.1525                                         !
 ! D59   D(20,19,22,23)         59.9085                                         !
 ! D60   D(20,19,22,28)        -61.6263                                         !
 ! D61   D(20,19,22,29)       -177.8099                                         !
 ! D62   D(27,19,22,23)        -60.141                                          !
 ! D63   D(27,19,22,28)        178.3242                                         !
 ! D64   D(27,19,22,29)         62.1406                                         !
 ! D65   D(19,20,37,38)        175.4481                                         !
 ! D66   D(19,20,37,50)        -16.676                                          !
 ! D67   D(21,20,37,38)         -1.454                                          !
 ! D68   D(21,20,37,50)        166.4218                                         !
 ! D69   D(19,22,23,24)         60.2759                                         !
 ! D70   D(19,22,23,25)       -176.1423                                         !
 ! D71   D(19,22,23,30)        -59.5281                                         !
 ! D72   D(28,22,23,24)       -178.876                                          !
 ! D73   D(28,22,23,25)        -55.2942                                         !
 ! D74   D(28,22,23,30)         61.32                                           !
 ! D75   D(29,22,23,24)        -61.0711                                         !
 ! D76   D(29,22,23,25)         62.5106                                         !
 ! D77   D(29,22,23,30)        179.1248                                         !
 ! D78   D(22,23,24,31)         60.1703                                         !
 ! D79   D(22,23,24,32)        178.5807                                         !
 ! D80   D(22,23,24,33)        -60.2742                                         !
 ! D81   D(25,23,24,31)        -62.8673                                         !
 ! D82   D(25,23,24,32)         55.5431                                         !
 ! D83   D(25,23,24,33)        176.6882                                         !
 ! D84   D(30,23,24,31)        179.5262                                         !
 ! D85   D(30,23,24,32)        -62.0634                                         !
 ! D86   D(30,23,24,33)         59.0817                                         !
 ! D87   D(22,23,25,34)        177.4971                                         !
 ! D88   D(22,23,25,35)        -62.9462                                         !
 ! D89   D(22,23,25,36)         57.2384                                         !
 ! D90   D(24,23,25,34)        -57.712                                          !
 ! D91   D(24,23,25,35)         61.8447                                         !
 ! D92   D(24,23,25,36)       -177.9707                                         !
 ! D93   D(30,23,25,34)         60.6216                                         !
 ! D94   D(30,23,25,35)       -179.8217                                         !
 ! D95   D(30,23,25,36)        -59.6371                                         !
 ! D96   D(20,37,38,39)       -142.3585                                         !
 ! D97   D(20,37,38,41)         86.7563                                         !
 ! D98   D(20,37,38,51)        -29.4247                                         !
 ! D99   D(50,37,38,39)         49.6991                                         !
 ! D100  D(50,37,38,41)        -81.1861                                         !
 ! D101  D(50,37,38,51)        162.6329                                         !
 ! D102  D(37,38,39,40)       -156.9814                                         !
 ! D103  D(37,38,39,48)         24.6158                                         !
 ! D104  D(41,38,39,40)        -24.8005                                         !
 ! D105  D(41,38,39,48)        156.7967                                         !
 ! D106  D(51,38,39,40)         90.37                                           !
 ! D107  D(51,38,39,48)        -88.0327                                         !
 ! D108  D(37,38,41,42)         56.4713                                         !
 ! D109  D(37,38,41,52)        -65.7309                                         !
 ! D110  D(37,38,41,53)       -179.5299                                         !
 ! D111  D(39,38,41,42)        -73.1884                                         !
 ! D112  D(39,38,41,52)        164.6094                                         !
 ! D113  D(39,38,41,53)         50.8104                                         !
 ! D114  D(51,38,41,42)        172.0308                                         !
 ! D115  D(51,38,41,52)         49.8286                                         !
 ! D116  D(51,38,41,53)        -63.9704                                         !
 ! D117  D(38,39,48,49)          0.3947                                         !
 ! D118  D(40,39,48,49)       -178.0459                                         !
 ! D119  D(38,41,42,43)         61.0309                                         !
 ! D120  D(38,41,42,54)       -178.32                                           !
 ! D121  D(38,41,42,55)        -63.0449                                         !
 ! D122  D(52,41,42,43)       -177.9027                                         !
 ! D123  D(52,41,42,54)        -57.2536                                         !
 ! D124  D(52,41,42,55)         58.0214                                         !
 ! D125  D(53,41,42,43)        -61.6494                                         !
 ! D126  D(53,41,42,54)         58.9996                                         !
 ! D127  D(53,41,42,55)        174.2747                                         !
 ! D128  D(41,42,43,44)        -81.4922                                         !
 ! D129  D(41,42,43,56)        159.4273                                         !
 ! D130  D(41,42,43,57)         40.3353                                         !
 ! D131  D(54,42,43,44)        158.1205                                         !
 ! D132  D(54,42,43,56)         39.04                                           !
 ! D133  D(54,42,43,57)        -80.052                                          !
 ! D134  D(55,42,43,44)         43.839                                          !
 ! D135  D(55,42,43,56)        -75.2415                                         !
 ! D136  D(55,42,43,57)        165.6665                                         !
 ! D137  D(42,43,44,45)        149.3885                                         !
 ! D138  D(42,43,44,58)        -53.0982                                         !
 ! D139  D(56,43,44,45)        -90.45                                           !
 ! D140  D(56,43,44,58)         67.0633                                         !
 ! D141  D(57,43,44,45)         27.8574                                         !
 ! D142  D(57,43,44,58)       -174.6292                                         !
 ! D143  D(43,44,45,46)        -11.6112                                         !
 ! D144  D(43,44,45,47)        166.318                                          !
 ! D145  D(58,44,45,46)       -168.3812                                         !
 ! D146  D(58,44,45,47)          9.548                                          !
 ! D147  D(44,45,46,59)        -31.5909                                         !
 ! D148  D(44,45,46,60)       -168.9106                                         !
 ! D149  D(47,45,46,59)        150.5218                                         !
 ! D150  D(47,45,46,60)         13.2021                                         !
 ! D151  D(44,45,47,61)        163.9611                                         !
 ! D152  D(44,45,47,62)         17.4128                                         !
 ! D153  D(46,45,47,61)        -18.083                                          !
 ! D154  D(46,45,47,62)       -164.6313                                         !
 --------------------------------------------------------------------------------
 Symmetry turned off by external request.
 Stoichiometry    C17H33N6O6(1+)
 Framework group  C1[X(C17H33N6O6)]
 Deg. of freedom   180
 Full point group                 C1      NOp   1
                          Input orientation:                          
 ---------------------------------------------------------------------
 Center     Atomic      Atomic             Coordinates (Angstroms)
 Number     Number       Type             X           Y           Z
 ---------------------------------------------------------------------
      1          7           0       12.235877   14.832272   10.905791
      2          6           0       12.502043   15.069043   12.370137
      3          6           0       14.005466   15.042650   12.625927
      4          8           0       14.755629   14.523605   11.808682
      5          6           0       11.681084   14.080614   13.212376
      6          6           0       10.154307   14.270472   13.017520
      7          6           0        9.915348   15.767473   12.822711
      8          8           0        9.942218   16.196462   11.622062
      9          8           0        9.874678   16.507470   13.845755
     10          1           0       12.934075   15.314981   10.328715
     11          1           0       12.143135   16.084019   12.523185
     12          1           0       11.941424   14.247651   14.259670
     13          1           0       11.993434   13.055469   12.978481
     14          1           0        9.795946   13.724829   12.139586
     15          1           0        9.625811   13.898613   13.897811
     16          1           0       12.301978   13.838168   10.665695
     17          1           0       11.267160   15.213402   10.742276
     18          7           0       14.378232   15.628149   13.794911
     19          6           0       13.544809   16.556628   14.578592
     20          6           0       13.577533   17.953507   13.935856
     21          8           0       14.640467   18.519927   13.735637
     22          6           0       14.065057   16.656607   16.021498
     23          6           0       13.241476   17.600120   16.921988
     24          6           0       11.772824   17.161098   17.053968
     25          6           0       13.901584   17.699068   18.304518
     26          1           0       15.383121   15.721188   13.911764
     27          1           0       12.523756   16.177964   14.609804
     28          1           0       15.103065   17.009391   15.983210
     29          1           0       14.072051   15.646617   16.451142
     30          1           0       13.268515   18.604732   16.471392
     31          1           0       11.709772   16.157383   17.493227
     32          1           0       11.228794   17.840635   17.719786
     33          1           0       11.233849   17.129084   16.098509
     34          1           0       13.358342   18.399080   18.948100
     35          1           0       13.906996   16.722195   18.803685
     36          1           0       14.938067   18.045454   18.228450
     37          7           0       12.357677   18.535472   13.668769
     38          6           0       12.326385   19.904408   13.150943
     39          6           0       11.151888   20.682508   13.745504
     40          8           0       10.667247   21.654617   13.206413
     41          6           0       12.440766   20.046570   11.621263
     42          6           0       11.420687   19.314404   10.735430
     43          6           0        9.945301   19.704938   10.917673
     44          7           0        9.394430   18.994663   12.079630
     45          6           0        8.430066   19.403239   12.908806
     46          7           0        7.982315   20.677693   12.897225
     47          7           0        7.878263   18.498958   13.736352
     48          8           0       10.687038   20.255306   14.935044
     49          1           0       11.212864   19.485882   15.228948
     50          1           0       11.508275   17.967380   13.651854
     51          1           0       13.225890   20.380385   13.564516
     52          1           0       13.443894   19.695368   11.356533
     53          1           0       12.410128   21.118569   11.401132
     54          1           0       11.692254   19.518055    9.693159
     55          1           0       11.505229   18.227072   10.866085
     56          1           0        9.366255   19.420704   10.030959
     57          1           0        9.855138   20.783281   11.047711
     58          1           0        9.546136   17.976478   12.023963
     59          1           0        8.659679   21.393022   12.649193
     60          1           0        7.380426   20.957778   13.660960
     61          1           0        7.337310   18.829303   14.523399
     62          1           0        8.407838   17.630666   13.878210
 ---------------------------------------------------------------------
 Rotational constants (GHZ):           0.1983410           0.1457115           0.1199386
 Standard basis: 6-31G(d) (6D, 7F)
   501 basis functions,   944 primitive gaussians,   501 cartesian basis functions
   112 alpha electrons      112 beta electrons
       nuclear repulsion energy      3358.4470977875 Hartrees.
 NAtoms=   62 NActive=   62 NUniq=   62 SFac= 1.00D+00 NAtFMM=   60 NAOKFM=T Big=T
 Integral buffers will be    131072 words long.
 Raffenetti 2 integral format.
 Two-electron integral symmetry is turned off.
 Nuclear repulsion after empirical dispersion term =     3358.3512533076 Hartrees.
 One-electron integrals computed using PRISM.
 NBasis=   501 RedAO= T EigKep=  1.60D-03  NBF=   501
 NBsUse=   501 1.00D-06 EigRej= -1.00D+00 NBFU=   501
 Initial guess from the checkpoint file:  "conf-474.chk"
 B after Tr=     0.000000    0.000000    0.000000
         Rot=    1.000000    0.000000    0.000000    0.000000 Ang=   0.00 deg.
 Requested convergence on RMS density matrix=1.00D-08 within 128 cycles.
 Requested convergence on MAX density matrix=1.00D-06.
 Requested convergence on             energy=1.00D-06.
 No special actions if energy rises.
 SCF Done:  E(RB3LYP) =  -1447.51716700     A.U. after    1 cycles
            NFock=  1  Conv=0.85D-08     -V/T= 2.0093

 **********************************************************************

            Population analysis using the SCF Density.

 **********************************************************************

 Alpha  occ. eigenvalues --  -19.31085 -19.25191 -19.25110 -19.23742 -19.23723
 Alpha  occ. eigenvalues --  -19.23186 -14.59418 -14.48896 -14.48873 -14.48750
 Alpha  occ. eigenvalues --  -14.48711 -14.48341 -10.45426 -10.43742 -10.42575
 Alpha  occ. eigenvalues --  -10.41136 -10.40743 -10.39434 -10.35732 -10.35438
 Alpha  occ. eigenvalues --  -10.34170 -10.34132 -10.31278 -10.30480 -10.29889
 Alpha  occ. eigenvalues --  -10.29619 -10.29394 -10.27294 -10.26056  -1.21885
 Alpha  occ. eigenvalues --   -1.17676  -1.16649  -1.15844  -1.14005  -1.13551
 Alpha  occ. eigenvalues --   -1.13420  -1.07337  -1.05600  -1.04663  -1.03362
 Alpha  occ. eigenvalues --   -1.01993  -0.94212  -0.92248  -0.91034  -0.87193
 Alpha  occ. eigenvalues --   -0.86317  -0.84736  -0.80235  -0.77909  -0.77320
 Alpha  occ. eigenvalues --   -0.75902  -0.75345  -0.74777  -0.73453  -0.72445
 Alpha  occ. eigenvalues --   -0.71879  -0.71095  -0.70769  -0.69797  -0.68043
 Alpha  occ. eigenvalues --   -0.67461  -0.65712  -0.65206  -0.62674  -0.62215
 Alpha  occ. eigenvalues --   -0.61941  -0.61101  -0.60929  -0.60572  -0.59616
 Alpha  occ. eigenvalues --   -0.58441  -0.58322  -0.57542  -0.57049  -0.56895
 Alpha  occ. eigenvalues --   -0.56409  -0.55939  -0.55076  -0.54593  -0.54197
 Alpha  occ. eigenvalues --   -0.53955  -0.53248  -0.52975  -0.52772  -0.52097
 Alpha  occ. eigenvalues --   -0.51245  -0.50946  -0.50560  -0.49978  -0.49752
 Alpha  occ. eigenvalues --   -0.48540  -0.48297  -0.48007  -0.47347  -0.46429
 Alpha  occ. eigenvalues --   -0.46218  -0.45694  -0.45418  -0.43390  -0.43155
 Alpha  occ. eigenvalues --   -0.42608  -0.42491  -0.40519  -0.40117  -0.39582
 Alpha  occ. eigenvalues --   -0.39376  -0.38638  -0.38484  -0.38071  -0.37506
 Alpha  occ. eigenvalues --   -0.37079  -0.36326
 Alpha virt. eigenvalues --   -0.11960  -0.11062  -0.10751  -0.10292  -0.09982
 Alpha virt. eigenvalues --   -0.09372  -0.05625  -0.04869  -0.04295  -0.02881
 Alpha virt. eigenvalues --   -0.02458  -0.02009  -0.00970  -0.00314   0.00401
 Alpha virt. eigenvalues --    0.00789   0.01416   0.01985   0.02592   0.02954
 Alpha virt. eigenvalues --    0.03445   0.03990   0.04266   0.04576   0.05045
 Alpha virt. eigenvalues --    0.05374   0.05680   0.06078   0.06317   0.07106
 Alpha virt. eigenvalues --    0.07281   0.07668   0.08151   0.08494   0.09006
 Alpha virt. eigenvalues --    0.09255   0.09499   0.09836   0.10171   0.10432
 Alpha virt. eigenvalues --    0.11102   0.11196   0.11735   0.11959   0.12846
 Alpha virt. eigenvalues --    0.13075   0.13811   0.14162   0.14466   0.15188
 Alpha virt. eigenvalues --    0.15452   0.16493   0.16873   0.17357   0.18447
 Alpha virt. eigenvalues --    0.18948   0.22139   0.22521   0.24938   0.25754
 Alpha virt. eigenvalues --    0.27176   0.27714   0.28804   0.28943   0.30280
 Alpha virt. eigenvalues --    0.31449   0.35877   0.36664   0.37072   0.38145
 Alpha virt. eigenvalues --    0.38239   0.39216   0.40785   0.40941   0.41576
 Alpha virt. eigenvalues --    0.41747   0.42577   0.43108   0.44537   0.44647
 Alpha virt. eigenvalues --    0.45430   0.46188   0.46537   0.47226   0.47905
 Alpha virt. eigenvalues --    0.48681   0.49061   0.49493   0.50082   0.50993
 Alpha virt. eigenvalues --    0.51420   0.52017   0.52970   0.53279   0.53929
 Alpha virt. eigenvalues --    0.54214   0.54596   0.54904   0.55375   0.55736
 Alpha virt. eigenvalues --    0.56587   0.57467   0.57968   0.58501   0.59527
 Alpha virt. eigenvalues --    0.59866   0.60747   0.60852   0.62266   0.62802
 Alpha virt. eigenvalues --    0.63337   0.64336   0.65537   0.66941   0.66970
 Alpha virt. eigenvalues --    0.67248   0.67699   0.68038   0.68560   0.68624
 Alpha virt. eigenvalues --    0.69209   0.69813   0.70888   0.71376   0.72031
 Alpha virt. eigenvalues --    0.72145   0.72398   0.72717   0.73503   0.73716
 Alpha virt. eigenvalues --    0.74383   0.74726   0.75035   0.75796   0.76505
 Alpha virt. eigenvalues --    0.77105   0.77579   0.78118   0.79471   0.79938
 Alpha virt. eigenvalues --    0.80281   0.80515   0.81752   0.82063   0.82448
 Alpha virt. eigenvalues --    0.82696   0.83046   0.83584   0.83810   0.84254
 Alpha virt. eigenvalues --    0.84675   0.85511   0.85900   0.86333   0.86588
 Alpha virt. eigenvalues --    0.87359   0.87918   0.88809   0.89340   0.89893
 Alpha virt. eigenvalues --    0.91087   0.92251   0.92297   0.93608   0.93845
 Alpha virt. eigenvalues --    0.94529   0.95647   0.95864   0.96673   0.96987
 Alpha virt. eigenvalues --    0.98134   0.98829   0.99776   1.00227   1.01765
 Alpha virt. eigenvalues --    1.02302   1.03577   1.04780   1.05652   1.07094
 Alpha virt. eigenvalues --    1.08219   1.08511   1.08871   1.11167   1.12664
 Alpha virt. eigenvalues --    1.12982   1.14465   1.16348   1.17105   1.17742
 Alpha virt. eigenvalues --    1.19142   1.20087   1.20727   1.21137   1.22476
 Alpha virt. eigenvalues --    1.23120   1.24417   1.26029   1.26942   1.28699
 Alpha virt. eigenvalues --    1.29185   1.30866   1.32407   1.34200   1.35070
 Alpha virt. eigenvalues --    1.36101   1.36778   1.37936   1.38206   1.39024
 Alpha virt. eigenvalues --    1.40938   1.41535   1.43867   1.44028   1.44768
 Alpha virt. eigenvalues --    1.46011   1.48110   1.48733   1.49649   1.51915
 Alpha virt. eigenvalues --    1.52079   1.54047   1.55044   1.56151   1.57033
 Alpha virt. eigenvalues --    1.57655   1.58783   1.59951   1.60276   1.61159
 Alpha virt. eigenvalues --    1.61913   1.63540   1.64171   1.65916   1.66469
 Alpha virt. eigenvalues --    1.67134   1.67728   1.69174   1.69545   1.69964
 Alpha virt. eigenvalues --    1.70192   1.70902   1.71115   1.71667   1.72480
 Alpha virt. eigenvalues --    1.73016   1.73379   1.74197   1.75153   1.75793
 Alpha virt. eigenvalues --    1.76210   1.76446   1.77682   1.78363   1.78962
 Alpha virt. eigenvalues --    1.79515   1.80941   1.81256   1.82329   1.83186
 Alpha virt. eigenvalues --    1.83606   1.84646   1.85672   1.86442   1.87592
 Alpha virt. eigenvalues --    1.88429   1.89240   1.89674   1.90190   1.90395
 Alpha virt. eigenvalues --    1.91730   1.91966   1.92642   1.93505   1.94067
 Alpha virt. eigenvalues --    1.94722   1.95599   1.96960   1.97305   1.99367
 Alpha virt. eigenvalues --    2.00025   2.00837   2.01448   2.03370   2.04253
 Alpha virt. eigenvalues --    2.04940   2.06239   2.06792   2.07779   2.08670
 Alpha virt. eigenvalues --    2.10599   2.10749   2.13234   2.13492   2.14329
 Alpha virt. eigenvalues --    2.14957   2.16535   2.16808   2.17362   2.18840
 Alpha virt. eigenvalues --    2.19650   2.20076   2.20929   2.21880   2.22897
 Alpha virt. eigenvalues --    2.24138   2.24473   2.26894   2.27970   2.29223
 Alpha virt. eigenvalues --    2.30873   2.32083   2.32845   2.34083   2.35185
 Alpha virt. eigenvalues --    2.37097   2.37613   2.37756   2.39401   2.39864
 Alpha virt. eigenvalues --    2.42722   2.43814   2.44201   2.45252   2.46924
 Alpha virt. eigenvalues --    2.48059   2.50831   2.51653   2.52395   2.52667
 Alpha virt. eigenvalues --    2.54604   2.55271   2.55475   2.56288   2.57644
 Alpha virt. eigenvalues --    2.58656   2.59617   2.59755   2.62753   2.64386
 Alpha virt. eigenvalues --    2.65542   2.66423   2.67322   2.68869   2.70463
 Alpha virt. eigenvalues --    2.74471   2.77125   2.80936   2.83641   2.86327
 Alpha virt. eigenvalues --    2.87505   2.88634   2.90553   2.92846   2.93176
 Alpha virt. eigenvalues --    2.99695   3.00774   3.02327   3.03096   3.04308
 Alpha virt. eigenvalues --    3.65589   3.71005   3.79855   3.84147   3.86313
 Alpha virt. eigenvalues --    3.90489   3.95743   3.99711   4.02576   4.06011
 Alpha virt. eigenvalues --    4.08613   4.09920   4.12841   4.16639   4.20185
 Alpha virt. eigenvalues --    4.20636   4.22390   4.23756   4.27628   4.29510
 Alpha virt. eigenvalues --    4.36991   4.39193   4.39848   4.42840   4.48121
 Alpha virt. eigenvalues --    4.50841   4.55110   4.55279   4.72047
          Condensed to atoms (all electrons):
 Mulliken charges:
               1
     1  N   -0.737782
     2  C   -0.153232
     3  C    0.618063
     4  O   -0.495026
     5  C   -0.296845
     6  C   -0.336799
     7  C    0.589845
     8  O   -0.603808
     9  O   -0.589756
    10  H    0.415480
    11  H    0.215658
    12  H    0.208099
    13  H    0.185178
    14  H    0.164240
    15  H    0.195680
    16  H    0.411965
    17  H    0.431508
    18  N   -0.586387
    19  C   -0.101494
    20  C    0.629589
    21  O   -0.498430
    22  C   -0.276495
    23  C   -0.098526
    24  C   -0.483662
    25  C   -0.446429
    26  H    0.365834
    27  H    0.169858
    28  H    0.173013
    29  H    0.161278
    30  H    0.129987
    31  H    0.158976
    32  H    0.162325
    33  H    0.147896
    34  H    0.160109
    35  H    0.154977
    36  H    0.161287
    37  N   -0.706019
    38  C   -0.068258
    39  C    0.634854
    40  O   -0.492290
    41  C   -0.273072
    42  C   -0.296972
    43  C   -0.145898
    44  N   -0.653659
    45  C    0.743277
    46  N   -0.730831
    47  N   -0.773079
    48  O   -0.583018
    49  H    0.443584
    50  H    0.379863
    51  H    0.231790
    52  H    0.174006
    53  H    0.185511
    54  H    0.172710
    55  H    0.130879
    56  H    0.186020
    57  H    0.190358
    58  H    0.415265
    59  H    0.397943
    60  H    0.361572
    61  H    0.357230
    62  H    0.412063
 Sum of Mulliken charges =   1.00000
 Mulliken charges with hydrogens summed into heavy atoms:
               1
     1  N    0.521172
     2  C    0.062426
     3  C    0.618063
     4  O   -0.495026
     5  C    0.096432
     6  C    0.023122
     7  C    0.589845
     8  O   -0.603808
     9  O   -0.589756
    18  N   -0.220553
    19  C    0.068364
    20  C    0.629589
    21  O   -0.498430
    22  C    0.057795
    23  C    0.031461
    24  C   -0.014464
    25  C    0.029944
    37  N   -0.326156
    38  C    0.163531
    39  C    0.634854
    40  O   -0.492290
    41  C    0.086444
    42  C    0.006616
    43  C    0.230480
    44  N   -0.238394
    45  C    0.743277
    46  N    0.028683
    47  N   -0.003786
    48  O   -0.139434
 Electronic spatial extent (au):  <R**2>=         513564.1286
 Charge=              1.0000 electrons
 Dipole moment (field-independent basis, Debye):
    X=             51.5408    Y=             81.0508    Z=             61.9320  Tot=            114.2859
 Quadrupole moment (field-independent basis, Debye-Ang):
   XX=            396.0612   YY=           1228.9871   ZZ=            660.2500
   XY=            850.9161   XZ=            663.0626   YZ=           1051.3144
 Traceless Quadrupole moment (field-independent basis, Debye-Ang):
   XX=           -365.7049   YY=            467.2210   ZZ=           -101.5161
   XY=            850.9161   XZ=            663.0626   YZ=           1051.3144
 Octapole moment (field-independent basis, Debye-Ang**2):
  XXX=            303.7365  YYY=          15655.8664  ZZZ=           4648.3934  XYY=          12335.8411
  XXY=           6207.2116  XXZ=           5044.3865  XZZ=           6933.8192  YZZ=          11175.4017
  YYZ=          15923.1509  XYZ=          10995.7959
 Hexadecapole moment (field-independent basis, Debye-Ang**3):
 XXXX=         -74746.7976 YYYY=         119974.2104 ZZZZ=         -24573.0369 XXXY=          -3479.4088
 XXXZ=           1615.8768 YYYX=         141139.9182 YYYZ=         200175.1713 ZZZX=          43968.1837
 ZZZY=          76477.0493 XXYY=          74411.2976 XXZZ=          44490.5322 YYZZ=         161111.5834
 XXYZ=          79269.5675 YYXZ=         158497.7353 ZZXY=         113880.2828
 N-N= 3.358351253308D+03 E-N=-1.006458764954D+04  KE= 1.434141872607D+03
 Unable to Open any file for archive entry.
 1\1\GINC-VIM-001\SP\RB3LYP\6-31G(d)\C17H33N6O6(1+)\KENGMITH\24-May-202
 2\0\\# B3LYP/6-31G* empiricaldispersion=gd3 guess=read geom=check nosy
 mm integral(ultrafinegrid)\\Candidate Structure: Conf:474 Charge calc 
 in gas phase\\1,1\N,0,12.2358765369,14.8322718509,10.9057910885\C,0,12
 .5020429496,15.0690428229,12.37013699\C,0,14.0054659687,15.0426497898,
 12.6259268214\O,0,14.7556286242,14.5236053589,11.8086824973\C,0,11.681
 08387,14.0806135019,13.2123763456\C,0,10.1543066963,14.2704721206,13.0
 17520328\C,0,9.9153480286,15.7674728772,12.8227110811\O,0,9.9422175579
 ,16.196462208,11.622062468\O,0,9.8746784063,16.5074701516,13.845754663
 7\H,0,12.9340748439,15.3149805448,10.3287153948\H,0,12.1431350684,16.0
 840190944,12.5231850433\H,0,11.9414236354,14.2476510106,14.259670126\H
 ,0,11.9934338899,13.0554693829,12.9784809187\H,0,9.7959456008,13.72482
 8693,12.1395855679\H,0,9.625811411,13.8986130809,13.8978110607\H,0,12.
 3019776982,13.8381678175,10.6656945596\H,0,11.267159677,15.213402386,1
 0.7422758354\N,0,14.3782319762,15.6281485982,13.794910986\C,0,13.54480
 94334,16.5566279616,14.5785915743\C,0,13.5775334696,17.9535071438,13.9
 358561068\O,0,14.6404665148,18.5199271812,13.7356366487\C,0,14.0650571
 507,16.6566072201,16.021497563\C,0,13.2414759211,17.6001198533,16.9219
 880531\C,0,11.7728235897,17.1610984379,17.0539679727\C,0,13.9015836578
 ,17.6990678392,18.3045178184\H,0,15.3831209469,15.7211876284,13.911764
 1499\H,0,12.523755642,16.1779643277,14.6098035224\H,0,15.1030653745,17
 .0093906871,15.9832101571\H,0,14.0720514295,15.6466165965,16.451142102
 3\H,0,13.2685152007,18.6047321184,16.4713918505\H,0,11.7097718545,16.1
 573830253,17.4932272856\H,0,11.2287937572,17.8406352148,17.7197858693\
 H,0,11.2338490657,17.1290839239,16.0985092617\H,0,13.358342252,18.3990
 800749,18.9481002338\H,0,13.9069957097,16.7221945056,18.8036853717\H,0
 ,14.9380665677,18.0454541324,18.2284497056\N,0,12.3576774069,18.535471
 8646,13.6687691642\C,0,12.3263845746,19.904408204,13.1509426037\C,0,11
 .1518882142,20.6825081904,13.7455037572\O,0,10.6672468567,21.654617433
 9,13.2064132937\C,0,12.4407663643,20.0465695444,11.6212633643\C,0,11.4
 206865676,19.3144043989,10.735430161\C,0,9.9453009632,19.7049383525,10
 .9176733253\N,0,9.3944297169,18.9946626393,12.0796297204\C,0,8.4300660
 221,19.4032386159,12.9088059673\N,0,7.9823150496,20.6776927063,12.8972
 253097\N,0,7.878262539,18.4989577814,13.7363523783\O,0,10.6870379131,2
 0.2553062795,14.9350440868\H,0,11.2128635112,19.4858819426,15.22894789
 61\H,0,11.5082746552,17.9673802234,13.6518536196\H,0,13.2258898275,20.
 3803853573,13.5645162673\H,0,13.4438941109,19.6953681118,11.3565333936
 \H,0,12.4101284172,21.1185690563,11.4011317289\H,0,11.6922542773,19.51
 80549728,9.6931585805\H,0,11.5052293877,18.2270716115,10.8660850391\H,
 0,9.3662545149,19.4207043055,10.0309587555\H,0,9.8551383615,20.7832808
 969,11.0477112904\H,0,9.5461360344,17.9764783988,12.0239631879\H,0,8.6
 596789544,21.3930218906,12.6491929726\H,0,7.3804260482,20.9577779941,1
 3.6609596508\H,0,7.3373097581,18.8293030705,14.523398897\H,0,8.4078377
 169,17.6306656546,13.8782100261\\Version=ES64L-G16RevC.01\HF=-1447.517
 167\RMSD=8.539e-09\Dipole=-1.7511817,-1.4479655,-1.1017458\Quadrupole=
 -271.8926502,347.3673827,-75.4747325,632.6352379,492.9707794,781.62645
 79\PG=C01 [X(C17H33N6O6)]\\@
 The archive entry for this job was punched.


 THE SECRET OF SUCCESS IN LIFE IS TO EAT WHAT YOU LIKE, AND LET THE FOOD
 FIGHT IT OUT INSIDE YOU. -- FROM A FORTUNE COOKIE
 Job cpu time:       0 days  0 hours  1 minutes 54.2 seconds.
 Elapsed time:       0 days  0 hours  0 minutes 29.1 seconds.
 File lengths (MBytes):  RWF=    248 Int=      0 D2E=      0 Chk=     32 Scr=     16
 Normal termination of Gaussian 16 at Tue May 24 03:33:32 2022.
