 Entering Gaussian System, Link 0=/opt/software/Gaussian/g16-AVX2-C.01/g16/g16
 Input=charge-conf-549.com
 Output=charge-conf-549.log
 Initial command:
 /opt/software/Gaussian/g16-AVX2-C.01/g16/l1.exe "/mnt/gs18/scratch/users/kengmith/Gau-44184.inp" -scrdir="/mnt/gs18/scratch/users/kengmith/"
 Entering Link 1 = /opt/software/Gaussian/g16-AVX2-C.01/g16/l1.exe PID=     44204.
  
 Copyright (c) 1988-2019, Gaussian, Inc.  All Rights Reserved.
  
 This is part of the Gaussian(R) 16 program.  It is based on
 the Gaussian(R) 09 system (copyright 2009, Gaussian, Inc.),
 the Gaussian(R) 03 system (copyright 2003, Gaussian, Inc.),
 the Gaussian(R) 98 system (copyright 1998, Gaussian, Inc.),
 the Gaussian(R) 94 system (copyright 1995, Gaussian, Inc.),
 the Gaussian 92(TM) system (copyright 1992, Gaussian, Inc.),
 the Gaussian 90(TM) system (copyright 1990, Gaussian, Inc.),
 the Gaussian 88(TM) system (copyright 1988, Gaussian, Inc.),
 the Gaussian 86(TM) system (copyright 1986, Carnegie Mellon
 University), and the Gaussian 82(TM) system (copyright 1983,
 Carnegie Mellon University). Gaussian is a federally registered
 trademark of Gaussian, Inc.
  
 This software contains proprietary and confidential information,
 including trade secrets, belonging to Gaussian, Inc.
  
 This software is provided under written license and may be
 used, copied, transmitted, or stored only in accord with that
 written license.
  
 The following legend is applicable only to US Government
 contracts under FAR:
  
                    RESTRICTED RIGHTS LEGEND
  
 Use, reproduction and disclosure by the US Government is
 subject to restrictions as set forth in subparagraphs (a)
 and (c) of the Commercial Computer Software - Restricted
 Rights clause in FAR 52.227-19.
  
 Gaussian, Inc.
 340 Quinnipiac St., Bldg. 40, Wallingford CT 06492
  
  
 ---------------------------------------------------------------
 Warning -- This program may not be used in any manner that
 competes with the business of Gaussian, Inc. or will provide
 assistance to any competitor of Gaussian, Inc.  The licensee
 of this program is prohibited from giving any competitor of
 Gaussian, Inc. access to this program.  By using this program,
 the user acknowledges that Gaussian, Inc. is engaged in the
 business of creating and licensing software in the field of
 computational chemistry and represents and warrants to the
 licensee that it is not a competitor of Gaussian, Inc. and that
 it will not use this program in any manner prohibited above.
 ---------------------------------------------------------------
  

 Cite this work as:
 Gaussian 16, Revision C.01,
 M. J. Frisch, G. W. Trucks, H. B. Schlegel, G. E. Scuseria, 
 M. A. Robb, J. R. Cheeseman, G. Scalmani, V. Barone, 
 G. A. Petersson, H. Nakatsuji, X. Li, M. Caricato, A. V. Marenich, 
 J. Bloino, B. G. Janesko, R. Gomperts, B. Mennucci, H. P. Hratchian, 
 J. V. Ortiz, A. F. Izmaylov, J. L. Sonnenberg, D. Williams-Young, 
 F. Ding, F. Lipparini, F. Egidi, J. Goings, B. Peng, A. Petrone, 
 T. Henderson, D. Ranasinghe, V. G. Zakrzewski, J. Gao, N. Rega, 
 G. Zheng, W. Liang, M. Hada, M. Ehara, K. Toyota, R. Fukuda, 
 J. Hasegawa, M. Ishida, T. Nakajima, Y. Honda, O. Kitao, H. Nakai, 
 T. Vreven, K. Throssell, J. A. Montgomery, Jr., J. E. Peralta, 
 F. Ogliaro, M. J. Bearpark, J. J. Heyd, E. N. Brothers, K. N. Kudin, 
 V. N. Staroverov, T. A. Keith, R. Kobayashi, J. Normand, 
 K. Raghavachari, A. P. Rendell, J. C. Burant, S. S. Iyengar, 
 J. Tomasi, M. Cossi, J. M. Millam, M. Klene, C. Adamo, R. Cammi, 
 J. W. Ochterski, R. L. Martin, K. Morokuma, O. Farkas, 
 J. B. Foresman, and D. J. Fox, Gaussian, Inc., Wallingford CT, 2019.
 
 ******************************************
 Gaussian 16:  ES64L-G16RevC.01  3-Jul-2019
                24-May-2022 
 ******************************************
 %mem=8gb
 %nproc=4
 Will use up to    4 processors via shared memory.
 %chk=conf-549.chk
 ----------------------------------------------------------------------
 # B3LYP/6-31G* empiricaldispersion=gd3 guess=read geom=check nosymm in
 tegral(ultrafinegrid)
 ----------------------------------------------------------------------
 1/29=2,38=1,172=1/1;
 2/12=2,15=1,40=1/2;
 3/5=1,6=6,7=1,11=2,14=-4,25=1,30=1,74=-5,75=-5,116=-2,124=31/1,2,3;
 4/5=1/1;
 5/5=2,38=6/2;
 6/7=2,8=2,9=2,10=2,28=1/1;
 99/5=1,9=1/99;
 ------------------------------------------------------
 Candidate Structure: Conf:549 Charge calc in gas phase
 ------------------------------------------------------
 Structure from the checkpoint file:  "conf-549.chk"
 Charge =  1 Multiplicity = 1
 Redundant internal coordinates found in file.  (old form).
 N,0,8.900506532,15.8535293666,14.86925014
 C,0,9.8444841156,15.7423720715,13.7004989004
 C,0,9.0564658202,15.8041979648,12.3982199887
 O,0,7.851034198,15.5867926362,12.4002349074
 C,0,10.7295230552,14.4983441703,13.8660518386
 C,0,11.6223785753,14.5774362269,15.1320499023
 C,0,12.0091596234,16.0451459638,15.314703867
 O,0,11.2148334471,16.7554626886,16.0216253142
 O,0,12.9691838492,16.5032922116,14.639059541
 H,0,8.1560114295,16.5314717765,14.6712493101
 H,0,10.4457740582,16.6448873656,13.7827821903
 H,0,11.3561629146,14.4217408925,12.9754634366
 H,0,10.098020968,13.6014099458,13.8739278333
 H,0,11.0840397517,14.2273447608,16.0178292282
 H,0,12.5073963364,13.9531180745,14.9931322438
 H,0,8.4344220756,14.9619950603,15.0640673146
 H,0,9.510531115,16.1662723448,15.6730197059
 N,0,9.8088422534,16.1098141052,11.3079851875
 C,0,11.1434193578,16.7374702204,11.3321437232
 C,0,10.9846999385,18.2538487789,11.5095566962
 O,0,10.2918641319,18.9073831391,10.7472365827
 C,0,11.8987675807,16.4304347447,10.0284587845
 C,0,12.3617737549,14.964325198,9.922132853
 C,0,12.7400197292,14.6309828123,8.4723248003
 C,0,13.5417793615,14.675821874,10.8660201501
 H,0,9.2657525081,16.2665119157,10.4633294228
 H,0,11.7196696869,16.3277317615,12.1618731269
 H,0,12.7727092268,17.0930418643,9.9704875936
 H,0,11.2522165844,16.7080434325,9.1866833226
 H,0,11.5152528124,14.323086336,10.2093948181
 H,0,13.5584318008,15.2741627655,8.1252404354
 H,0,13.0735804564,13.591594972,8.3837256724
 H,0,11.890838054,14.7719204373,7.7943343142
 H,0,14.4275700087,15.2431082195,10.5530400069
 H,0,13.3406595449,14.942669631,11.9118553629
 H,0,13.8063580252,13.6133698022,10.842435
 N,0,11.6974324493,18.8210991645,12.5494934151
 C,0,11.5575385958,20.2591546797,12.7968183957
 C,0,12.8704311769,20.8543581332,13.3063507214
 O,0,12.9207961426,21.876210955,13.9578133854
 C,0,10.3389076235,20.6736523444,13.6439696451
 C,0,10.1684278909,20.0532200311,15.0402698672
 C,0,11.2991933006,20.3016408355,16.0520018369
 N,0,12.3889588939,19.346674182,15.8069466005
 C,0,13.6975406387,19.5257699847,16.0217588605
 N,0,14.2144585718,20.7491880583,16.2648770334
 N,0,14.4886029162,18.4408460896,16.0256299115
 O,0,13.9960629422,20.1956786198,12.9755885597
 H,0,13.7563306041,19.4189717953,12.43301188
 H,0,12.0631135424,18.2246863348,13.2924536799
 H,0,11.4017541627,20.7008451763,11.8035491016
 H,0,9.4530251394,20.4321621101,13.0468470346
 H,0,10.3746082328,21.7639549722,13.7344675279
 H,0,9.2445519265,20.4632139056,15.4645367789
 H,0,10.0124688361,18.9678786605,14.9644216963
 H,0,10.9303585789,20.1512480689,17.0736702722
 H,0,11.6577383846,21.3274079036,15.971458557
 H,0,12.0598718896,18.3675732784,15.8485780426
 H,0,13.7439021202,21.5379773358,15.8292777768
 H,0,15.2226751671,20.8332224042,16.2433526329
 H,0,15.4889837946,18.5631669055,15.9542437381
 H,0,14.0948552573,17.58248085,15.6186769531
 Recover connectivity data from disk.
                           ----------------------------
                           !    Current Parameters    !
                           ! (Angstroms and Degrees)  !
 --------------------------                            --------------------------
 ! Name  Definition              Value                                          !
 --------------------------------------------------------------------------------
 ! R1    R(1,2)                  1.5065                                         !
 ! R2    R(1,10)                 1.0262                                         !
 ! R3    R(1,16)                 1.0247                                         !
 ! R4    R(1,17)                 1.0564                                         !
 ! R5    R(2,3)                  1.5234                                         !
 ! R6    R(2,5)                  1.5357                                         !
 ! R7    R(2,11)                 1.0876                                         !
 ! R8    R(3,4)                  1.2249                                         !
 ! R9    R(3,18)                 1.3594                                         !
 ! R10   R(5,6)                  1.5512                                         !
 ! R11   R(5,12)                 1.0916                                         !
 ! R12   R(5,13)                 1.097                                          !
 ! R13   R(6,7)                  1.5288                                         !
 ! R14   R(6,14)                 1.0941                                         !
 ! R15   R(6,15)                 1.0919                                         !
 ! R16   R(7,8)                  1.2788                                         !
 ! R17   R(7,9)                  1.2602                                         !
 ! R18   R(18,19)                1.475                                          !
 ! R19   R(18,26)                1.0163                                         !
 ! R20   R(19,20)                1.5349                                         !
 ! R21   R(19,22)                1.5377                                         !
 ! R22   R(19,27)                1.0901                                         !
 ! R23   R(20,21)                1.2199                                         !
 ! R24   R(20,37)                1.3825                                         !
 ! R25   R(22,23)                1.5412                                         !
 ! R26   R(22,28)                1.0983                                         !
 ! R27   R(22,29)                1.0971                                         !
 ! R28   R(23,24)                1.535                                          !
 ! R29   R(23,25)                1.5384                                         !
 ! R30   R(23,30)                1.1001                                         !
 ! R31   R(24,31)                1.0972                                         !
 ! R32   R(24,32)                1.0952                                         !
 ! R33   R(24,33)                1.0957                                         !
 ! R34   R(25,34)                1.0974                                         !
 ! R35   R(25,35)                1.0979                                         !
 ! R36   R(25,36)                1.0952                                         !
 ! R37   R(37,38)                1.4659                                         !
 ! R38   R(37,50)                1.0205                                         !
 ! R39   R(38,39)                1.5289                                         !
 ! R40   R(38,41)                1.541                                          !
 ! R41   R(38,51)                1.0982                                         !
 ! R42   R(39,40)                1.2129                                         !
 ! R43   R(39,48)                1.3455                                         !
 ! R44   R(41,42)                1.5374                                         !
 ! R45   R(41,52)                1.0953                                         !
 ! R46   R(41,53)                1.0946                                         !
 ! R47   R(42,43)                1.5375                                         !
 ! R48   R(42,54)                1.0962                                         !
 ! R49   R(42,55)                1.0991                                         !
 ! R50   R(43,44)                1.4696                                         !
 ! R51   R(43,56)                1.0966                                         !
 ! R52   R(43,57)                1.0896                                         !
 ! R53   R(44,45)                1.3381                                         !
 ! R54   R(44,58)                1.0338                                         !
 ! R55   R(45,46)                1.3502                                         !
 ! R56   R(45,47)                1.3427                                         !
 ! R57   R(46,59)                1.0165                                         !
 ! R58   R(46,60)                1.0119                                         !
 ! R59   R(47,61)                1.0104                                         !
 ! R60   R(47,62)                1.0283                                         !
 ! R61   R(48,49)                0.9773                                         !
 ! A1    A(2,1,10)             110.7113                                         !
 ! A2    A(2,1,16)             111.6119                                         !
 ! A3    A(2,1,17)             104.4948                                         !
 ! A4    A(10,1,16)            106.3482                                         !
 ! A5    A(10,1,17)            111.7257                                         !
 ! A6    A(16,1,17)            112.0596                                         !
 ! A7    A(1,2,3)              109.6386                                         !
 ! A8    A(1,2,5)              109.7105                                         !
 ! A9    A(1,2,11)             103.0916                                         !
 ! A10   A(3,2,5)              115.0337                                         !
 ! A11   A(3,2,11)             108.4805                                         !
 ! A12   A(5,2,11)             110.2093                                         !
 ! A13   A(2,3,4)              120.0301                                         !
 ! A14   A(2,3,18)             114.1049                                         !
 ! A15   A(4,3,18)             125.865                                          !
 ! A16   A(2,5,6)              112.2349                                         !
 ! A17   A(2,5,12)             107.4408                                         !
 ! A18   A(2,5,13)             109.3515                                         !
 ! A19   A(6,5,12)             109.8158                                         !
 ! A20   A(6,5,13)             111.5422                                         !
 ! A21   A(12,5,13)            106.1969                                         !
 ! A22   A(5,6,7)              106.983                                          !
 ! A23   A(5,6,14)             111.1758                                         !
 ! A24   A(5,6,15)             109.4835                                         !
 ! A25   A(7,6,14)             109.5707                                         !
 ! A26   A(7,6,15)             111.0424                                         !
 ! A27   A(14,6,15)            108.5937                                         !
 ! A28   A(6,7,8)              116.2429                                         !
 ! A29   A(6,7,9)              118.5366                                         !
 ! A30   A(8,7,9)              124.5874                                         !
 ! A31   A(3,18,19)            125.6818                                         !
 ! A32   A(3,18,26)            113.9177                                         !
 ! A33   A(19,18,26)           115.5622                                         !
 ! A34   A(18,19,20)           109.1908                                         !
 ! A35   A(18,19,22)           110.219                                          !
 ! A36   A(18,19,27)           109.3177                                         !
 ! A37   A(20,19,22)           110.2459                                         !
 ! A38   A(20,19,27)           109.755                                          !
 ! A39   A(22,19,27)           108.0948                                         !
 ! A40   A(19,20,21)           121.0461                                         !
 ! A41   A(19,20,37)           116.0392                                         !
 ! A42   A(21,20,37)           122.8907                                         !
 ! A43   A(19,22,23)           113.33                                           !
 ! A44   A(19,22,28)           108.3716                                         !
 ! A45   A(19,22,29)           108.0889                                         !
 ! A46   A(23,22,28)           109.3439                                         !
 ! A47   A(23,22,29)           111.3968                                         !
 ! A48   A(28,22,29)           106.0089                                         !
 ! A49   A(22,23,24)           110.2298                                         !
 ! A50   A(22,23,25)           111.5012                                         !
 ! A51   A(22,23,30)           107.7765                                         !
 ! A52   A(24,23,25)           110.4739                                         !
 ! A53   A(24,23,30)           108.0387                                         !
 ! A54   A(25,23,30)           108.7052                                         !
 ! A55   A(23,24,31)           110.8103                                         !
 ! A56   A(23,24,32)           110.9506                                         !
 ! A57   A(23,24,33)           111.4395                                         !
 ! A58   A(31,24,32)           107.6709                                         !
 ! A59   A(31,24,33)           107.8739                                         !
 ! A60   A(32,24,33)           107.9418                                         !
 ! A61   A(23,25,34)           110.3156                                         !
 ! A62   A(23,25,35)           113.4761                                         !
 ! A63   A(23,25,36)           110.7344                                         !
 ! A64   A(34,25,35)           107.0902                                         !
 ! A65   A(34,25,36)           107.478                                          !
 ! A66   A(35,25,36)           107.4913                                         !
 ! A67   A(20,37,38)           118.7018                                         !
 ! A68   A(20,37,50)           119.5108                                         !
 ! A69   A(38,37,50)           118.9933                                         !
 ! A70   A(37,38,39)           110.8666                                         !
 ! A71   A(37,38,41)           115.6019                                         !
 ! A72   A(37,38,51)           104.8039                                         !
 ! A73   A(39,38,41)           113.0268                                         !
 ! A74   A(39,38,51)           105.4662                                         !
 ! A75   A(41,38,51)           106.0737                                         !
 ! A76   A(38,39,40)           122.8633                                         !
 ! A77   A(38,39,48)           116.4804                                         !
 ! A78   A(40,39,48)           120.6466                                         !
 ! A79   A(38,41,42)           118.5834                                         !
 ! A80   A(38,41,52)           106.2967                                         !
 ! A81   A(38,41,53)           106.7132                                         !
 ! A82   A(42,41,52)           108.4496                                         !
 ! A83   A(42,41,53)           109.2984                                         !
 ! A84   A(52,41,53)           106.9213                                         !
 ! A85   A(41,42,43)           116.7999                                         !
 ! A86   A(41,42,54)           107.0994                                         !
 ! A87   A(41,42,55)           110.5827                                         !
 ! A88   A(43,42,54)           107.7418                                         !
 ! A89   A(43,42,55)           108.018                                          !
 ! A90   A(54,42,55)           106.0484                                         !
 ! A91   A(42,43,44)           109.3086                                         !
 ! A92   A(42,43,56)           110.0936                                         !
 ! A93   A(42,43,57)           110.2106                                         !
 ! A94   A(44,43,56)           108.4011                                         !
 ! A95   A(44,43,57)           110.8189                                         !
 ! A96   A(56,43,57)           107.9787                                         !
 ! A97   A(43,44,45)           127.6937                                         !
 ! A98   A(43,44,58)           111.8815                                         !
 ! A99   A(45,44,58)           115.5695                                         !
 ! A100  A(44,45,46)           121.6389                                         !
 ! A101  A(44,45,47)           117.9345                                         !
 ! A102  A(46,45,47)           120.4021                                         !
 ! A103  A(45,46,59)           116.6611                                         !
 ! A104  A(45,46,60)           116.9266                                         !
 ! A105  A(59,46,60)           112.8079                                         !
 ! A106  A(45,47,61)           119.0329                                         !
 ! A107  A(45,47,62)           116.5988                                         !
 ! A108  A(61,47,62)           116.8862                                         !
 ! A109  A(39,48,49)           108.6827                                         !
 ! D1    D(10,1,2,3)           -38.8703                                         !
 ! D2    D(10,1,2,5)          -166.1056                                         !
 ! D3    D(10,1,2,11)           76.5037                                         !
 ! D4    D(16,1,2,3)            79.3892                                         !
 ! D5    D(16,1,2,5)           -47.8462                                         !
 ! D6    D(16,1,2,11)         -165.2369                                         !
 ! D7    D(17,1,2,3)          -159.3008                                         !
 ! D8    D(17,1,2,5)            73.4639                                         !
 ! D9    D(17,1,2,11)          -43.9268                                         !
 ! D10   D(1,2,3,4)            -18.5488                                         !
 ! D11   D(1,2,3,18)           161.4714                                         !
 ! D12   D(5,2,3,4)            105.6371                                         !
 ! D13   D(5,2,3,18)           -74.3427                                         !
 ! D14   D(11,2,3,4)          -130.4395                                         !
 ! D15   D(11,2,3,18)           49.5807                                         !
 ! D16   D(1,2,5,6)            -62.387                                          !
 ! D17   D(1,2,5,12)           176.7952                                         !
 ! D18   D(1,2,5,13)            61.9466                                         !
 ! D19   D(3,2,5,6)            173.465                                          !
 ! D20   D(3,2,5,12)            52.6472                                         !
 ! D21   D(3,2,5,13)           -62.2015                                         !
 ! D22   D(11,2,5,6)            50.4598                                         !
 ! D23   D(11,2,5,12)          -70.3579                                         !
 ! D24   D(11,2,5,13)          174.7934                                         !
 ! D25   D(2,3,18,19)          -18.5348                                         !
 ! D26   D(2,3,18,26)         -172.6399                                         !
 ! D27   D(4,3,18,19)          161.4867                                         !
 ! D28   D(4,3,18,26)            7.3817                                         !
 ! D29   D(2,5,6,7)            -34.5012                                         !
 ! D30   D(2,5,6,14)            85.0971                                         !
 ! D31   D(2,5,6,15)          -154.918                                          !
 ! D32   D(12,5,6,7)            84.9369                                         !
 ! D33   D(12,5,6,14)         -155.4647                                         !
 ! D34   D(12,5,6,15)          -35.4799                                         !
 ! D35   D(13,5,6,7)          -157.611                                          !
 ! D36   D(13,5,6,14)          -38.0126                                         !
 ! D37   D(13,5,6,15)           81.9722                                         !
 ! D38   D(5,6,7,8)             89.5195                                         !
 ! D39   D(5,6,7,9)            -81.7833                                         !
 ! D40   D(14,6,7,8)           -31.1067                                         !
 ! D41   D(14,6,7,9)           157.5905                                         !
 ! D42   D(15,6,7,8)          -151.0639                                         !
 ! D43   D(15,6,7,9)            37.6333                                         !
 ! D44   D(3,18,19,20)         -81.0333                                         !
 ! D45   D(3,18,19,22)         157.724                                          !
 ! D46   D(3,18,19,27)          39.0492                                         !
 ! D47   D(26,18,19,20)         72.7008                                         !
 ! D48   D(26,18,19,22)        -48.5418                                         !
 ! D49   D(26,18,19,27)       -167.2167                                         !
 ! D50   D(18,19,20,21)        -54.8656                                         !
 ! D51   D(18,19,20,37)        126.8656                                         !
 ! D52   D(22,19,20,21)         66.3607                                         !
 ! D53   D(22,19,20,37)       -111.908                                          !
 ! D54   D(27,19,20,21)       -174.6787                                         !
 ! D55   D(27,19,20,37)          7.0525                                         !
 ! D56   D(18,19,22,23)        -71.67                                           !
 ! D57   D(18,19,22,28)        166.7736                                         !
 ! D58   D(18,19,22,29)         52.3057                                         !
 ! D59   D(20,19,22,23)        167.7186                                         !
 ! D60   D(20,19,22,28)         46.1622                                         !
 ! D61   D(20,19,22,29)        -68.3058                                         !
 ! D62   D(27,19,22,23)         47.7504                                         !
 ! D63   D(27,19,22,28)        -73.806                                          !
 ! D64   D(27,19,22,29)        171.7261                                         !
 ! D65   D(19,20,37,38)       -178.2025                                         !
 ! D66   D(19,20,37,50)        -17.3115                                         !
 ! D67   D(21,20,37,38)          3.5638                                         !
 ! D68   D(21,20,37,50)        164.4548                                         !
 ! D69   D(19,22,23,24)        164.0114                                         !
 ! D70   D(19,22,23,25)        -72.9073                                         !
 ! D71   D(19,22,23,30)         46.3195                                         !
 ! D72   D(28,22,23,24)        -74.9788                                         !
 ! D73   D(28,22,23,25)         48.1025                                         !
 ! D74   D(28,22,23,30)        167.3294                                         !
 ! D75   D(29,22,23,24)         41.8597                                         !
 ! D76   D(29,22,23,25)        164.9411                                         !
 ! D77   D(29,22,23,30)        -75.8321                                         !
 ! D78   D(22,23,24,31)         60.2993                                         !
 ! D79   D(22,23,24,32)        179.8531                                         !
 ! D80   D(22,23,24,33)        -59.8334                                         !
 ! D81   D(25,23,24,31)        -63.3802                                         !
 ! D82   D(25,23,24,32)         56.1737                                         !
 ! D83   D(25,23,24,33)        176.4872                                         !
 ! D84   D(30,23,24,31)        177.8291                                         !
 ! D85   D(30,23,24,32)        -62.6171                                         !
 ! D86   D(30,23,24,33)         57.6964                                         !
 ! D87   D(22,23,25,34)        -65.8603                                         !
 ! D88   D(22,23,25,35)         54.3015                                         !
 ! D89   D(22,23,25,36)        175.2849                                         !
 ! D90   D(24,23,25,34)         57.0817                                         !
 ! D91   D(24,23,25,35)        177.2435                                         !
 ! D92   D(24,23,25,36)        -61.7731                                         !
 ! D93   D(30,23,25,34)        175.4662                                         !
 ! D94   D(30,23,25,35)        -64.372                                          !
 ! D95   D(30,23,25,36)         56.6114                                         !
 ! D96   D(20,37,38,39)       -146.3252                                         !
 ! D97   D(20,37,38,41)         83.3705                                         !
 ! D98   D(20,37,38,51)        -33.0012                                         !
 ! D99   D(50,37,38,39)         52.6836                                         !
 ! D100  D(50,37,38,41)        -77.6206                                         !
 ! D101  D(50,37,38,51)        166.0077                                         !
 ! D102  D(37,38,39,40)       -156.5196                                         !
 ! D103  D(37,38,39,48)         24.6099                                         !
 ! D104  D(41,38,39,40)        -24.8755                                         !
 ! D105  D(41,38,39,48)        156.2539                                         !
 ! D106  D(51,38,39,40)         90.5761                                         !
 ! D107  D(51,38,39,48)        -88.2945                                         !
 ! D108  D(37,38,41,42)         56.3489                                         !
 ! D109  D(37,38,41,52)        -65.9793                                         !
 ! D110  D(37,38,41,53)       -179.833                                          !
 ! D111  D(39,38,41,42)        -72.9098                                         !
 ! D112  D(39,38,41,52)        164.7619                                         !
 ! D113  D(39,38,41,53)         50.9082                                         !
 ! D114  D(51,38,41,42)        172.002                                          !
 ! D115  D(51,38,41,52)         49.6738                                         !
 ! D116  D(51,38,41,53)        -64.1799                                         !
 ! D117  D(38,39,48,49)          0.5611                                         !
 ! D118  D(40,39,48,49)       -178.3362                                         !
 ! D119  D(38,41,42,43)         59.982                                          !
 ! D120  D(38,41,42,54)       -179.1821                                         !
 ! D121  D(38,41,42,55)        -64.0643                                         !
 ! D122  D(52,41,42,43)       -178.7768                                         !
 ! D123  D(52,41,42,54)        -57.9409                                         !
 ! D124  D(52,41,42,55)         57.1769                                         !
 ! D125  D(53,41,42,43)        -62.5506                                         !
 ! D126  D(53,41,42,54)         58.2853                                         !
 ! D127  D(53,41,42,55)        173.4031                                         !
 ! D128  D(41,42,43,44)        -81.7745                                         !
 ! D129  D(41,42,43,56)        159.257                                          !
 ! D130  D(41,42,43,57)         40.2506                                         !
 ! D131  D(54,42,43,44)        157.7296                                         !
 ! D132  D(54,42,43,56)         38.761                                          !
 ! D133  D(54,42,43,57)        -80.2454                                         !
 ! D134  D(55,42,43,44)         43.5694                                         !
 ! D135  D(55,42,43,56)        -75.3992                                         !
 ! D136  D(55,42,43,57)        165.5945                                         !
 ! D137  D(42,43,44,45)        149.6276                                         !
 ! D138  D(42,43,44,58)        -56.4593                                         !
 ! D139  D(56,43,44,45)        -90.3589                                         !
 ! D140  D(56,43,44,58)         63.5542                                         !
 ! D141  D(57,43,44,45)         27.969                                          !
 ! D142  D(57,43,44,58)       -178.1179                                         !
 ! D143  D(43,44,45,46)        -13.2773                                         !
 ! D144  D(43,44,45,47)        164.9303                                         !
 ! D145  D(58,44,45,46)       -166.3823                                         !
 ! D146  D(58,44,45,47)         11.8252                                         !
 ! D147  D(44,45,46,59)        -30.8806                                         !
 ! D148  D(44,45,46,60)       -168.7424                                         !
 ! D149  D(47,45,46,59)        150.9554                                         !
 ! D150  D(47,45,46,60)         13.0937                                         !
 ! D151  D(44,45,47,61)        164.893                                          !
 ! D152  D(44,45,47,62)         15.9816                                         !
 ! D153  D(46,45,47,61)        -16.8763                                         !
 ! D154  D(46,45,47,62)       -165.7877                                         !
 --------------------------------------------------------------------------------
 Symmetry turned off by external request.
 Stoichiometry    C17H33N6O6(1+)
 Framework group  C1[X(C17H33N6O6)]
 Deg. of freedom   180
 Full point group                 C1      NOp   1
                          Input orientation:                          
 ---------------------------------------------------------------------
 Center     Atomic      Atomic             Coordinates (Angstroms)
 Number     Number       Type             X           Y           Z
 ---------------------------------------------------------------------
      1          7           0        8.900507   15.853529   14.869250
      2          6           0        9.844484   15.742372   13.700499
      3          6           0        9.056466   15.804198   12.398220
      4          8           0        7.851034   15.586793   12.400235
      5          6           0       10.729523   14.498344   13.866052
      6          6           0       11.622379   14.577436   15.132050
      7          6           0       12.009160   16.045146   15.314704
      8          8           0       11.214833   16.755463   16.021625
      9          8           0       12.969184   16.503292   14.639060
     10          1           0        8.156011   16.531472   14.671249
     11          1           0       10.445774   16.644887   13.782782
     12          1           0       11.356163   14.421741   12.975463
     13          1           0       10.098021   13.601410   13.873928
     14          1           0       11.084040   14.227345   16.017829
     15          1           0       12.507396   13.953118   14.993132
     16          1           0        8.434422   14.961995   15.064067
     17          1           0        9.510531   16.166272   15.673020
     18          7           0        9.808842   16.109814   11.307985
     19          6           0       11.143419   16.737470   11.332144
     20          6           0       10.984700   18.253849   11.509557
     21          8           0       10.291864   18.907383   10.747237
     22          6           0       11.898768   16.430435   10.028459
     23          6           0       12.361774   14.964325    9.922133
     24          6           0       12.740020   14.630983    8.472325
     25          6           0       13.541779   14.675822   10.866020
     26          1           0        9.265753   16.266512   10.463329
     27          1           0       11.719670   16.327732   12.161873
     28          1           0       12.772709   17.093042    9.970488
     29          1           0       11.252217   16.708043    9.186683
     30          1           0       11.515253   14.323086   10.209395
     31          1           0       13.558432   15.274163    8.125240
     32          1           0       13.073580   13.591595    8.383726
     33          1           0       11.890838   14.771920    7.794334
     34          1           0       14.427570   15.243108   10.553040
     35          1           0       13.340660   14.942670   11.911855
     36          1           0       13.806358   13.613370   10.842435
     37          7           0       11.697432   18.821099   12.549493
     38          6           0       11.557539   20.259155   12.796818
     39          6           0       12.870431   20.854358   13.306351
     40          8           0       12.920796   21.876211   13.957813
     41          6           0       10.338908   20.673652   13.643970
     42          6           0       10.168428   20.053220   15.040270
     43          6           0       11.299193   20.301641   16.052002
     44          7           0       12.388959   19.346674   15.806947
     45          6           0       13.697541   19.525770   16.021759
     46          7           0       14.214459   20.749188   16.264877
     47          7           0       14.488603   18.440846   16.025630
     48          8           0       13.996063   20.195679   12.975589
     49          1           0       13.756331   19.418972   12.433012
     50          1           0       12.063114   18.224686   13.292454
     51          1           0       11.401754   20.700845   11.803549
     52          1           0        9.453025   20.432162   13.046847
     53          1           0       10.374608   21.763955   13.734468
     54          1           0        9.244552   20.463214   15.464537
     55          1           0       10.012469   18.967879   14.964422
     56          1           0       10.930359   20.151248   17.073670
     57          1           0       11.657738   21.327408   15.971459
     58          1           0       12.059872   18.367573   15.848578
     59          1           0       13.743902   21.537977   15.829278
     60          1           0       15.222675   20.833222   16.243353
     61          1           0       15.488984   18.563167   15.954244
     62          1           0       14.094855   17.582481   15.618677
 ---------------------------------------------------------------------
 Rotational constants (GHZ):           0.2154073           0.1258736           0.1149829
 Standard basis: 6-31G(d) (6D, 7F)
   501 basis functions,   944 primitive gaussians,   501 cartesian basis functions
   112 alpha electrons      112 beta electrons
       nuclear repulsion energy      3323.1704606349 Hartrees.
 NAtoms=   62 NActive=   62 NUniq=   62 SFac= 1.00D+00 NAtFMM=   60 NAOKFM=T Big=T
 Integral buffers will be    131072 words long.
 Raffenetti 2 integral format.
 Two-electron integral symmetry is turned off.
 Nuclear repulsion after empirical dispersion term =     3323.0768464067 Hartrees.
 One-electron integrals computed using PRISM.
 NBasis=   501 RedAO= T EigKep=  1.74D-03  NBF=   501
 NBsUse=   501 1.00D-06 EigRej= -1.00D+00 NBFU=   501
 Initial guess from the checkpoint file:  "conf-549.chk"
 B after Tr=     0.000000    0.000000    0.000000
         Rot=    1.000000    0.000000    0.000000    0.000000 Ang=   0.00 deg.
 Requested convergence on RMS density matrix=1.00D-08 within 128 cycles.
 Requested convergence on MAX density matrix=1.00D-06.
 Requested convergence on             energy=1.00D-06.
 No special actions if energy rises.
 SCF Done:  E(RB3LYP) =  -1447.51433086     A.U. after    2 cycles
            NFock=  2  Conv=0.93D-08     -V/T= 2.0093

 **********************************************************************

            Population analysis using the SCF Density.

 **********************************************************************

 Alpha  occ. eigenvalues --  -19.31311 -19.25414 -19.25137 -19.23993 -19.23681
 Alpha  occ. eigenvalues --  -19.23045 -14.59230 -14.49110 -14.48945 -14.48914
 Alpha  occ. eigenvalues --  -14.48627 -14.48350 -10.45456 -10.43944 -10.42598
 Alpha  occ. eigenvalues --  -10.41018 -10.41001 -10.39394 -10.35866 -10.35668
 Alpha  occ. eigenvalues --  -10.34277 -10.33981 -10.31149 -10.30843 -10.30132
 Alpha  occ. eigenvalues --  -10.29657 -10.28803 -10.26814 -10.25812  -1.22152
 Alpha  occ. eigenvalues --   -1.17682  -1.16534  -1.16066  -1.14045  -1.13620
 Alpha  occ. eigenvalues --   -1.13420  -1.07220  -1.05676  -1.04893  -1.03346
 Alpha  occ. eigenvalues --   -1.01990  -0.94132  -0.92074  -0.91126  -0.87411
 Alpha  occ. eigenvalues --   -0.86198  -0.84756  -0.80329  -0.77454  -0.77232
 Alpha  occ. eigenvalues --   -0.75951  -0.75376  -0.74738  -0.73566  -0.72455
 Alpha  occ. eigenvalues --   -0.71768  -0.71082  -0.70790  -0.69911  -0.67986
 Alpha  occ. eigenvalues --   -0.67582  -0.66072  -0.65279  -0.62671  -0.62045
 Alpha  occ. eigenvalues --   -0.61951  -0.60976  -0.60884  -0.60530  -0.59471
 Alpha  occ. eigenvalues --   -0.58617  -0.58138  -0.57562  -0.57114  -0.56711
 Alpha  occ. eigenvalues --   -0.56238  -0.55911  -0.55172  -0.55000  -0.54143
 Alpha  occ. eigenvalues --   -0.53947  -0.53381  -0.52928  -0.52587  -0.51955
 Alpha  occ. eigenvalues --   -0.51163  -0.50957  -0.50718  -0.50184  -0.49550
 Alpha  occ. eigenvalues --   -0.48971  -0.48288  -0.47930  -0.47196  -0.46715
 Alpha  occ. eigenvalues --   -0.46170  -0.45800  -0.45650  -0.43532  -0.42591
 Alpha  occ. eigenvalues --   -0.42262  -0.42173  -0.40601  -0.40057  -0.39752
 Alpha  occ. eigenvalues --   -0.39430  -0.38736  -0.38604  -0.38156  -0.37683
 Alpha  occ. eigenvalues --   -0.36913  -0.36340
 Alpha virt. eigenvalues --   -0.12032  -0.11275  -0.10876  -0.10385  -0.09930
 Alpha virt. eigenvalues --   -0.09272  -0.05339  -0.04930  -0.03947  -0.03140
 Alpha virt. eigenvalues --   -0.02604  -0.01933  -0.01068  -0.00461   0.00186
 Alpha virt. eigenvalues --    0.00802   0.01687   0.01958   0.02551   0.03089
 Alpha virt. eigenvalues --    0.03356   0.03585   0.04144   0.04520   0.05165
 Alpha virt. eigenvalues --    0.05244   0.05959   0.06307   0.06429   0.06699
 Alpha virt. eigenvalues --    0.07168   0.07406   0.07819   0.08237   0.08381
 Alpha virt. eigenvalues --    0.09161   0.09474   0.09814   0.09904   0.10190
 Alpha virt. eigenvalues --    0.10813   0.11223   0.11725   0.11996   0.12958
 Alpha virt. eigenvalues --    0.13027   0.13687   0.14077   0.14335   0.14962
 Alpha virt. eigenvalues --    0.15641   0.17058   0.17466   0.18035   0.18332
 Alpha virt. eigenvalues --    0.19234   0.21346   0.22730   0.24824   0.25755
 Alpha virt. eigenvalues --    0.26894   0.27684   0.28746   0.28925   0.30408
 Alpha virt. eigenvalues --    0.31546   0.35815   0.36730   0.36988   0.37951
 Alpha virt. eigenvalues --    0.38302   0.39032   0.40793   0.41053   0.41688
 Alpha virt. eigenvalues --    0.42420   0.42760   0.43707   0.44362   0.45178
 Alpha virt. eigenvalues --    0.45219   0.45944   0.46274   0.47272   0.47578
 Alpha virt. eigenvalues --    0.47838   0.49081   0.49593   0.49934   0.50810
 Alpha virt. eigenvalues --    0.51567   0.51809   0.52424   0.52845   0.53213
 Alpha virt. eigenvalues --    0.53935   0.54194   0.54925   0.55320   0.55912
 Alpha virt. eigenvalues --    0.56386   0.56696   0.57707   0.58319   0.59486
 Alpha virt. eigenvalues --    0.59643   0.60407   0.61448   0.62503   0.62641
 Alpha virt. eigenvalues --    0.63058   0.63406   0.65101   0.66108   0.66474
 Alpha virt. eigenvalues --    0.66763   0.67341   0.67564   0.68124   0.68769
 Alpha virt. eigenvalues --    0.69098   0.69794   0.70920   0.71536   0.71792
 Alpha virt. eigenvalues --    0.72245   0.72489   0.72889   0.73594   0.73869
 Alpha virt. eigenvalues --    0.74306   0.74800   0.75576   0.76245   0.76659
 Alpha virt. eigenvalues --    0.76881   0.77662   0.78106   0.78483   0.79738
 Alpha virt. eigenvalues --    0.80215   0.80462   0.81183   0.81514   0.81977
 Alpha virt. eigenvalues --    0.82714   0.82963   0.83328   0.83666   0.84281
 Alpha virt. eigenvalues --    0.84866   0.84994   0.85616   0.87239   0.87294
 Alpha virt. eigenvalues --    0.88134   0.88374   0.88800   0.89183   0.90065
 Alpha virt. eigenvalues --    0.90534   0.90872   0.92209   0.93846   0.94070
 Alpha virt. eigenvalues --    0.94356   0.95407   0.96086   0.96673   0.97690
 Alpha virt. eigenvalues --    0.98049   0.98556   0.99914   1.00486   1.01997
 Alpha virt. eigenvalues --    1.02924   1.03544   1.04324   1.05118   1.05515
 Alpha virt. eigenvalues --    1.07036   1.07535   1.08327   1.10185   1.10726
 Alpha virt. eigenvalues --    1.12180   1.13728   1.14939   1.16015   1.16268
 Alpha virt. eigenvalues --    1.17548   1.19399   1.20015   1.20794   1.21215
 Alpha virt. eigenvalues --    1.21872   1.22967   1.25175   1.26874   1.27780
 Alpha virt. eigenvalues --    1.28336   1.30247   1.32224   1.34327   1.34818
 Alpha virt. eigenvalues --    1.35198   1.35599   1.37658   1.38062   1.38747
 Alpha virt. eigenvalues --    1.39925   1.41735   1.42394   1.43995   1.44617
 Alpha virt. eigenvalues --    1.45609   1.47644   1.48632   1.49795   1.50405
 Alpha virt. eigenvalues --    1.52346   1.53830   1.55394   1.56323   1.57079
 Alpha virt. eigenvalues --    1.57131   1.58519   1.59780   1.61021   1.62068
 Alpha virt. eigenvalues --    1.62927   1.64332   1.65564   1.65987   1.66744
 Alpha virt. eigenvalues --    1.66950   1.67370   1.68627   1.69064   1.69628
 Alpha virt. eigenvalues --    1.69694   1.70001   1.71493   1.71742   1.72408
 Alpha virt. eigenvalues --    1.72544   1.72776   1.73906   1.74785   1.75698
 Alpha virt. eigenvalues --    1.76325   1.76553   1.77593   1.78009   1.79246
 Alpha virt. eigenvalues --    1.79834   1.80630   1.81001   1.81587   1.82114
 Alpha virt. eigenvalues --    1.82940   1.83543   1.84833   1.86066   1.86717
 Alpha virt. eigenvalues --    1.87371   1.88337   1.89308   1.89418   1.90520
 Alpha virt. eigenvalues --    1.91091   1.91991   1.92665   1.93322   1.93404
 Alpha virt. eigenvalues --    1.94471   1.95022   1.96761   1.97045   1.98960
 Alpha virt. eigenvalues --    1.99661   2.00162   2.01254   2.02444   2.02759
 Alpha virt. eigenvalues --    2.04425   2.05739   2.06196   2.07103   2.08825
 Alpha virt. eigenvalues --    2.10178   2.10498   2.13051   2.13540   2.14230
 Alpha virt. eigenvalues --    2.15288   2.16727   2.17400   2.17576   2.18561
 Alpha virt. eigenvalues --    2.19650   2.20200   2.21302   2.21699   2.22552
 Alpha virt. eigenvalues --    2.24181   2.24566   2.27321   2.28061   2.29470
 Alpha virt. eigenvalues --    2.30606   2.31942   2.32614   2.34570   2.35936
 Alpha virt. eigenvalues --    2.37438   2.37691   2.37868   2.39967   2.40192
 Alpha virt. eigenvalues --    2.42359   2.43323   2.44658   2.45291   2.47015
 Alpha virt. eigenvalues --    2.47962   2.50559   2.51433   2.51828   2.52809
 Alpha virt. eigenvalues --    2.53750   2.54554   2.55437   2.55987   2.57369
 Alpha virt. eigenvalues --    2.58026   2.58527   2.60816   2.62391   2.63592
 Alpha virt. eigenvalues --    2.64347   2.66134   2.67245   2.68147   2.68680
 Alpha virt. eigenvalues --    2.74845   2.76936   2.80715   2.83471   2.84523
 Alpha virt. eigenvalues --    2.87544   2.88009   2.89811   2.91473   2.92352
 Alpha virt. eigenvalues --    2.99247   3.00657   3.00914   3.02295   3.04087
 Alpha virt. eigenvalues --    3.65931   3.71386   3.78291   3.82000   3.85236
 Alpha virt. eigenvalues --    3.89830   3.95224   3.99734   4.01000   4.06520
 Alpha virt. eigenvalues --    4.08301   4.09821   4.13399   4.17459   4.18729
 Alpha virt. eigenvalues --    4.20386   4.20855   4.22842   4.26347   4.27750
 Alpha virt. eigenvalues --    4.35611   4.37117   4.40023   4.43078   4.48007
 Alpha virt. eigenvalues --    4.49887   4.54123   4.55021   4.71489
          Condensed to atoms (all electrons):
 Mulliken charges:
               1
     1  N   -0.738996
     2  C   -0.150811
     3  C    0.614848
     4  O   -0.494852
     5  C   -0.301894
     6  C   -0.336051
     7  C    0.591551
     8  O   -0.610412
     9  O   -0.586948
    10  H    0.413964
    11  H    0.212259
    12  H    0.210787
    13  H    0.184130
    14  H    0.163947
    15  H    0.195948
    16  H    0.411322
    17  H    0.432313
    18  N   -0.576672
    19  C   -0.118126
    20  C    0.634478
    21  O   -0.492363
    22  C   -0.269772
    23  C   -0.083341
    24  C   -0.448180
    25  C   -0.469443
    26  H    0.366083
    27  H    0.168516
    28  H    0.151338
    29  H    0.171100
    30  H    0.136364
    31  H    0.153436
    32  H    0.161920
    33  H    0.155037
    34  H    0.154459
    35  H    0.144156
    36  H    0.165316
    37  N   -0.703051
    38  C   -0.068092
    39  C    0.639228
    40  O   -0.491236
    41  C   -0.274596
    42  C   -0.295064
    43  C   -0.148058
    44  N   -0.659913
    45  C    0.745662
    46  N   -0.733349
    47  N   -0.776058
    48  O   -0.571540
    49  H    0.429867
    50  H    0.370305
    51  H    0.234409
    52  H    0.174838
    53  H    0.188045
    54  H    0.173578
    55  H    0.122248
    56  H    0.185389
    57  H    0.193055
    58  H    0.416029
    59  H    0.398805
    60  H    0.361707
    61  H    0.357645
    62  H    0.414735
 Sum of Mulliken charges =   1.00000
 Mulliken charges with hydrogens summed into heavy atoms:
               1
     1  N    0.518604
     2  C    0.061448
     3  C    0.614848
     4  O   -0.494852
     5  C    0.093023
     6  C    0.023844
     7  C    0.591551
     8  O   -0.610412
     9  O   -0.586948
    18  N   -0.210589
    19  C    0.050391
    20  C    0.634478
    21  O   -0.492363
    22  C    0.052666
    23  C    0.053023
    24  C    0.022214
    25  C   -0.005512
    37  N   -0.332746
    38  C    0.166317
    39  C    0.639228
    40  O   -0.491236
    41  C    0.088287
    42  C    0.000762
    43  C    0.230386
    44  N   -0.243884
    45  C    0.745662
    46  N    0.027164
    47  N   -0.003678
    48  O   -0.141673
 Electronic spatial extent (au):  <R**2>=         511404.8514
 Charge=              1.0000 electrons
 Dipole moment (field-independent basis, Debye):
    X=             56.0787    Y=             82.5620    Z=             69.6738  Tot=            121.7199
 Quadrupole moment (field-independent basis, Debye-Ang):
   XX=            515.7088   YY=           1276.6068   ZZ=            857.5576
   XY=            979.1741   XZ=            806.3440   YZ=           1211.5594
 Traceless Quadrupole moment (field-independent basis, Debye-Ang):
   XX=           -367.5822   YY=            393.3158   ZZ=            -25.7335
   XY=            979.1741   XZ=            806.3440   YZ=           1211.5594
 Octapole moment (field-independent basis, Debye-Ang**2):
  XXX=           2872.9976  YYY=          16804.2252  ZZZ=           8520.9469  XYY=          15440.3298
  XXY=           9186.9222  XXZ=           7599.2981  XZZ=           9850.6546  YZZ=          15037.3636
  YYZ=          19236.1635  XYZ=          14277.2221
 Hexadecapole moment (field-independent basis, Debye-Ang**3):
 XXXX=         -22547.0081 YYYY=         144383.1714 ZZZZ=          43478.2763 XXXY=          54123.3571
 XXXZ=          48453.4134 YYYX=         209824.1729 YYYZ=         267806.1794 ZZZX=          96615.5652
 ZZZY=         150037.4428 XXYY=         142974.9160 XXZZ=          90545.7137 YYZZ=         238517.0961
 XXYZ=         137770.2037 YYXZ=         231334.3075 ZZXY=         176831.7006
 N-N= 3.323076846407D+03 E-N=-9.993997945646D+03  KE= 1.434127939473D+03
 Unable to Open any file for archive entry.
 1\1\GINC-VIM-001\SP\RB3LYP\6-31G(d)\C17H33N6O6(1+)\KENGMITH\24-May-202
 2\0\\# B3LYP/6-31G* empiricaldispersion=gd3 guess=read geom=check nosy
 mm integral(ultrafinegrid)\\Candidate Structure: Conf:549 Charge calc 
 in gas phase\\1,1\N,0,8.900506532,15.8535293666,14.86925014\C,0,9.8444
 841156,15.7423720715,13.7004989004\C,0,9.0564658202,15.8041979648,12.3
 982199887\O,0,7.851034198,15.5867926362,12.4002349074\C,0,10.729523055
 2,14.4983441703,13.8660518386\C,0,11.6223785753,14.5774362269,15.13204
 99023\C,0,12.0091596234,16.0451459638,15.314703867\O,0,11.2148334471,1
 6.7554626886,16.0216253142\O,0,12.9691838492,16.5032922116,14.63905954
 1\H,0,8.1560114295,16.5314717765,14.6712493101\H,0,10.4457740582,16.64
 48873656,13.7827821903\H,0,11.3561629146,14.4217408925,12.9754634366\H
 ,0,10.098020968,13.6014099458,13.8739278333\H,0,11.0840397517,14.22734
 47608,16.0178292282\H,0,12.5073963364,13.9531180745,14.9931322438\H,0,
 8.4344220756,14.9619950603,15.0640673146\H,0,9.510531115,16.1662723448
 ,15.6730197059\N,0,9.8088422534,16.1098141052,11.3079851875\C,0,11.143
 4193578,16.7374702204,11.3321437232\C,0,10.9846999385,18.2538487789,11
 .5095566962\O,0,10.2918641319,18.9073831391,10.7472365827\C,0,11.89876
 75807,16.4304347447,10.0284587845\C,0,12.3617737549,14.964325198,9.922
 132853\C,0,12.7400197292,14.6309828123,8.4723248003\C,0,13.5417793615,
 14.675821874,10.8660201501\H,0,9.2657525081,16.2665119157,10.463329422
 8\H,0,11.7196696869,16.3277317615,12.1618731269\H,0,12.7727092268,17.0
 930418643,9.9704875936\H,0,11.2522165844,16.7080434325,9.1866833226\H,
 0,11.5152528124,14.323086336,10.2093948181\H,0,13.5584318008,15.274162
 7655,8.1252404354\H,0,13.0735804564,13.591594972,8.3837256724\H,0,11.8
 90838054,14.7719204373,7.7943343142\H,0,14.4275700087,15.2431082195,10
 .5530400069\H,0,13.3406595449,14.942669631,11.9118553629\H,0,13.806358
 0252,13.6133698022,10.842435\N,0,11.6974324493,18.8210991645,12.549493
 4151\C,0,11.5575385958,20.2591546797,12.7968183957\C,0,12.8704311769,2
 0.8543581332,13.3063507214\O,0,12.9207961426,21.876210955,13.957813385
 4\C,0,10.3389076235,20.6736523444,13.6439696451\C,0,10.1684278909,20.0
 532200311,15.0402698672\C,0,11.2991933006,20.3016408355,16.0520018369\
 N,0,12.3889588939,19.346674182,15.8069466005\C,0,13.6975406387,19.5257
 699847,16.0217588605\N,0,14.2144585718,20.7491880583,16.2648770334\N,0
 ,14.4886029162,18.4408460896,16.0256299115\O,0,13.9960629422,20.195678
 6198,12.9755885597\H,0,13.7563306041,19.4189717953,12.43301188\H,0,12.
 0631135424,18.2246863348,13.2924536799\H,0,11.4017541627,20.7008451763
 ,11.8035491016\H,0,9.4530251394,20.4321621101,13.0468470346\H,0,10.374
 6082328,21.7639549722,13.7344675279\H,0,9.2445519265,20.4632139056,15.
 4645367789\H,0,10.0124688361,18.9678786605,14.9644216963\H,0,10.930358
 5789,20.1512480689,17.0736702722\H,0,11.6577383846,21.3274079036,15.97
 1458557\H,0,12.0598718896,18.3675732784,15.8485780426\H,0,13.743902120
 2,21.5379773358,15.8292777768\H,0,15.2226751671,20.8332224042,16.24335
 26329\H,0,15.4889837946,18.5631669055,15.9542437381\H,0,14.0948552573,
 17.58248085,15.6186769531\\Version=ES64L-G16RevC.01\HF=-1447.5143309\R
 MSD=9.324e-09\Dipole=0.080506,-0.9028976,2.1813785\Quadrupole=-273.288
 3898,292.4206255,-19.1322356,727.9919612,599.4969951,900.7646873\PG=C0
 1 [X(C17H33N6O6)]\\@
 The archive entry for this job was punched.


 THE MOST INCOMPREHENSIBLE THING ABOUT THE WORLD
 IS THAT IT IS COMPREHENSIBLE. -- A. EINSTEIN
 Job cpu time:       0 days  0 hours  3 minutes  6.5 seconds.
 Elapsed time:       0 days  0 hours  0 minutes 47.1 seconds.
 File lengths (MBytes):  RWF=    248 Int=      0 D2E=      0 Chk=     32 Scr=     16
 Normal termination of Gaussian 16 at Tue May 24 03:33:50 2022.
