 Entering Gaussian System, Link 0=/opt/software/Gaussian/g16-AVX2-C.01/g16/g16
 Input=charge-conf-102.com
 Output=charge-conf-102.log
 Initial command:
 /opt/software/Gaussian/g16-AVX2-C.01/g16/l1.exe "/mnt/gs18/scratch/users/kengmith/Gau-10798.inp" -scrdir="/mnt/gs18/scratch/users/kengmith/"
 Entering Link 1 = /opt/software/Gaussian/g16-AVX2-C.01/g16/l1.exe PID=     10808.
  
 Copyright (c) 1988-2019, Gaussian, Inc.  All Rights Reserved.
  
 This is part of the Gaussian(R) 16 program.  It is based on
 the Gaussian(R) 09 system (copyright 2009, Gaussian, Inc.),
 the Gaussian(R) 03 system (copyright 2003, Gaussian, Inc.),
 the Gaussian(R) 98 system (copyright 1998, Gaussian, Inc.),
 the Gaussian(R) 94 system (copyright 1995, Gaussian, Inc.),
 the Gaussian 92(TM) system (copyright 1992, Gaussian, Inc.),
 the Gaussian 90(TM) system (copyright 1990, Gaussian, Inc.),
 the Gaussian 88(TM) system (copyright 1988, Gaussian, Inc.),
 the Gaussian 86(TM) system (copyright 1986, Carnegie Mellon
 University), and the Gaussian 82(TM) system (copyright 1983,
 Carnegie Mellon University). Gaussian is a federally registered
 trademark of Gaussian, Inc.
  
 This software contains proprietary and confidential information,
 including trade secrets, belonging to Gaussian, Inc.
  
 This software is provided under written license and may be
 used, copied, transmitted, or stored only in accord with that
 written license.
  
 The following legend is applicable only to US Government
 contracts under FAR:
  
                    RESTRICTED RIGHTS LEGEND
  
 Use, reproduction and disclosure by the US Government is
 subject to restrictions as set forth in subparagraphs (a)
 and (c) of the Commercial Computer Software - Restricted
 Rights clause in FAR 52.227-19.
  
 Gaussian, Inc.
 340 Quinnipiac St., Bldg. 40, Wallingford CT 06492
  
  
 ---------------------------------------------------------------
 Warning -- This program may not be used in any manner that
 competes with the business of Gaussian, Inc. or will provide
 assistance to any competitor of Gaussian, Inc.  The licensee
 of this program is prohibited from giving any competitor of
 Gaussian, Inc. access to this program.  By using this program,
 the user acknowledges that Gaussian, Inc. is engaged in the
 business of creating and licensing software in the field of
 computational chemistry and represents and warrants to the
 licensee that it is not a competitor of Gaussian, Inc. and that
 it will not use this program in any manner prohibited above.
 ---------------------------------------------------------------
  

 Cite this work as:
 Gaussian 16, Revision C.01,
 M. J. Frisch, G. W. Trucks, H. B. Schlegel, G. E. Scuseria, 
 M. A. Robb, J. R. Cheeseman, G. Scalmani, V. Barone, 
 G. A. Petersson, H. Nakatsuji, X. Li, M. Caricato, A. V. Marenich, 
 J. Bloino, B. G. Janesko, R. Gomperts, B. Mennucci, H. P. Hratchian, 
 J. V. Ortiz, A. F. Izmaylov, J. L. Sonnenberg, D. Williams-Young, 
 F. Ding, F. Lipparini, F. Egidi, J. Goings, B. Peng, A. Petrone, 
 T. Henderson, D. Ranasinghe, V. G. Zakrzewski, J. Gao, N. Rega, 
 G. Zheng, W. Liang, M. Hada, M. Ehara, K. Toyota, R. Fukuda, 
 J. Hasegawa, M. Ishida, T. Nakajima, Y. Honda, O. Kitao, H. Nakai, 
 T. Vreven, K. Throssell, J. A. Montgomery, Jr., J. E. Peralta, 
 F. Ogliaro, M. J. Bearpark, J. J. Heyd, E. N. Brothers, K. N. Kudin, 
 V. N. Staroverov, T. A. Keith, R. Kobayashi, J. Normand, 
 K. Raghavachari, A. P. Rendell, J. C. Burant, S. S. Iyengar, 
 J. Tomasi, M. Cossi, J. M. Millam, M. Klene, C. Adamo, R. Cammi, 
 J. W. Ochterski, R. L. Martin, K. Morokuma, O. Farkas, 
 J. B. Foresman, and D. J. Fox, Gaussian, Inc., Wallingford CT, 2019.
 
 ******************************************
 Gaussian 16:  ES64L-G16RevC.01  3-Jul-2019
                25-May-2022 
 ******************************************
 %mem=8gb
 %nproc=4
 Will use up to    4 processors via shared memory.
 %chk=conf-102.chk
 ----------------------------------------------------------------------
 # B3LYP/6-31G* empiricaldispersion=gd3 guess=read geom=check nosymm in
 tegral(ultrafinegrid)
 ----------------------------------------------------------------------
 1/29=2,38=1,172=1/1;
 2/12=2,15=1,40=1/2;
 3/5=1,6=6,7=1,11=2,14=-4,25=1,30=1,74=-5,75=-5,116=-2,124=31/1,2,3;
 4/5=1/1;
 5/5=2,38=6/2;
 6/7=2,8=2,9=2,10=2,28=1/1;
 99/5=1,9=1/99;
 ------------------------------------------------------
 Candidate Structure: Conf:102 Charge calc in gas phase
 ------------------------------------------------------
 Structure from the checkpoint file:  "conf-102.chk"
 Charge =  1 Multiplicity = 1
 Redundant internal coordinates found in file.  (old form).
 N,0,-6.6304344706,15.6534207303,14.5363831843
 C,0,-7.2632429606,16.9403485008,14.3086509866
 C,0,-8.4687280265,16.8571567859,13.3611600947
 O,0,-8.5034777046,15.9636321258,12.4947852236
 C,0,-6.2486205236,17.9247411266,13.6457124338
 C,0,-5.1866608108,18.4121876489,14.6019566131
 C,0,-4.1054369087,17.5956261475,14.9590078415
 C,0,-5.2928275995,19.684820039,15.1770700951
 C,0,-3.1519152706,18.0473904115,15.8712995857
 C,0,-4.3397567912,20.1386989857,16.0900265397
 C,0,-3.2653824433,19.318875027,16.4387655085
 H,0,-7.5541996017,17.358756656,15.275712036
 H,0,-5.8038735961,17.3961098546,12.7915322008
 H,0,-6.7925112816,18.790973133,13.2422454481
 H,0,-4.028748549,16.6005528533,14.5338717238
 H,0,-6.1263701773,20.3308940116,14.9045895276
 H,0,-2.3179749261,17.404909123,16.1399336713
 H,0,-4.4341307679,21.1303864666,16.5238743706
 H,0,-2.5197756465,19.6689879695,17.1469779594
 H,0,-6.6380425054,15.1245581996,13.6646186406
 H,0,-7.163839552,15.1063638411,15.2086266629
 N,0,-9.4083993116,17.8323323981,13.3950197592
 C,0,-10.5593077277,17.8101149069,12.4678045167
 C,0,-10.1935030491,17.7082130085,10.9917340644
 O,0,-10.9770868097,17.259115777,10.1678825776
 C,0,-11.3046657415,19.1204208225,12.7942346205
 C,0,-11.011400182,19.326288544,14.2864486115
 C,0,-9.5472624754,18.8886359813,14.4240825872
 H,0,-11.1838211824,16.9350242801,12.6748206121
 H,0,-10.8810080786,19.9437256435,12.2059561046
 H,0,-12.3675120444,19.0460677769,12.556704251
 H,0,-11.167530021,20.3561678664,14.6168649449
 H,0,-11.6526731186,18.6752761036,14.8907143977
 H,0,-9.3165505801,18.4994638721,15.4177337849
 H,0,-8.8547800099,19.7133712084,14.2134910446
 N,0,-8.9592613377,18.1794586084,10.6149908025
 C,0,-8.5020841672,17.9048314812,9.271840286
 C,0,-8.4401382112,16.3971406094,8.9495812045
 O,0,-8.4562027056,16.0244799419,7.7707438999
 C,0,-7.1262460659,18.5650135896,9.0354864052
 C,0,-6.6056278244,18.5068775476,7.5905269387
 C,0,-7.4473271669,19.3155157052,6.5633765152
 C,0,-7.9359288785,18.5097999839,5.3585874514
 N,0,-9.0564887013,17.5676471207,5.7399635246
 O,0,-8.2770017071,15.5171668699,9.8960900527
 H,0,-8.3794444726,15.8471611164,10.8344765884
 H,0,-8.2785579705,18.412094288,11.3254372523
 H,0,-9.2421851764,18.3175966948,8.5783046252
 H,0,-6.3908049895,18.09279814,9.6998281964
 H,0,-7.2140968127,19.6121450135,9.3517744594
 H,0,-5.5834159745,18.8973539494,7.5937755248
 H,0,-6.5206501408,17.4608286072,7.2780967228
 H,0,-6.8485818012,20.1381676713,6.1589682173
 H,0,-8.3088615087,19.7987855685,7.0453421177
 H,0,-8.3153739357,19.1569344323,4.563617909
 H,0,-7.1372625586,17.8871693736,4.9472178462
 H,0,-9.3009771194,16.9380655791,4.9690108112
 H,0,-9.9054267948,18.0867565868,5.9849270577
 H,0,-8.7976488532,16.9504545047,6.5990784364
 Recover connectivity data from disk.
                           ----------------------------
                           !    Current Parameters    !
                           ! (Angstroms and Degrees)  !
 --------------------------                            --------------------------
 ! Name  Definition              Value                                          !
 --------------------------------------------------------------------------------
 ! R1    R(1,2)                  1.4521                                         !
 ! R2    R(1,20)                 1.0197                                         !
 ! R3    R(1,21)                 1.0177                                         !
 ! R4    R(2,3)                  1.5355                                         !
 ! R5    R(2,5)                  1.5614                                         !
 ! R6    R(2,12)                 1.0931                                         !
 ! R7    R(3,4)                  1.2451                                         !
 ! R8    R(3,22)                 1.3547                                         !
 ! R9    R(5,6)                  1.5099                                         !
 ! R10   R(5,13)                 1.0986                                         !
 ! R11   R(5,14)                 1.0995                                         !
 ! R12   R(6,7)                  1.4012                                         !
 ! R13   R(6,8)                  1.4006                                         !
 ! R14   R(7,9)                  1.3948                                         !
 ! R15   R(7,15)                 1.0848                                         !
 ! R16   R(8,10)                 1.3957                                         !
 ! R17   R(8,16)                 1.0892                                         !
 ! R18   R(9,11)                 1.397                                          !
 ! R19   R(9,17)                 1.0865                                         !
 ! R20   R(10,11)                1.3957                                         !
 ! R21   R(10,18)                1.0865                                         !
 ! R22   R(11,19)                1.0863                                         !
 ! R23   R(22,23)                1.4781                                         !
 ! R24   R(22,28)                1.4812                                         !
 ! R25   R(23,24)                1.5241                                         !
 ! R26   R(23,26)                1.5424                                         !
 ! R27   R(23,29)                1.0948                                         !
 ! R28   R(24,25)                1.2225                                         !
 ! R29   R(24,36)                1.3738                                         !
 ! R30   R(26,27)                1.5346                                         !
 ! R31   R(26,30)                1.097                                          !
 ! R32   R(26,31)                1.0916                                         !
 ! R33   R(27,28)                1.5343                                         !
 ! R34   R(27,32)                1.0928                                         !
 ! R35   R(27,33)                1.0955                                         !
 ! R36   R(28,34)                1.0918                                         !
 ! R37   R(28,35)                1.0973                                         !
 ! R38   R(36,37)                1.4452                                         !
 ! R39   R(36,47)                1.011                                          !
 ! R40   R(37,38)                1.543                                          !
 ! R41   R(37,40)                1.5442                                         !
 ! R42   R(37,48)                1.095                                          !
 ! R43   R(38,39)                1.2364                                         !
 ! R44   R(38,45)                1.3026                                         !
 ! R45   R(40,41)                1.537                                          !
 ! R46   R(40,49)                1.0978                                         !
 ! R47   R(40,50)                1.0974                                         !
 ! R48   R(41,42)                1.5548                                         !
 ! R49   R(41,51)                1.0943                                         !
 ! R50   R(41,52)                1.095                                          !
 ! R51   R(42,43)                1.5295                                         !
 ! R52   R(42,53)                1.0949                                         !
 ! R53   R(42,54)                1.0991                                         !
 ! R54   R(43,44)                1.5129                                         !
 ! R55   R(43,55)                1.093                                          !
 ! R56   R(43,56)                1.0931                                         !
 ! R57   R(44,57)                1.0249                                         !
 ! R58   R(44,58)                1.0248                                         !
 ! R59   R(44,59)                1.089                                          !
 ! R60   R(45,46)                1.0                                            !
 ! A1    A(2,1,20)             108.8045                                         !
 ! A2    A(2,1,21)             110.5848                                         !
 ! A3    A(20,1,21)            106.3812                                         !
 ! A4    A(1,2,3)              113.0096                                         !
 ! A5    A(1,2,5)              110.0082                                         !
 ! A6    A(1,2,12)             108.4503                                         !
 ! A7    A(3,2,5)              106.3985                                         !
 ! A8    A(3,2,12)             110.9566                                         !
 ! A9    A(5,2,12)             107.8942                                         !
 ! A10   A(2,3,4)              119.351                                          !
 ! A11   A(2,3,22)             119.3499                                         !
 ! A12   A(4,3,22)             120.9738                                         !
 ! A13   A(2,5,6)              113.0589                                         !
 ! A14   A(2,5,13)             106.8473                                         !
 ! A15   A(2,5,14)             109.3323                                         !
 ! A16   A(6,5,13)             111.2868                                         !
 ! A17   A(6,5,14)             109.0243                                         !
 ! A18   A(13,5,14)            107.1001                                         !
 ! A19   A(5,6,7)              121.0628                                         !
 ! A20   A(5,6,8)              120.0058                                         !
 ! A21   A(7,6,8)              118.9068                                         !
 ! A22   A(6,7,9)              120.3596                                         !
 ! A23   A(6,7,15)             119.2913                                         !
 ! A24   A(9,7,15)             120.3374                                         !
 ! A25   A(6,8,10)             120.8202                                         !
 ! A26   A(6,8,16)             119.6198                                         !
 ! A27   A(10,8,16)            119.5591                                         !
 ! A28   A(7,9,11)             120.3275                                         !
 ! A29   A(7,9,17)             119.6637                                         !
 ! A30   A(11,9,17)            120.0088                                         !
 ! A31   A(8,10,11)            119.8736                                         !
 ! A32   A(8,10,18)            119.914                                          !
 ! A33   A(11,10,18)           120.2119                                         !
 ! A34   A(9,11,10)            119.7123                                         !
 ! A35   A(9,11,19)            120.16                                           !
 ! A36   A(10,11,19)           120.1276                                         !
 ! A37   A(3,22,23)            120.9045                                         !
 ! A38   A(3,22,28)            126.5664                                         !
 ! A39   A(23,22,28)           111.9335                                         !
 ! A40   A(22,23,24)           114.9383                                         !
 ! A41   A(22,23,26)           103.3407                                         !
 ! A42   A(22,23,29)           109.7277                                         !
 ! A43   A(24,23,26)           112.194                                          !
 ! A44   A(24,23,29)           105.4613                                         !
 ! A45   A(26,23,29)           111.3059                                         !
 ! A46   A(23,24,25)           121.5602                                         !
 ! A47   A(23,24,36)           117.2759                                         !
 ! A48   A(25,24,36)           121.1359                                         !
 ! A49   A(23,26,27)           103.1442                                         !
 ! A50   A(23,26,30)           109.7218                                         !
 ! A51   A(23,26,31)           111.506                                          !
 ! A52   A(27,26,30)           110.3016                                         !
 ! A53   A(27,26,31)           114.0031                                         !
 ! A54   A(30,26,31)           108.0868                                         !
 ! A55   A(26,27,28)           103.3745                                         !
 ! A56   A(26,27,32)           113.149                                          !
 ! A57   A(26,27,33)           110.1667                                         !
 ! A58   A(28,27,32)           112.2117                                         !
 ! A59   A(28,27,33)           109.8522                                         !
 ! A60   A(32,27,33)           108.0368                                         !
 ! A61   A(22,28,27)           103.3296                                         !
 ! A62   A(22,28,34)           110.9945                                         !
 ! A63   A(22,28,35)           110.0899                                         !
 ! A64   A(27,28,34)           112.6411                                         !
 ! A65   A(27,28,35)           111.7528                                         !
 ! A66   A(34,28,35)           108.0122                                         !
 ! A67   A(24,36,37)           118.2878                                         !
 ! A68   A(24,36,47)           119.4126                                         !
 ! A69   A(37,36,47)           118.9354                                         !
 ! A70   A(36,37,38)           113.1099                                         !
 ! A71   A(36,37,40)           110.0516                                         !
 ! A72   A(36,37,48)           107.6496                                         !
 ! A73   A(38,37,40)           110.4874                                         !
 ! A74   A(38,37,48)           105.2585                                         !
 ! A75   A(40,37,48)           110.1257                                         !
 ! A76   A(37,38,39)           119.5448                                         !
 ! A77   A(37,38,45)           120.8875                                         !
 ! A78   A(39,38,45)           119.3921                                         !
 ! A79   A(37,40,41)           115.4366                                         !
 ! A80   A(37,40,49)           108.6839                                         !
 ! A81   A(37,40,50)           107.0078                                         !
 ! A82   A(41,40,49)           109.0096                                         !
 ! A83   A(41,40,50)           109.5223                                         !
 ! A84   A(49,40,50)           106.8374                                         !
 ! A85   A(40,41,42)           114.7105                                         !
 ! A86   A(40,41,51)           107.4658                                         !
 ! A87   A(40,41,52)           109.3087                                         !
 ! A88   A(42,41,51)           108.789                                          !
 ! A89   A(42,41,52)           110.5091                                         !
 ! A90   A(51,41,52)           105.6189                                         !
 ! A91   A(41,42,43)           114.7928                                         !
 ! A92   A(41,42,53)           109.8002                                         !
 ! A93   A(41,42,54)           111.3045                                         !
 ! A94   A(43,42,53)           106.2331                                         !
 ! A95   A(43,42,54)           109.0639                                         !
 ! A96   A(53,42,54)           105.0846                                         !
 ! A97   A(42,43,44)           111.4753                                         !
 ! A98   A(42,43,55)           111.8332                                         !
 ! A99   A(42,43,56)           111.2907                                         !
 ! A100  A(44,43,55)           107.1529                                         !
 ! A101  A(44,43,56)           106.3399                                         !
 ! A102  A(55,43,56)           108.4924                                         !
 ! A103  A(43,44,57)           111.6909                                         !
 ! A104  A(43,44,58)           111.0012                                         !
 ! A105  A(43,44,59)           112.0713                                         !
 ! A106  A(57,44,58)           107.0588                                         !
 ! A107  A(57,44,59)           107.5752                                         !
 ! A108  A(58,44,59)           107.1817                                         !
 ! A109  A(38,45,46)           116.4938                                         !
 ! D1    D(20,1,2,3)            37.9043                                         !
 ! D2    D(20,1,2,5)           -80.8502                                         !
 ! D3    D(20,1,2,12)          161.3617                                         !
 ! D4    D(21,1,2,3)           -78.5917                                         !
 ! D5    D(21,1,2,5)           162.6538                                         !
 ! D6    D(21,1,2,12)           44.8657                                         !
 ! D7    D(1,2,3,4)            -28.3087                                         !
 ! D8    D(1,2,3,22)           158.1749                                         !
 ! D9    D(5,2,3,4)             92.5197                                         !
 ! D10   D(5,2,3,22)           -80.9966                                         !
 ! D11   D(12,2,3,4)          -150.3711                                         !
 ! D12   D(12,2,3,22)           36.1126                                         !
 ! D13   D(1,2,5,6)            -72.9337                                         !
 ! D14   D(1,2,5,13)            49.8291                                         !
 ! D15   D(1,2,5,14)           165.4124                                         !
 ! D16   D(3,2,5,6)            164.3287                                         !
 ! D17   D(3,2,5,13)           -72.9086                                         !
 ! D18   D(3,2,5,14)            42.6747                                         !
 ! D19   D(12,2,5,6)            45.1982                                         !
 ! D20   D(12,2,5,13)          167.961                                          !
 ! D21   D(12,2,5,14)          -76.4557                                         !
 ! D22   D(2,3,22,23)          177.9656                                         !
 ! D23   D(2,3,22,28)          -11.6212                                         !
 ! D24   D(4,3,22,23)            4.5574                                         !
 ! D25   D(4,3,22,28)          174.9706                                         !
 ! D26   D(2,5,6,7)             77.077                                          !
 ! D27   D(2,5,6,8)           -101.0992                                         !
 ! D28   D(13,5,6,7)           -43.1819                                         !
 ! D29   D(13,5,6,8)           138.6419                                         !
 ! D30   D(14,5,6,7)          -161.0958                                         !
 ! D31   D(14,5,6,8)            20.7279                                         !
 ! D32   D(5,6,7,9)           -178.2758                                         !
 ! D33   D(5,6,7,15)             0.4824                                         !
 ! D34   D(8,6,7,9)             -0.0799                                         !
 ! D35   D(8,6,7,15)           178.6783                                         !
 ! D36   D(5,6,8,10)           178.299                                          !
 ! D37   D(5,6,8,16)            -2.0433                                         !
 ! D38   D(7,6,8,10)             0.0836                                         !
 ! D39   D(7,6,8,16)           179.7413                                         !
 ! D40   D(6,7,9,11)             0.0155                                         !
 ! D41   D(6,7,9,17)          -179.9865                                         !
 ! D42   D(15,7,9,11)         -178.7296                                         !
 ! D43   D(15,7,9,17)            1.2684                                         !
 ! D44   D(6,8,10,11)           -0.0224                                         !
 ! D45   D(6,8,10,18)          179.7264                                         !
 ! D46   D(16,8,10,11)        -179.6803                                         !
 ! D47   D(16,8,10,18)           0.0685                                         !
 ! D48   D(7,9,11,10)            0.0467                                         !
 ! D49   D(7,9,11,19)         -179.8373                                         !
 ! D50   D(17,9,11,10)        -179.9513                                         !
 ! D51   D(17,9,11,19)           0.1647                                         !
 ! D52   D(8,10,11,9)           -0.0432                                         !
 ! D53   D(8,10,11,19)         179.8408                                         !
 ! D54   D(18,10,11,9)        -179.7913                                         !
 ! D55   D(18,10,11,19)          0.0927                                         !
 ! D56   D(3,22,23,24)         -54.1757                                         !
 ! D57   D(3,22,23,26)        -176.751                                          !
 ! D58   D(3,22,23,29)          64.4495                                         !
 ! D59   D(28,22,23,24)        134.1152                                         !
 ! D60   D(28,22,23,26)         11.5398                                         !
 ! D61   D(28,22,23,29)       -107.2596                                         !
 ! D62   D(3,22,28,27)        -158.6034                                         !
 ! D63   D(3,22,28,34)         -37.6279                                         !
 ! D64   D(3,22,28,35)          81.9115                                         !
 ! D65   D(23,22,28,27)         12.535                                          !
 ! D66   D(23,22,28,34)        133.5105                                         !
 ! D67   D(23,22,28,35)       -106.9501                                         !
 ! D68   D(22,23,24,25)        156.1532                                         !
 ! D69   D(22,23,24,36)        -25.7531                                         !
 ! D70   D(26,23,24,25)        -86.1667                                         !
 ! D71   D(26,23,24,36)         91.927                                          !
 ! D72   D(29,23,24,25)         35.1655                                         !
 ! D73   D(29,23,24,36)       -146.7408                                         !
 ! D74   D(22,23,26,27)        -30.8756                                         !
 ! D75   D(22,23,26,30)         86.6542                                         !
 ! D76   D(22,23,26,31)       -153.6276                                         !
 ! D77   D(24,23,26,27)       -155.2611                                         !
 ! D78   D(24,23,26,30)        -37.7312                                         !
 ! D79   D(24,23,26,31)         81.987                                          !
 ! D80   D(29,23,26,27)         86.8246                                         !
 ! D81   D(29,23,26,30)       -155.6455                                         !
 ! D82   D(29,23,26,31)        -35.9273                                         !
 ! D83   D(23,24,36,37)        170.3361                                         !
 ! D84   D(23,24,36,47)         11.2471                                         !
 ! D85   D(25,24,36,37)        -11.5616                                         !
 ! D86   D(25,24,36,47)       -170.6507                                         !
 ! D87   D(23,26,27,28)         38.9223                                         !
 ! D88   D(23,26,27,32)        160.5399                                         !
 ! D89   D(23,26,27,33)        -78.412                                          !
 ! D90   D(30,26,27,28)        -78.1989                                         !
 ! D91   D(30,26,27,32)         43.4188                                         !
 ! D92   D(30,26,27,33)        164.4668                                         !
 ! D93   D(31,26,27,28)        159.9922                                         !
 ! D94   D(31,26,27,32)        -78.3902                                         !
 ! D95   D(31,26,27,33)         42.6579                                         !
 ! D96   D(26,27,28,22)        -31.5641                                         !
 ! D97   D(26,27,28,34)       -151.4166                                         !
 ! D98   D(26,27,28,35)         86.7699                                         !
 ! D99   D(32,27,28,22)       -153.8103                                         !
 ! D100  D(32,27,28,34)         86.3373                                         !
 ! D101  D(32,27,28,35)        -35.4763                                         !
 ! D102  D(33,27,28,22)         85.9907                                         !
 ! D103  D(33,27,28,34)        -33.8618                                         !
 ! D104  D(33,27,28,35)       -155.6753                                         !
 ! D105  D(24,36,37,38)        -58.1129                                         !
 ! D106  D(24,36,37,40)        177.7726                                         !
 ! D107  D(24,36,37,48)         57.7391                                         !
 ! D108  D(47,36,37,38)        101.0777                                         !
 ! D109  D(47,36,37,40)        -23.0368                                         !
 ! D110  D(47,36,37,48)       -143.0703                                         !
 ! D111  D(36,37,38,39)        158.7464                                         !
 ! D112  D(36,37,38,45)        -26.1003                                         !
 ! D113  D(40,37,38,39)        -77.3777                                         !
 ! D114  D(40,37,38,45)         97.7756                                         !
 ! D115  D(48,37,38,39)         41.4816                                         !
 ! D116  D(48,37,38,45)       -143.3652                                         !
 ! D117  D(36,37,40,41)       -172.3869                                         !
 ! D118  D(36,37,40,49)         64.8208                                         !
 ! D119  D(36,37,40,50)        -50.2157                                         !
 ! D120  D(38,37,40,41)         61.9931                                         !
 ! D121  D(38,37,40,49)        -60.7993                                         !
 ! D122  D(38,37,40,50)       -175.8357                                         !
 ! D123  D(48,37,40,41)        -53.8645                                         !
 ! D124  D(48,37,40,49)       -176.6569                                         !
 ! D125  D(48,37,40,50)         68.3067                                         !
 ! D126  D(37,38,45,46)         11.8953                                         !
 ! D127  D(39,38,45,46)       -172.9441                                         !
 ! D128  D(37,40,41,42)         65.6372                                         !
 ! D129  D(37,40,41,51)       -173.2667                                         !
 ! D130  D(37,40,41,52)        -59.105                                          !
 ! D131  D(49,40,41,42)       -171.7435                                         !
 ! D132  D(49,40,41,51)        -50.6474                                         !
 ! D133  D(49,40,41,52)         63.5142                                         !
 ! D134  D(50,40,41,42)        -55.1792                                         !
 ! D135  D(50,40,41,51)         65.9169                                         !
 ! D136  D(50,40,41,52)       -179.9215                                         !
 ! D137  D(40,41,42,43)       -125.3332                                         !
 ! D138  D(40,41,42,53)        115.0909                                         !
 ! D139  D(40,41,42,54)         -0.8401                                         !
 ! D140  D(51,41,42,43)        114.2993                                         !
 ! D141  D(51,41,42,53)         -5.2766                                         !
 ! D142  D(51,41,42,54)       -121.2075                                         !
 ! D143  D(52,41,42,43)         -1.2254                                         !
 ! D144  D(52,41,42,53)       -120.8013                                         !
 ! D145  D(52,41,42,54)        123.2678                                         !
 ! D146  D(41,42,43,44)         73.285                                          !
 ! D147  D(41,42,43,55)       -166.7789                                         !
 ! D148  D(41,42,43,56)        -45.2556                                         !
 ! D149  D(53,42,43,44)       -165.1737                                         !
 ! D150  D(53,42,43,55)        -45.2376                                         !
 ! D151  D(53,42,43,56)         76.2857                                         !
 ! D152  D(54,42,43,44)        -52.3811                                         !
 ! D153  D(54,42,43,55)         67.5549                                         !
 ! D154  D(54,42,43,56)       -170.9217                                         !
 ! D155  D(42,43,44,57)       -172.3366                                         !
 ! D156  D(42,43,44,58)         68.2657                                         !
 ! D157  D(42,43,44,59)        -51.5427                                         !
 ! D158  D(55,43,44,57)         65.0014                                         !
 ! D159  D(55,43,44,58)        -54.3963                                         !
 ! D160  D(55,43,44,59)       -174.2048                                         !
 ! D161  D(56,43,44,57)        -50.8733                                         !
 ! D162  D(56,43,44,58)       -170.271                                          !
 ! D163  D(56,43,44,59)         69.9205                                         !
 --------------------------------------------------------------------------------
 Symmetry turned off by external request.
 Stoichiometry    C20H31N4O4(1+)
 Framework group  C1[X(C20H31N4O4)]
 Deg. of freedom   171
 Full point group                 C1      NOp   1
                          Input orientation:                          
 ---------------------------------------------------------------------
 Center     Atomic      Atomic             Coordinates (Angstroms)
 Number     Number       Type             X           Y           Z
 ---------------------------------------------------------------------
      1          7           0       -6.630434   15.653421   14.536383
      2          6           0       -7.263243   16.940349   14.308651
      3          6           0       -8.468728   16.857157   13.361160
      4          8           0       -8.503478   15.963632   12.494785
      5          6           0       -6.248621   17.924741   13.645712
      6          6           0       -5.186661   18.412188   14.601957
      7          6           0       -4.105437   17.595626   14.959008
      8          6           0       -5.292828   19.684820   15.177070
      9          6           0       -3.151915   18.047390   15.871300
     10          6           0       -4.339757   20.138699   16.090027
     11          6           0       -3.265382   19.318875   16.438766
     12          1           0       -7.554200   17.358757   15.275712
     13          1           0       -5.803874   17.396110   12.791532
     14          1           0       -6.792511   18.790973   13.242245
     15          1           0       -4.028749   16.600553   14.533872
     16          1           0       -6.126370   20.330894   14.904590
     17          1           0       -2.317975   17.404909   16.139934
     18          1           0       -4.434131   21.130386   16.523874
     19          1           0       -2.519776   19.668988   17.146978
     20          1           0       -6.638043   15.124558   13.664619
     21          1           0       -7.163840   15.106364   15.208627
     22          7           0       -9.408399   17.832332   13.395020
     23          6           0      -10.559308   17.810115   12.467805
     24          6           0      -10.193503   17.708213   10.991734
     25          8           0      -10.977087   17.259116   10.167883
     26          6           0      -11.304666   19.120421   12.794235
     27          6           0      -11.011400   19.326289   14.286449
     28          6           0       -9.547262   18.888636   14.424083
     29          1           0      -11.183821   16.935024   12.674821
     30          1           0      -10.881008   19.943726   12.205956
     31          1           0      -12.367512   19.046068   12.556704
     32          1           0      -11.167530   20.356168   14.616865
     33          1           0      -11.652673   18.675276   14.890714
     34          1           0       -9.316551   18.499464   15.417734
     35          1           0       -8.854780   19.713371   14.213491
     36          7           0       -8.959261   18.179459   10.614991
     37          6           0       -8.502084   17.904831    9.271840
     38          6           0       -8.440138   16.397141    8.949581
     39          8           0       -8.456203   16.024480    7.770744
     40          6           0       -7.126246   18.565014    9.035486
     41          6           0       -6.605628   18.506878    7.590527
     42          6           0       -7.447327   19.315516    6.563377
     43          6           0       -7.935929   18.509800    5.358587
     44          7           0       -9.056489   17.567647    5.739964
     45          8           0       -8.277002   15.517167    9.896090
     46          1           0       -8.379444   15.847161   10.834477
     47          1           0       -8.278558   18.412094   11.325437
     48          1           0       -9.242185   18.317597    8.578305
     49          1           0       -6.390805   18.092798    9.699828
     50          1           0       -7.214097   19.612145    9.351774
     51          1           0       -5.583416   18.897354    7.593776
     52          1           0       -6.520650   17.460829    7.278097
     53          1           0       -6.848582   20.138168    6.158968
     54          1           0       -8.308862   19.798786    7.045342
     55          1           0       -8.315374   19.156934    4.563618
     56          1           0       -7.137263   17.887169    4.947218
     57          1           0       -9.300977   16.938066    4.969011
     58          1           0       -9.905427   18.086757    5.984927
     59          1           0       -8.797649   16.950455    6.599078
 ---------------------------------------------------------------------
 Rotational constants (GHZ):           0.2394711           0.0958431           0.0816233
 Standard basis: 6-31G(d) (6D, 7F)
   482 basis functions,   908 primitive gaussians,   482 cartesian basis functions
   105 alpha electrons      105 beta electrons
       nuclear repulsion energy      2797.8577858423 Hartrees.
 NAtoms=   59 NActive=   59 NUniq=   59 SFac= 1.00D+00 NAtFMM=   60 NAOKFM=F Big=F
 Integral buffers will be    131072 words long.
 Raffenetti 2 integral format.
 Two-electron integral symmetry is turned off.
 Nuclear repulsion after empirical dispersion term =     2797.7843958228 Hartrees.
 One-electron integrals computed using PRISM.
 NBasis=   482 RedAO= T EigKep=  4.65D-04  NBF=   482
 NBsUse=   482 1.00D-06 EigRej= -1.00D+00 NBFU=   482
 Initial guess from the checkpoint file:  "conf-102.chk"
 B after Tr=     0.000000    0.000000    0.000000
         Rot=    1.000000    0.000000    0.000000    0.000000 Ang=   0.00 deg.
 Requested convergence on RMS density matrix=1.00D-08 within 128 cycles.
 Requested convergence on MAX density matrix=1.00D-06.
 Requested convergence on             energy=1.00D-06.
 No special actions if energy rises.
 SCF Done:  E(RB3LYP) =  -1300.61252483     A.U. after    1 cycles
            NFock=  1  Conv=0.72D-08     -V/T= 2.0095

 **********************************************************************

            Population analysis using the SCF Density.

 **********************************************************************

 Alpha  occ. eigenvalues --  -19.30015 -19.26776 -19.23695 -19.23010 -14.58085
 Alpha  occ. eigenvalues --  -14.48488 -14.48006 -14.40094 -10.44750 -10.40187
 Alpha  occ. eigenvalues --  -10.39820 -10.39140 -10.36865 -10.34278 -10.33618
 Alpha  occ. eigenvalues --  -10.33529 -10.32672 -10.32198 -10.31931 -10.30100
 Alpha  occ. eigenvalues --  -10.29669 -10.28740 -10.26612 -10.25778 -10.25366
 Alpha  occ. eigenvalues --  -10.25141 -10.25089 -10.25034  -1.22277  -1.15852
 Alpha  occ. eigenvalues --   -1.14838  -1.14127  -1.12506  -1.06061  -1.04615
 Alpha  occ. eigenvalues --   -0.98038  -0.94510  -0.92026  -0.91002  -0.90186
 Alpha  occ. eigenvalues --   -0.86810  -0.85554  -0.83536  -0.80718  -0.80074
 Alpha  occ. eigenvalues --   -0.78319  -0.76362  -0.75350  -0.73739  -0.72807
 Alpha  occ. eigenvalues --   -0.71655  -0.70898  -0.70579  -0.69279  -0.67668
 Alpha  occ. eigenvalues --   -0.66957  -0.66133  -0.65084  -0.64299  -0.62645
 Alpha  occ. eigenvalues --   -0.61817  -0.60380  -0.59686  -0.59392  -0.58310
 Alpha  occ. eigenvalues --   -0.57875  -0.57354  -0.56670  -0.56182  -0.55219
 Alpha  occ. eigenvalues --   -0.54667  -0.53848  -0.53354  -0.52915  -0.52503
 Alpha  occ. eigenvalues --   -0.52167  -0.52150  -0.51766  -0.50928  -0.50724
 Alpha  occ. eigenvalues --   -0.50379  -0.49024  -0.48509  -0.48292  -0.48085
 Alpha  occ. eigenvalues --   -0.47083  -0.46997  -0.46475  -0.46439  -0.46059
 Alpha  occ. eigenvalues --   -0.45217  -0.45093  -0.44435  -0.43150  -0.41949
 Alpha  occ. eigenvalues --   -0.41545  -0.40926  -0.40438  -0.38167  -0.37701
 Alpha  occ. eigenvalues --   -0.37038  -0.35594  -0.32969  -0.31180  -0.30811
 Alpha virt. eigenvalues --   -0.11917  -0.10483  -0.10392  -0.09060  -0.06874
 Alpha virt. eigenvalues --   -0.06432  -0.05475  -0.04621  -0.03505  -0.02082
 Alpha virt. eigenvalues --   -0.01563  -0.01179  -0.00488   0.00133   0.00669
 Alpha virt. eigenvalues --    0.01396   0.01638   0.01904   0.02625   0.03321
 Alpha virt. eigenvalues --    0.03657   0.03791   0.04095   0.04806   0.04893
 Alpha virt. eigenvalues --    0.05946   0.06116   0.06761   0.07056   0.07777
 Alpha virt. eigenvalues --    0.08471   0.08799   0.09218   0.09532   0.09764
 Alpha virt. eigenvalues --    0.10281   0.10758   0.11082   0.11397   0.11840
 Alpha virt. eigenvalues --    0.12312   0.12518   0.13031   0.13315   0.13689
 Alpha virt. eigenvalues --    0.14429   0.14814   0.16080   0.16794   0.17488
 Alpha virt. eigenvalues --    0.17776   0.19018   0.19561   0.20625   0.24050
 Alpha virt. eigenvalues --    0.24436   0.25765   0.26445   0.26917   0.27801
 Alpha virt. eigenvalues --    0.28279   0.29117   0.30651   0.33012   0.35789
 Alpha virt. eigenvalues --    0.37170   0.37550   0.38342   0.38512   0.39667
 Alpha virt. eigenvalues --    0.40946   0.41595   0.41963   0.42475   0.43247
 Alpha virt. eigenvalues --    0.43861   0.44918   0.45660   0.46194   0.46493
 Alpha virt. eigenvalues --    0.47103   0.47851   0.48392   0.48635   0.48929
 Alpha virt. eigenvalues --    0.49783   0.50084   0.50463   0.51794   0.52256
 Alpha virt. eigenvalues --    0.52431   0.52865   0.53248   0.53348   0.53834
 Alpha virt. eigenvalues --    0.54096   0.54486   0.54935   0.55247   0.55752
 Alpha virt. eigenvalues --    0.56117   0.56494   0.56804   0.57585   0.58302
 Alpha virt. eigenvalues --    0.58839   0.59488   0.59794   0.60355   0.61470
 Alpha virt. eigenvalues --    0.62505   0.63517   0.63834   0.64966   0.65631
 Alpha virt. eigenvalues --    0.66604   0.66945   0.67824   0.68537   0.68833
 Alpha virt. eigenvalues --    0.69383   0.70454   0.70540   0.71598   0.72233
 Alpha virt. eigenvalues --    0.72403   0.73480   0.74306   0.74748   0.75274
 Alpha virt. eigenvalues --    0.75641   0.75866   0.76126   0.76614   0.77214
 Alpha virt. eigenvalues --    0.77530   0.78062   0.78359   0.79267   0.79426
 Alpha virt. eigenvalues --    0.79600   0.80677   0.81287   0.81600   0.81897
 Alpha virt. eigenvalues --    0.82359   0.82818   0.83480   0.83626   0.84193
 Alpha virt. eigenvalues --    0.84986   0.85868   0.86203   0.86607   0.86774
 Alpha virt. eigenvalues --    0.88098   0.88797   0.89489   0.89834   0.91513
 Alpha virt. eigenvalues --    0.92280   0.92786   0.93736   0.94170   0.94388
 Alpha virt. eigenvalues --    0.95665   0.95722   0.96744   0.98030   0.99680
 Alpha virt. eigenvalues --    1.00710   1.02490   1.03198   1.03963   1.04579
 Alpha virt. eigenvalues --    1.05713   1.07201   1.08402   1.09677   1.10055
 Alpha virt. eigenvalues --    1.10620   1.12475   1.13469   1.14559   1.17732
 Alpha virt. eigenvalues --    1.18851   1.19882   1.20174   1.20735   1.23008
 Alpha virt. eigenvalues --    1.24479   1.26084   1.26478   1.27412   1.28518
 Alpha virt. eigenvalues --    1.30156   1.31052   1.32186   1.33861   1.34364
 Alpha virt. eigenvalues --    1.36289   1.36511   1.37902   1.38363   1.39393
 Alpha virt. eigenvalues --    1.40674   1.41275   1.42438   1.43061   1.43938
 Alpha virt. eigenvalues --    1.45156   1.45609   1.47586   1.48759   1.49296
 Alpha virt. eigenvalues --    1.51754   1.52673   1.54120   1.55516   1.58658
 Alpha virt. eigenvalues --    1.59158   1.60299   1.61842   1.62971   1.63123
 Alpha virt. eigenvalues --    1.64106   1.65639   1.66641   1.66910   1.67910
 Alpha virt. eigenvalues --    1.68518   1.68909   1.69158   1.70662   1.71761
 Alpha virt. eigenvalues --    1.72050   1.72768   1.73915   1.74506   1.75000
 Alpha virt. eigenvalues --    1.76023   1.76596   1.77570   1.77669   1.78706
 Alpha virt. eigenvalues --    1.79112   1.79366   1.80960   1.81566   1.82956
 Alpha virt. eigenvalues --    1.83240   1.83836   1.84342   1.84903   1.86456
 Alpha virt. eigenvalues --    1.87154   1.87336   1.88917   1.89950   1.90797
 Alpha virt. eigenvalues --    1.91082   1.91435   1.92367   1.93154   1.93445
 Alpha virt. eigenvalues --    1.93973   1.94596   1.95711   1.96599   1.97646
 Alpha virt. eigenvalues --    1.98612   1.99231   2.00989   2.01257   2.02560
 Alpha virt. eigenvalues --    2.03528   2.04940   2.06091   2.07793   2.08434
 Alpha virt. eigenvalues --    2.08612   2.09126   2.10297   2.10940   2.12941
 Alpha virt. eigenvalues --    2.14119   2.17214   2.17603   2.19545   2.19962
 Alpha virt. eigenvalues --    2.21970   2.22062   2.22476   2.23887   2.24294
 Alpha virt. eigenvalues --    2.25618   2.25743   2.27721   2.28350   2.29949
 Alpha virt. eigenvalues --    2.31123   2.31608   2.32385   2.33967   2.34218
 Alpha virt. eigenvalues --    2.36534   2.37497   2.39590   2.40634   2.41370
 Alpha virt. eigenvalues --    2.42075   2.44736   2.46629   2.47398   2.48086
 Alpha virt. eigenvalues --    2.49605   2.50290   2.51697   2.52322   2.52872
 Alpha virt. eigenvalues --    2.54467   2.54820   2.56173   2.57201   2.57882
 Alpha virt. eigenvalues --    2.59582   2.60689   2.61336   2.62305   2.66178
 Alpha virt. eigenvalues --    2.66520   2.67936   2.68561   2.69886   2.70859
 Alpha virt. eigenvalues --    2.73975   2.76148   2.77321   2.83127   2.86313
 Alpha virt. eigenvalues --    2.88809   2.91125   2.93309   2.95027   2.99365
 Alpha virt. eigenvalues --    2.99846   3.06306   3.11750   3.34685   3.69825
 Alpha virt. eigenvalues --    3.74949   3.90574   3.93397   3.99579   4.02269
 Alpha virt. eigenvalues --    4.03000   4.05235   4.06217   4.08622   4.09697
 Alpha virt. eigenvalues --    4.13386   4.14733   4.18289   4.19534   4.24052
 Alpha virt. eigenvalues --    4.26595   4.30994   4.33166   4.34231   4.35567
 Alpha virt. eigenvalues --    4.43210   4.44575   4.47527   4.55092   4.56892
 Alpha virt. eigenvalues --    4.64568   4.69936
          Condensed to atoms (all electrons):
 Mulliken charges:
               1
     1  N   -0.689063
     2  C   -0.063362
     3  C    0.570307
     4  O   -0.575268
     5  C   -0.369299
     6  C    0.169633
     7  C   -0.152117
     8  C   -0.189367
     9  C   -0.133259
    10  C   -0.128393
    11  C   -0.126227
    12  H    0.163664
    13  H    0.152049
    14  H    0.127537
    15  H    0.145515
    16  H    0.108482
    17  H    0.144379
    18  H    0.139502
    19  H    0.144890
    20  H    0.318226
    21  H    0.317615
    22  N   -0.471110
    23  C   -0.014515
    24  C    0.607297
    25  O   -0.514009
    26  C   -0.308612
    27  C   -0.305074
    28  C   -0.134943
    29  H    0.204491
    30  H    0.159228
    31  H    0.193374
    32  H    0.179516
    33  H    0.177397
    34  H    0.189037
    35  H    0.170165
    36  N   -0.642954
    37  C   -0.031257
    38  C    0.660514
    39  O   -0.530899
    40  C   -0.320118
    41  C   -0.298650
    42  C   -0.291732
    43  C   -0.197668
    44  N   -0.773147
    45  O   -0.554921
    46  H    0.487162
    47  H    0.352370
    48  H    0.156659
    49  H    0.174577
    50  H    0.177670
    51  H    0.184965
    52  H    0.175757
    53  H    0.200180
    54  H    0.161413
    55  H    0.209254
    56  H    0.219213
    57  H    0.409691
    58  H    0.399739
    59  H    0.464494
 Sum of Mulliken charges =   1.00000
 Mulliken charges with hydrogens summed into heavy atoms:
               1
     1  N   -0.053222
     2  C    0.100302
     3  C    0.570307
     4  O   -0.575268
     5  C   -0.089713
     6  C    0.169633
     7  C   -0.006602
     8  C   -0.080885
     9  C    0.011121
    10  C    0.011109
    11  C    0.018664
    22  N   -0.471110
    23  C    0.189976
    24  C    0.607297
    25  O   -0.514009
    26  C    0.043990
    27  C    0.051840
    28  C    0.224259
    36  N   -0.290585
    37  C    0.125402
    38  C    0.660514
    39  O   -0.530899
    40  C    0.032130
    41  C    0.062072
    42  C    0.069861
    43  C    0.230799
    44  N    0.500777
    45  O   -0.067758
 Electronic spatial extent (au):  <R**2>=         400882.5299
 Charge=              1.0000 electrons
 Dipole moment (field-independent basis, Debye):
    X=            -40.9909    Y=             90.9998    Z=             42.8885  Tot=            108.6308
 Quadrupole moment (field-independent basis, Debye-Ang):
   XX=            199.4314   YY=           1557.1702   ZZ=            321.3555
   XY=           -778.7330   XZ=           -367.8820   YZ=            819.3740
 Traceless Quadrupole moment (field-independent basis, Debye-Ang):
   XX=           -493.2209   YY=            864.5178   ZZ=           -371.2969
   XY=           -778.7330   XZ=           -367.8820   YZ=            819.3740
 Octapole moment (field-independent basis, Debye-Ang**2):
  XXX=            506.0888  YYY=          23704.7283  ZZZ=            589.3849  XYY=         -13491.3320
  XXY=           3981.5071  XXZ=           1422.9677  XZZ=          -2925.4088  YZZ=           6313.1888
  YYZ=          13721.5050  XYZ=          -7052.1689
 Hexadecapole moment (field-independent basis, Debye-Ang**3):
 XXXX=         -33556.9314 YYYY=         296508.9648 ZZZZ=         -57117.6702 XXXY=           4934.1662
 XXXZ=          11924.4980 YYYX=        -211347.2365 YYYZ=         194901.6760 ZZZX=         -11726.4935
 ZZZY=          16748.9363 XXYY=          67776.5969 XXZZ=           4258.1904 YYZZ=          99483.4742
 XXYZ=          29729.6409 YYXZ=        -120546.8353 ZZXY=         -57383.0447
 N-N= 2.797784395823D+03 E-N=-8.598684728653D+03  KE= 1.288382786258D+03
 Unable to Open any file for archive entry.
 1\1\GINC-LAC-304\SP\RB3LYP\6-31G(d)\C20H31N4O4(1+)\KENGMITH\25-May-202
 2\0\\# B3LYP/6-31G* empiricaldispersion=gd3 guess=read geom=check nosy
 mm integral(ultrafinegrid)\\Candidate Structure: Conf:102 Charge calc 
 in gas phase\\1,1\N,0,-6.6304344706,15.6534207303,14.5363831843\C,0,-7
 .2632429606,16.9403485008,14.3086509866\C,0,-8.4687280265,16.857156785
 9,13.3611600947\O,0,-8.5034777046,15.9636321258,12.4947852236\C,0,-6.2
 486205236,17.9247411266,13.6457124338\C,0,-5.1866608108,18.4121876489,
 14.6019566131\C,0,-4.1054369087,17.5956261475,14.9590078415\C,0,-5.292
 8275995,19.684820039,15.1770700951\C,0,-3.1519152706,18.0473904115,15.
 8712995857\C,0,-4.3397567912,20.1386989857,16.0900265397\C,0,-3.265382
 4433,19.318875027,16.4387655085\H,0,-7.5541996017,17.358756656,15.2757
 12036\H,0,-5.8038735961,17.3961098546,12.7915322008\H,0,-6.7925112816,
 18.790973133,13.2422454481\H,0,-4.028748549,16.6005528533,14.533871723
 8\H,0,-6.1263701773,20.3308940116,14.9045895276\H,0,-2.3179749261,17.4
 04909123,16.1399336713\H,0,-4.4341307679,21.1303864666,16.5238743706\H
 ,0,-2.5197756465,19.6689879695,17.1469779594\H,0,-6.6380425054,15.1245
 581996,13.6646186406\H,0,-7.163839552,15.1063638411,15.2086266629\N,0,
 -9.4083993116,17.8323323981,13.3950197592\C,0,-10.5593077277,17.810114
 9069,12.4678045167\C,0,-10.1935030491,17.7082130085,10.9917340644\O,0,
 -10.9770868097,17.259115777,10.1678825776\C,0,-11.3046657415,19.120420
 8225,12.7942346205\C,0,-11.011400182,19.326288544,14.2864486115\C,0,-9
 .5472624754,18.8886359813,14.4240825872\H,0,-11.1838211824,16.93502428
 01,12.6748206121\H,0,-10.8810080786,19.9437256435,12.2059561046\H,0,-1
 2.3675120444,19.0460677769,12.556704251\H,0,-11.167530021,20.356167866
 4,14.6168649449\H,0,-11.6526731186,18.6752761036,14.8907143977\H,0,-9.
 3165505801,18.4994638721,15.4177337849\H,0,-8.8547800099,19.7133712084
 ,14.2134910446\N,0,-8.9592613377,18.1794586084,10.6149908025\C,0,-8.50
 20841672,17.9048314812,9.271840286\C,0,-8.4401382112,16.3971406094,8.9
 495812045\O,0,-8.4562027056,16.0244799419,7.7707438999\C,0,-7.12624606
 59,18.5650135896,9.0354864052\C,0,-6.6056278244,18.5068775476,7.590526
 9387\C,0,-7.4473271669,19.3155157052,6.5633765152\C,0,-7.9359288785,18
 .5097999839,5.3585874514\N,0,-9.0564887013,17.5676471207,5.7399635246\
 O,0,-8.2770017071,15.5171668699,9.8960900527\H,0,-8.3794444726,15.8471
 611164,10.8344765884\H,0,-8.2785579705,18.412094288,11.3254372523\H,0,
 -9.2421851764,18.3175966948,8.5783046252\H,0,-6.3908049895,18.09279814
 ,9.6998281964\H,0,-7.2140968127,19.6121450135,9.3517744594\H,0,-5.5834
 159745,18.8973539494,7.5937755248\H,0,-6.5206501408,17.4608286072,7.27
 80967228\H,0,-6.8485818012,20.1381676713,6.1589682173\H,0,-8.308861508
 7,19.7987855685,7.0453421177\H,0,-8.3153739357,19.1569344323,4.5636179
 09\H,0,-7.1372625586,17.8871693736,4.9472178462\H,0,-9.3009771194,16.9
 380655791,4.9690108112\H,0,-9.9054267948,18.0867565868,5.9849270577\H,
 0,-8.7976488532,16.9504545047,6.5990784364\\Version=ES64L-G16RevC.01\H
 F=-1300.6125248\RMSD=7.159e-09\Dipole=-1.4114181,2.0175568,-5.1645538\
 Quadrupole=-366.697665,642.7478075,-276.0501425,-578.9688964,-273.5112
 747,609.1844889\PG=C01 [X(C20H31N4O4)]\\@
 The archive entry for this job was punched.


 MYSTERY IS THE WISDOM OF BLOCKHEADS... HORACE WALPOLE 
 Job cpu time:       0 days  0 hours  1 minutes 14.9 seconds.
 Elapsed time:       0 days  0 hours  0 minutes 19.2 seconds.
 File lengths (MBytes):  RWF=    240 Int=      0 D2E=      0 Chk=     32 Scr=     16
 Normal termination of Gaussian 16 at Wed May 25 08:35:01 2022.
