 Entering Gaussian System, Link 0=/opt/software/Gaussian/g16-AVX2-C.01/g16/g16
 Input=charge-conf-883.com
 Output=charge-conf-883.log
 Initial command:
 /opt/software/Gaussian/g16-AVX2-C.01/g16/l1.exe "/mnt/gs18/scratch/users/kengmith/Gau-38010.inp" -scrdir="/mnt/gs18/scratch/users/kengmith/"
 Entering Link 1 = /opt/software/Gaussian/g16-AVX2-C.01/g16/l1.exe PID=     38021.
  
 Copyright (c) 1988-2019, Gaussian, Inc.  All Rights Reserved.
  
 This is part of the Gaussian(R) 16 program.  It is based on
 the Gaussian(R) 09 system (copyright 2009, Gaussian, Inc.),
 the Gaussian(R) 03 system (copyright 2003, Gaussian, Inc.),
 the Gaussian(R) 98 system (copyright 1998, Gaussian, Inc.),
 the Gaussian(R) 94 system (copyright 1995, Gaussian, Inc.),
 the Gaussian 92(TM) system (copyright 1992, Gaussian, Inc.),
 the Gaussian 90(TM) system (copyright 1990, Gaussian, Inc.),
 the Gaussian 88(TM) system (copyright 1988, Gaussian, Inc.),
 the Gaussian 86(TM) system (copyright 1986, Carnegie Mellon
 University), and the Gaussian 82(TM) system (copyright 1983,
 Carnegie Mellon University). Gaussian is a federally registered
 trademark of Gaussian, Inc.
  
 This software contains proprietary and confidential information,
 including trade secrets, belonging to Gaussian, Inc.
  
 This software is provided under written license and may be
 used, copied, transmitted, or stored only in accord with that
 written license.
  
 The following legend is applicable only to US Government
 contracts under FAR:
  
                    RESTRICTED RIGHTS LEGEND
  
 Use, reproduction and disclosure by the US Government is
 subject to restrictions as set forth in subparagraphs (a)
 and (c) of the Commercial Computer Software - Restricted
 Rights clause in FAR 52.227-19.
  
 Gaussian, Inc.
 340 Quinnipiac St., Bldg. 40, Wallingford CT 06492
  
  
 ---------------------------------------------------------------
 Warning -- This program may not be used in any manner that
 competes with the business of Gaussian, Inc. or will provide
 assistance to any competitor of Gaussian, Inc.  The licensee
 of this program is prohibited from giving any competitor of
 Gaussian, Inc. access to this program.  By using this program,
 the user acknowledges that Gaussian, Inc. is engaged in the
 business of creating and licensing software in the field of
 computational chemistry and represents and warrants to the
 licensee that it is not a competitor of Gaussian, Inc. and that
 it will not use this program in any manner prohibited above.
 ---------------------------------------------------------------
  

 Cite this work as:
 Gaussian 16, Revision C.01,
 M. J. Frisch, G. W. Trucks, H. B. Schlegel, G. E. Scuseria, 
 M. A. Robb, J. R. Cheeseman, G. Scalmani, V. Barone, 
 G. A. Petersson, H. Nakatsuji, X. Li, M. Caricato, A. V. Marenich, 
 J. Bloino, B. G. Janesko, R. Gomperts, B. Mennucci, H. P. Hratchian, 
 J. V. Ortiz, A. F. Izmaylov, J. L. Sonnenberg, D. Williams-Young, 
 F. Ding, F. Lipparini, F. Egidi, J. Goings, B. Peng, A. Petrone, 
 T. Henderson, D. Ranasinghe, V. G. Zakrzewski, J. Gao, N. Rega, 
 G. Zheng, W. Liang, M. Hada, M. Ehara, K. Toyota, R. Fukuda, 
 J. Hasegawa, M. Ishida, T. Nakajima, Y. Honda, O. Kitao, H. Nakai, 
 T. Vreven, K. Throssell, J. A. Montgomery, Jr., J. E. Peralta, 
 F. Ogliaro, M. J. Bearpark, J. J. Heyd, E. N. Brothers, K. N. Kudin, 
 V. N. Staroverov, T. A. Keith, R. Kobayashi, J. Normand, 
 K. Raghavachari, A. P. Rendell, J. C. Burant, S. S. Iyengar, 
 J. Tomasi, M. Cossi, J. M. Millam, M. Klene, C. Adamo, R. Cammi, 
 J. W. Ochterski, R. L. Martin, K. Morokuma, O. Farkas, 
 J. B. Foresman, and D. J. Fox, Gaussian, Inc., Wallingford CT, 2019.
 
 ******************************************
 Gaussian 16:  ES64L-G16RevC.01  3-Jul-2019
                25-May-2022 
 ******************************************
 %mem=8gb
 %nproc=4
 Will use up to    4 processors via shared memory.
 %chk=conf-883.chk
 ----------------------------------------------------------------------
 # B3LYP/6-31G* empiricaldispersion=gd3 guess=read geom=check nosymm in
 tegral(ultrafinegrid)
 ----------------------------------------------------------------------
 1/29=2,38=1,172=1/1;
 2/12=2,15=1,40=1/2;
 3/5=1,6=6,7=1,11=2,14=-4,25=1,30=1,74=-5,75=-5,116=-2,124=31/1,2,3;
 4/5=1/1;
 5/5=2,38=6/2;
 6/7=2,8=2,9=2,10=2,28=1/1;
 99/5=1,9=1/99;
 ------------------------------------------------------
 Candidate Structure: Conf:883 Charge calc in gas phase
 ------------------------------------------------------
 Structure from the checkpoint file:  "conf-883.chk"
 Charge =  1 Multiplicity = 1
 Redundant internal coordinates found in file.  (old form).
 N,0,-10.6685748137,15.713986962,9.8785506131
 C,0,-9.990781667,16.9984982826,9.9662284903
 C,0,-8.4771785473,16.8829402949,9.7212993897
 O,0,-7.8695647577,15.8388843159,9.9434625347
 C,0,-10.1823635274,17.6001294498,11.3932242722
 C,0,-11.565884165,18.1588218001,11.6273732191
 C,0,-12.6678087605,17.3112932359,11.8083220841
 C,0,-11.7725299292,19.5442414739,11.6319058543
 C,0,-13.9446509502,17.8432091693,11.9882080949
 C,0,-13.0495883753,20.0785515784,11.8121136312
 C,0,-14.1402108763,19.2266612952,11.9913326142
 H,0,-10.445383096,17.6836000975,9.2435035152
 H,0,-9.9487486085,16.79958888,12.1074873113
 H,0,-9.4451216295,18.3997082963,11.5558130636
 H,0,-12.5175478749,16.2374489039,11.7831546251
 H,0,-10.9242407967,20.2149186089,11.4990389238
 H,0,-14.7903232477,17.1750980259,12.1265993806
 H,0,-13.1910625322,21.1560112804,11.8150694961
 H,0,-15.1358514025,19.6373248953,12.1339133779
 H,0,-10.0458330399,15.0021899664,10.2626405152
 H,0,-10.8161215515,15.4606338623,8.903664807
 N,0,-7.798192985,18.0317147726,9.3833701392
 C,0,-6.3626330348,17.9581017274,9.090353797
 C,0,-5.487901913,17.9849875581,10.3430630306
 O,0,-4.2492912483,17.9472324856,10.2421320546
 C,0,-6.105122224,19.1862607515,8.1927773649
 C,0,-7.1725377692,20.1868210866,8.6624927737
 C,0,-8.3977464604,19.2958159155,8.9055477571
 H,0,-6.1205354123,17.0137922241,8.5937985573
 H,0,-5.0782294281,19.5477968969,8.2757615996
 H,0,-6.2833283743,18.9041599755,7.1499425266
 H,0,-6.8623438003,20.6599858836,9.6025415551
 H,0,-7.3719783372,20.9795514887,7.9374027466
 H,0,-8.9580788165,19.1282339724,7.9767900493
 H,0,-9.0877042356,19.7106727002,9.6459036621
 N,0,-6.1092191474,18.0443917107,11.5408294171
 C,0,-5.4159696788,18.2270797541,12.8175272069
 C,0,-4.63266867,16.964774506,13.2633720921
 O,0,-4.774194635,16.458900482,14.3790046021
 C,0,-6.4362109229,18.7487205579,13.8435681563
 C,0,-5.9750876124,18.7930948288,15.3077713495
 C,0,-4.566419028,19.3707742541,15.5646351852
 C,0,-3.905466852,18.7039529142,16.7685927473
 N,0,-3.3934190166,17.322321575,16.3664300952
 O,0,-3.7329419956,16.503876249,12.4282536308
 H,0,-3.7370818405,17.0227145667,11.557414588
 H,0,-7.1202567626,18.0026489037,11.542096187
 H,0,-4.6377806892,18.985071666,12.6414065615
 H,0,-7.3368444445,18.1232133897,13.8047379808
 H,0,-6.74037022,19.7458637948,13.5028460137
 H,0,-6.7048316906,19.3803851746,15.8760725276
 H,0,-6.0343697342,17.7767460113,15.7027862068
 H,0,-4.6137704977,20.447525215,15.7583288333
 H,0,-3.9025573696,19.2635230466,14.6969841465
 H,0,-3.0487678064,19.261164262,17.1536637312
 H,0,-4.6153044743,18.5532376368,17.5854743307
 H,0,-3.2915871888,16.6929365962,17.1690943018
 H,0,-2.4744223096,17.3901427029,15.9162155085
 H,0,-4.0217867653,16.8687885983,15.6499299826
 Recover connectivity data from disk.
                           ----------------------------
                           !    Current Parameters    !
                           ! (Angstroms and Degrees)  !
 --------------------------                            --------------------------
 ! Name  Definition              Value                                          !
 --------------------------------------------------------------------------------
 ! R1    R(1,2)                  1.455                                          !
 ! R2    R(1,20)                 1.0208                                         !
 ! R3    R(1,21)                 1.018                                          !
 ! R4    R(2,3)                  1.5376                                         !
 ! R5    R(2,5)                  1.5604                                         !
 ! R6    R(2,12)                 1.0947                                         !
 ! R7    R(3,4)                  1.2283                                         !
 ! R8    R(3,22)                 1.3766                                         !
 ! R9    R(5,6)                  1.5103                                         !
 ! R10   R(5,13)                 1.098                                          !
 ! R11   R(5,14)                 1.0997                                         !
 ! R12   R(6,7)                  1.4019                                         !
 ! R13   R(6,8)                  1.4008                                         !
 ! R14   R(7,9)                  1.3949                                         !
 ! R15   R(7,15)                 1.0846                                         !
 ! R16   R(8,10)                 1.396                                          !
 ! R17   R(8,16)                 1.0895                                         !
 ! R18   R(9,11)                 1.3972                                         !
 ! R19   R(9,17)                 1.0866                                         !
 ! R20   R(10,11)                1.3955                                         !
 ! R21   R(10,18)                1.0867                                         !
 ! R22   R(11,19)                1.0864                                         !
 ! R23   R(22,23)                1.467                                          !
 ! R24   R(22,28)                1.4784                                         !
 ! R25   R(23,24)                1.5281                                         !
 ! R26   R(23,26)                1.5428                                         !
 ! R27   R(23,29)                1.094                                          !
 ! R28   R(24,25)                1.2433                                         !
 ! R29   R(24,36)                1.3506                                         !
 ! R30   R(26,27)                1.5366                                         !
 ! R31   R(26,30)                1.0918                                         !
 ! R32   R(26,31)                1.0949                                         !
 ! R33   R(27,28)                1.5343                                         !
 ! R34   R(27,32)                1.0972                                         !
 ! R35   R(27,33)                1.0927                                         !
 ! R36   R(28,34)                1.0976                                         !
 ! R37   R(28,35)                1.0937                                         !
 ! R38   R(36,37)                1.4642                                         !
 ! R39   R(36,47)                1.0119                                         !
 ! R40   R(37,38)                1.551                                          !
 ! R41   R(37,40)                1.5381                                         !
 ! R42   R(37,48)                1.1005                                         !
 ! R43   R(38,39)                1.2331                                         !
 ! R44   R(38,45)                1.3112                                         !
 ! R45   R(40,41)                1.5357                                         !
 ! R46   R(40,49)                1.0972                                         !
 ! R47   R(40,50)                1.0968                                         !
 ! R48   R(41,42)                1.544                                          !
 ! R49   R(41,51)                1.0956                                         !
 ! R50   R(41,52)                1.092                                          !
 ! R51   R(42,43)                1.5268                                         !
 ! R52   R(42,53)                1.0951                                         !
 ! R53   R(42,54)                1.0977                                         !
 ! R54   R(43,44)                1.5274                                         !
 ! R55   R(43,55)                1.0921                                         !
 ! R56   R(43,56)                1.0926                                         !
 ! R57   R(44,57)                1.0251                                         !
 ! R58   R(44,58)                1.0256                                         !
 ! R59   R(44,59)                1.0554                                         !
 ! R60   R(45,46)                1.0137                                         !
 ! A1    A(2,1,20)             107.9829                                         !
 ! A2    A(2,1,21)             110.1774                                         !
 ! A3    A(20,1,21)            105.9746                                         !
 ! A4    A(1,2,3)              112.4952                                         !
 ! A5    A(1,2,5)              109.7725                                         !
 ! A6    A(1,2,12)             108.6187                                         !
 ! A7    A(3,2,5)              107.1873                                         !
 ! A8    A(3,2,12)             110.5274                                         !
 ! A9    A(5,2,12)             108.1478                                         !
 ! A10   A(2,3,4)              121.4689                                         !
 ! A11   A(2,3,22)             117.5115                                         !
 ! A12   A(4,3,22)             120.6486                                         !
 ! A13   A(2,5,6)              113.3821                                         !
 ! A14   A(2,5,13)             106.7177                                         !
 ! A15   A(2,5,14)             109.4652                                         !
 ! A16   A(6,5,13)             111.3307                                         !
 ! A17   A(6,5,14)             108.7985                                         !
 ! A18   A(13,5,14)            106.936                                          !
 ! A19   A(5,6,7)              121.0917                                         !
 ! A20   A(5,6,8)              120.0996                                         !
 ! A21   A(7,6,8)              118.7879                                         !
 ! A22   A(6,7,9)              120.3731                                         !
 ! A23   A(6,7,15)             119.1224                                         !
 ! A24   A(9,7,15)             120.489                                          !
 ! A25   A(6,8,10)             120.9255                                         !
 ! A26   A(6,8,16)             119.5759                                         !
 ! A27   A(10,8,16)            119.4975                                         !
 ! A28   A(7,9,11)             120.3976                                         !
 ! A29   A(7,9,17)             119.629                                          !
 ! A30   A(11,9,17)            119.9733                                         !
 ! A31   A(8,10,11)            119.8601                                         !
 ! A32   A(8,10,18)            119.929                                          !
 ! A33   A(11,10,18)           120.2107                                         !
 ! A34   A(9,11,10)            119.6557                                         !
 ! A35   A(9,11,19)            120.1884                                         !
 ! A36   A(10,11,19)           120.1558                                         !
 ! A37   A(3,22,23)            119.3297                                         !
 ! A38   A(3,22,28)            126.3604                                         !
 ! A39   A(23,22,28)           112.0363                                         !
 ! A40   A(22,23,24)           113.299                                          !
 ! A41   A(22,23,26)           103.8622                                         !
 ! A42   A(22,23,29)           110.5188                                         !
 ! A43   A(24,23,26)           111.5536                                         !
 ! A44   A(24,23,29)           105.1051                                         !
 ! A45   A(26,23,29)           112.7129                                         !
 ! A46   A(23,24,25)           120.2109                                         !
 ! A47   A(23,24,36)           117.6737                                         !
 ! A48   A(25,24,36)           122.1147                                         !
 ! A49   A(23,26,27)           102.9771                                         !
 ! A50   A(23,26,30)           112.108                                          !
 ! A51   A(23,26,31)           108.774                                          !
 ! A52   A(27,26,30)           114.4876                                         !
 ! A53   A(27,26,31)           110.2337                                         !
 ! A54   A(30,26,31)           108.1062                                         !
 ! A55   A(26,27,28)           103.003                                          !
 ! A56   A(26,27,32)           110.2628                                         !
 ! A57   A(26,27,33)           113.3501                                         !
 ! A58   A(28,27,32)           109.9059                                         !
 ! A59   A(28,27,33)           112.3756                                         !
 ! A60   A(32,27,33)           107.8957                                         !
 ! A61   A(22,28,27)           102.9381                                         !
 ! A62   A(22,28,34)           110.4857                                         !
 ! A63   A(22,28,35)           111.1839                                         !
 ! A64   A(27,28,34)           111.2411                                         !
 ! A65   A(27,28,35)           112.9981                                         !
 ! A66   A(34,28,35)           107.9783                                         !
 ! A67   A(24,36,37)           124.1203                                         !
 ! A68   A(24,36,47)           117.3177                                         !
 ! A69   A(37,36,47)           118.497                                          !
 ! A70   A(36,37,38)           112.8424                                         !
 ! A71   A(36,37,40)           108.054                                          !
 ! A72   A(36,37,48)           106.331                                          !
 ! A73   A(38,37,40)           114.7866                                         !
 ! A74   A(38,37,48)           104.4443                                         !
 ! A75   A(40,37,48)           110.011                                          !
 ! A76   A(37,38,39)           122.4097                                         !
 ! A77   A(37,38,45)           116.7124                                         !
 ! A78   A(39,38,45)           120.7148                                         !
 ! A79   A(37,40,41)           116.5284                                         !
 ! A80   A(37,40,49)           109.1181                                         !
 ! A81   A(37,40,50)           106.5622                                         !
 ! A82   A(41,40,49)           107.258                                          !
 ! A83   A(41,40,50)           110.6825                                         !
 ! A84   A(49,40,50)           106.2404                                         !
 ! A85   A(40,41,42)           116.3183                                         !
 ! A86   A(40,41,51)           108.0614                                         !
 ! A87   A(40,41,52)           107.5589                                         !
 ! A88   A(42,41,51)           108.7125                                         !
 ! A89   A(42,41,52)           109.7283                                         !
 ! A90   A(51,41,52)           105.9679                                         !
 ! A91   A(41,42,43)           111.2683                                         !
 ! A92   A(41,42,53)           110.9687                                         !
 ! A93   A(41,42,54)           112.5625                                         !
 ! A94   A(43,42,53)           107.9803                                         !
 ! A95   A(43,42,54)           108.5907                                         !
 ! A96   A(53,42,54)           105.1902                                         !
 ! A97   A(42,43,44)           109.4255                                         !
 ! A98   A(42,43,55)           113.2534                                         !
 ! A99   A(42,43,56)           111.6262                                         !
 ! A100  A(44,43,55)           106.9412                                         !
 ! A101  A(44,43,56)           106.8503                                         !
 ! A102  A(55,43,56)           108.4445                                         !
 ! A103  A(43,44,57)           112.4909                                         !
 ! A104  A(43,44,58)           110.8652                                         !
 ! A105  A(43,44,59)           111.5844                                         !
 ! A106  A(57,44,58)           107.1768                                         !
 ! A107  A(57,44,59)           109.0798                                         !
 ! A108  A(58,44,59)           105.3013                                         !
 ! A109  A(38,45,46)           111.3724                                         !
 ! D1    D(20,1,2,3)            35.9805                                         !
 ! D2    D(20,1,2,5)           -83.277                                          !
 ! D3    D(20,1,2,12)          158.6647                                         !
 ! D4    D(21,1,2,3)           -79.3314                                         !
 ! D5    D(21,1,2,5)           161.4111                                         !
 ! D6    D(21,1,2,12)           43.3528                                         !
 ! D7    D(1,2,3,4)            -25.9104                                         !
 ! D8    D(1,2,3,22)           161.0411                                         !
 ! D9    D(5,2,3,4)             94.8434                                         !
 ! D10   D(5,2,3,22)           -78.2051                                         !
 ! D11   D(12,2,3,4)          -147.5145                                         !
 ! D12   D(12,2,3,22)           39.437                                          !
 ! D13   D(1,2,5,6)            -74.8965                                         !
 ! D14   D(1,2,5,13)            48.0356                                         !
 ! D15   D(1,2,5,14)           163.424                                          !
 ! D16   D(3,2,5,6)            162.6393                                         !
 ! D17   D(3,2,5,13)           -74.4286                                         !
 ! D18   D(3,2,5,14)            40.9598                                         !
 ! D19   D(12,2,5,6)            43.4535                                         !
 ! D20   D(12,2,5,13)          166.3857                                         !
 ! D21   D(12,2,5,14)          -78.2259                                         !
 ! D22   D(2,3,22,23)         -177.6628                                         !
 ! D23   D(2,3,22,28)          -16.2138                                         !
 ! D24   D(4,3,22,23)            9.2287                                         !
 ! D25   D(4,3,22,28)          170.6777                                         !
 ! D26   D(2,5,6,7)             73.481                                          !
 ! D27   D(2,5,6,8)           -104.8391                                         !
 ! D28   D(13,5,6,7)           -46.869                                          !
 ! D29   D(13,5,6,8)           134.811                                          !
 ! D30   D(14,5,6,7)          -164.4675                                         !
 ! D31   D(14,5,6,8)            17.2125                                         !
 ! D32   D(5,6,7,9)           -178.2962                                         !
 ! D33   D(5,6,7,15)             0.2748                                         !
 ! D34   D(8,6,7,9)              0.0454                                         !
 ! D35   D(8,6,7,15)           178.6164                                         !
 ! D36   D(5,6,8,10)           178.3288                                         !
 ! D37   D(5,6,8,16)            -2.0468                                         !
 ! D38   D(7,6,8,10)            -0.0297                                         !
 ! D39   D(7,6,8,16)           179.5947                                         !
 ! D40   D(6,7,9,11)            -0.0559                                         !
 ! D41   D(6,7,9,17)           179.9505                                         !
 ! D42   D(15,7,9,11)         -178.6073                                         !
 ! D43   D(15,7,9,17)            1.3991                                         !
 ! D44   D(6,8,10,11)            0.0242                                         !
 ! D45   D(6,8,10,18)          179.8618                                         !
 ! D46   D(16,8,10,11)        -179.6005                                         !
 ! D47   D(16,8,10,18)           0.237                                          !
 ! D48   D(7,9,11,10)            0.0496                                         !
 ! D49   D(7,9,11,19)         -179.8652                                         !
 ! D50   D(17,9,11,10)        -179.9568                                         !
 ! D51   D(17,9,11,19)           0.1284                                         !
 ! D52   D(8,10,11,9)           -0.0337                                         !
 ! D53   D(8,10,11,19)         179.8812                                         !
 ! D54   D(18,10,11,9)        -179.8707                                         !
 ! D55   D(18,10,11,19)          0.0441                                         !
 ! D56   D(3,22,23,24)         -82.9729                                         !
 ! D57   D(3,22,23,26)         155.8113                                         !
 ! D58   D(3,22,23,29)          34.6804                                         !
 ! D59   D(28,22,23,24)        113.0724                                         !
 ! D60   D(28,22,23,26)         -8.1433                                         !
 ! D61   D(28,22,23,29)       -129.2742                                         !
 ! D62   D(3,22,28,27)        -178.7007                                         !
 ! D63   D(3,22,28,34)         -59.8419                                         !
 ! D64   D(3,22,28,35)          60.0367                                         !
 ! D65   D(23,22,28,27)        -16.1118                                         !
 ! D66   D(23,22,28,34)        102.747                                          !
 ! D67   D(23,22,28,35)       -137.3745                                         !
 ! D68   D(22,23,24,25)       -179.0343                                         !
 ! D69   D(22,23,24,36)          1.2494                                         !
 ! D70   D(26,23,24,25)        -62.2538                                         !
 ! D71   D(26,23,24,36)        118.03                                           !
 ! D72   D(29,23,24,25)         60.1997                                         !
 ! D73   D(29,23,24,36)       -119.5165                                         !
 ! D74   D(22,23,26,27)         29.0193                                         !
 ! D75   D(22,23,26,30)        152.5737                                         !
 ! D76   D(22,23,26,31)        -87.9294                                         !
 ! D77   D(24,23,26,27)        -93.3584                                         !
 ! D78   D(24,23,26,30)         30.196                                          !
 ! D79   D(24,23,26,31)        149.6928                                         !
 ! D80   D(29,23,26,27)        148.6676                                         !
 ! D81   D(29,23,26,30)        -87.778                                          !
 ! D82   D(29,23,26,31)         31.7188                                         !
 ! D83   D(23,24,36,37)       -172.8651                                         !
 ! D84   D(23,24,36,47)          4.1524                                         !
 ! D85   D(25,24,36,37)          7.4244                                         !
 ! D86   D(25,24,36,47)       -175.5581                                         !
 ! D87   D(23,26,27,28)        -38.9645                                         !
 ! D88   D(23,26,27,32)         78.2768                                         !
 ! D89   D(23,26,27,33)       -160.6488                                         !
 ! D90   D(30,26,27,28)       -160.9262                                         !
 ! D91   D(30,26,27,32)        -43.6849                                         !
 ! D92   D(30,26,27,33)         77.3895                                         !
 ! D93   D(31,26,27,28)         76.944                                          !
 ! D94   D(31,26,27,32)       -165.8147                                         !
 ! D95   D(31,26,27,33)        -44.7403                                         !
 ! D96   D(26,27,28,22)         33.6991                                         !
 ! D97   D(26,27,28,34)        -84.6316                                         !
 ! D98   D(26,27,28,35)        153.7187                                         !
 ! D99   D(32,27,28,22)        -83.7944                                         !
 ! D100  D(32,27,28,34)        157.875                                          !
 ! D101  D(32,27,28,35)         36.2252                                         !
 ! D102  D(33,27,28,22)        156.0407                                         !
 ! D103  D(33,27,28,34)         37.71                                           !
 ! D104  D(33,27,28,35)        -83.9397                                         !
 ! D105  D(24,36,37,38)        -72.3795                                         !
 ! D106  D(24,36,37,40)        159.6119                                         !
 ! D107  D(24,36,37,48)         41.5411                                         !
 ! D108  D(47,36,37,38)        110.6358                                         !
 ! D109  D(47,36,37,40)        -17.3729                                         !
 ! D110  D(47,36,37,48)       -135.4437                                         !
 ! D111  D(36,37,38,39)       -127.6524                                         !
 ! D112  D(36,37,38,45)         56.9625                                         !
 ! D113  D(40,37,38,39)         -3.2551                                         !
 ! D114  D(40,37,38,45)       -178.6402                                         !
 ! D115  D(48,37,38,39)        117.2872                                         !
 ! D116  D(48,37,38,45)        -58.0979                                         !
 ! D117  D(36,37,40,41)        170.3661                                         !
 ! D118  D(36,37,40,49)         48.7662                                         !
 ! D119  D(36,37,40,50)        -65.5576                                         !
 ! D120  D(38,37,40,41)         43.4779                                         !
 ! D121  D(38,37,40,49)        -78.122                                          !
 ! D122  D(38,37,40,50)        167.5542                                         !
 ! D123  D(48,37,40,41)        -73.9466                                         !
 ! D124  D(48,37,40,49)        164.4535                                         !
 ! D125  D(48,37,40,50)         50.1298                                         !
 ! D126  D(37,38,45,46)         -4.4257                                         !
 ! D127  D(39,38,45,46)       -179.894                                          !
 ! D128  D(37,40,41,42)         45.1776                                         !
 ! D129  D(37,40,41,51)        167.7096                                         !
 ! D130  D(37,40,41,52)        -78.2935                                         !
 ! D131  D(49,40,41,42)        167.7522                                         !
 ! D132  D(49,40,41,51)        -69.7158                                         !
 ! D133  D(49,40,41,52)         44.2811                                         !
 ! D134  D(50,40,41,42)        -76.7607                                         !
 ! D135  D(50,40,41,51)         45.7713                                         !
 ! D136  D(50,40,41,52)        159.7683                                         !
 ! D137  D(40,41,42,43)       -148.0009                                         !
 ! D138  D(40,41,42,53)         91.7397                                         !
 ! D139  D(40,41,42,54)        -25.8474                                         !
 ! D140  D(51,41,42,43)         89.8086                                         !
 ! D141  D(51,41,42,53)        -30.4508                                         !
 ! D142  D(51,41,42,54)       -148.0379                                         !
 ! D143  D(52,41,42,43)        -25.6611                                         !
 ! D144  D(52,41,42,53)       -145.9205                                         !
 ! D145  D(52,41,42,54)         96.4924                                         !
 ! D146  D(41,42,43,44)         77.0451                                         !
 ! D147  D(41,42,43,55)       -163.7565                                         !
 ! D148  D(41,42,43,56)        -41.0188                                         !
 ! D149  D(53,42,43,44)       -160.9458                                         !
 ! D150  D(53,42,43,55)        -41.7474                                         !
 ! D151  D(53,42,43,56)         80.9904                                         !
 ! D152  D(54,42,43,44)        -47.3798                                         !
 ! D153  D(54,42,43,55)         71.8186                                         !
 ! D154  D(54,42,43,56)       -165.4437                                         !
 ! D155  D(42,43,44,57)       -156.8896                                         !
 ! D156  D(42,43,44,58)         83.1184                                         !
 ! D157  D(42,43,44,59)        -33.9148                                         !
 ! D158  D(55,43,44,57)         80.0828                                         !
 ! D159  D(55,43,44,58)        -39.9092                                         !
 ! D160  D(55,43,44,59)       -156.9424                                         !
 ! D161  D(56,43,44,57)        -35.883                                          !
 ! D162  D(56,43,44,58)       -155.875                                          !
 ! D163  D(56,43,44,59)         87.0918                                         !
 --------------------------------------------------------------------------------
 Symmetry turned off by external request.
 Stoichiometry    C20H31N4O4(1+)
 Framework group  C1[X(C20H31N4O4)]
 Deg. of freedom   171
 Full point group                 C1      NOp   1
                          Input orientation:                          
 ---------------------------------------------------------------------
 Center     Atomic      Atomic             Coordinates (Angstroms)
 Number     Number       Type             X           Y           Z
 ---------------------------------------------------------------------
      1          7           0      -10.668575   15.713987    9.878551
      2          6           0       -9.990782   16.998498    9.966228
      3          6           0       -8.477179   16.882940    9.721299
      4          8           0       -7.869565   15.838884    9.943463
      5          6           0      -10.182364   17.600129   11.393224
      6          6           0      -11.565884   18.158822   11.627373
      7          6           0      -12.667809   17.311293   11.808322
      8          6           0      -11.772530   19.544241   11.631906
      9          6           0      -13.944651   17.843209   11.988208
     10          6           0      -13.049588   20.078552   11.812114
     11          6           0      -14.140211   19.226661   11.991333
     12          1           0      -10.445383   17.683600    9.243504
     13          1           0       -9.948749   16.799589   12.107487
     14          1           0       -9.445122   18.399708   11.555813
     15          1           0      -12.517548   16.237449   11.783155
     16          1           0      -10.924241   20.214919   11.499039
     17          1           0      -14.790323   17.175098   12.126599
     18          1           0      -13.191063   21.156011   11.815069
     19          1           0      -15.135851   19.637325   12.133913
     20          1           0      -10.045833   15.002190   10.262641
     21          1           0      -10.816122   15.460634    8.903665
     22          7           0       -7.798193   18.031715    9.383370
     23          6           0       -6.362633   17.958102    9.090354
     24          6           0       -5.487902   17.984988   10.343063
     25          8           0       -4.249291   17.947232   10.242132
     26          6           0       -6.105122   19.186261    8.192777
     27          6           0       -7.172538   20.186821    8.662493
     28          6           0       -8.397746   19.295816    8.905548
     29          1           0       -6.120535   17.013792    8.593799
     30          1           0       -5.078229   19.547797    8.275762
     31          1           0       -6.283328   18.904160    7.149943
     32          1           0       -6.862344   20.659986    9.602542
     33          1           0       -7.371978   20.979551    7.937403
     34          1           0       -8.958079   19.128234    7.976790
     35          1           0       -9.087704   19.710673    9.645904
     36          7           0       -6.109219   18.044392   11.540829
     37          6           0       -5.415970   18.227080   12.817527
     38          6           0       -4.632669   16.964775   13.263372
     39          8           0       -4.774195   16.458900   14.379005
     40          6           0       -6.436211   18.748721   13.843568
     41          6           0       -5.975088   18.793095   15.307771
     42          6           0       -4.566419   19.370774   15.564635
     43          6           0       -3.905467   18.703953   16.768593
     44          7           0       -3.393419   17.322322   16.366430
     45          8           0       -3.732942   16.503876   12.428254
     46          1           0       -3.737082   17.022715   11.557415
     47          1           0       -7.120257   18.002649   11.542096
     48          1           0       -4.637781   18.985072   12.641407
     49          1           0       -7.336844   18.123213   13.804738
     50          1           0       -6.740370   19.745864   13.502846
     51          1           0       -6.704832   19.380385   15.876073
     52          1           0       -6.034370   17.776746   15.702786
     53          1           0       -4.613770   20.447525   15.758329
     54          1           0       -3.902557   19.263523   14.696984
     55          1           0       -3.048768   19.261164   17.153664
     56          1           0       -4.615304   18.553238   17.585474
     57          1           0       -3.291587   16.692937   17.169094
     58          1           0       -2.474422   17.390143   15.916216
     59          1           0       -4.021787   16.868789   15.649930
 ---------------------------------------------------------------------
 Rotational constants (GHZ):           0.2163048           0.0975874           0.0795077
 Standard basis: 6-31G(d) (6D, 7F)
   482 basis functions,   908 primitive gaussians,   482 cartesian basis functions
   105 alpha electrons      105 beta electrons
       nuclear repulsion energy      2768.8682256741 Hartrees.
 NAtoms=   59 NActive=   59 NUniq=   59 SFac= 1.00D+00 NAtFMM=   60 NAOKFM=F Big=F
 Integral buffers will be    131072 words long.
 Raffenetti 2 integral format.
 Two-electron integral symmetry is turned off.
 Nuclear repulsion after empirical dispersion term =     2768.7970673463 Hartrees.
 One-electron integrals computed using PRISM.
 NBasis=   482 RedAO= T EigKep=  4.66D-04  NBF=   482
 NBsUse=   482 1.00D-06 EigRej= -1.00D+00 NBFU=   482
 Initial guess from the checkpoint file:  "conf-883.chk"
 B after Tr=     0.000000    0.000000    0.000000
         Rot=    1.000000    0.000000    0.000000    0.000000 Ang=   0.00 deg.
 Requested convergence on RMS density matrix=1.00D-08 within 128 cycles.
 Requested convergence on MAX density matrix=1.00D-06.
 Requested convergence on             energy=1.00D-06.
 No special actions if energy rises.
 SCF Done:  E(RB3LYP) =  -1300.59580455     A.U. after    1 cycles
            NFock=  1  Conv=0.56D-08     -V/T= 2.0095

 **********************************************************************

            Population analysis using the SCF Density.

 **********************************************************************

 Alpha  occ. eigenvalues --  -19.31411 -19.27869 -19.24569 -19.20798 -14.59672
 Alpha  occ. eigenvalues --  -14.49164 -14.46134 -14.38803 -10.46261 -10.41084
 Alpha  occ. eigenvalues --  -10.40270 -10.37873 -10.37221 -10.34346 -10.33468
 Alpha  occ. eigenvalues --  -10.32572 -10.32219 -10.32106 -10.30673 -10.28965
 Alpha  occ. eigenvalues --  -10.28944 -10.27633 -10.26000 -10.25298 -10.24941
 Alpha  occ. eigenvalues --  -10.24670 -10.24596 -10.24383  -1.23509  -1.16477
 Alpha  occ. eigenvalues --   -1.15383  -1.13912  -1.12885  -1.05847  -1.03866
 Alpha  occ. eigenvalues --   -0.96646  -0.95363  -0.91426  -0.91034  -0.89296
 Alpha  occ. eigenvalues --   -0.86298  -0.84761  -0.84015  -0.80199  -0.79397
 Alpha  occ. eigenvalues --   -0.78946  -0.76287  -0.74874  -0.74354  -0.72824
 Alpha  occ. eigenvalues --   -0.72005  -0.71746  -0.70729  -0.68908  -0.66941
 Alpha  occ. eigenvalues --   -0.66464  -0.65805  -0.64865  -0.64385  -0.63542
 Alpha  occ. eigenvalues --   -0.61671  -0.60656  -0.59848  -0.59430  -0.57704
 Alpha  occ. eigenvalues --   -0.57049  -0.56911  -0.56366  -0.56067  -0.55616
 Alpha  occ. eigenvalues --   -0.54618  -0.53830  -0.53464  -0.52778  -0.52378
 Alpha  occ. eigenvalues --   -0.52084  -0.51603  -0.50967  -0.50582  -0.49994
 Alpha  occ. eigenvalues --   -0.49700  -0.48669  -0.48585  -0.48036  -0.47706
 Alpha  occ. eigenvalues --   -0.47471  -0.47086  -0.46060  -0.45420  -0.44960
 Alpha  occ. eigenvalues --   -0.44924  -0.44497  -0.43919  -0.43678  -0.41984
 Alpha  occ. eigenvalues --   -0.41271  -0.40295  -0.39888  -0.39028  -0.38085
 Alpha  occ. eigenvalues --   -0.34790  -0.34077  -0.31789  -0.30642  -0.30116
 Alpha virt. eigenvalues --   -0.14321  -0.11401  -0.10431  -0.07942  -0.06500
 Alpha virt. eigenvalues --   -0.06106  -0.05903  -0.04908  -0.04149  -0.02923
 Alpha virt. eigenvalues --   -0.02232  -0.01406  -0.00055   0.00774   0.01144
 Alpha virt. eigenvalues --    0.01395   0.01824   0.02368   0.03333   0.03515
 Alpha virt. eigenvalues --    0.03931   0.04261   0.04540   0.05592   0.05731
 Alpha virt. eigenvalues --    0.06019   0.06562   0.06936   0.07793   0.08059
 Alpha virt. eigenvalues --    0.08497   0.08952   0.09396   0.09718   0.09946
 Alpha virt. eigenvalues --    0.10283   0.10685   0.11032   0.11268   0.12017
 Alpha virt. eigenvalues --    0.12348   0.13291   0.13367   0.14014   0.14394
 Alpha virt. eigenvalues --    0.14731   0.15697   0.16311   0.17061   0.17698
 Alpha virt. eigenvalues --    0.19382   0.19910   0.21210   0.21553   0.23145
 Alpha virt. eigenvalues --    0.24517   0.24903   0.25316   0.26566   0.27589
 Alpha virt. eigenvalues --    0.28968   0.29922   0.31634   0.32648   0.35361
 Alpha virt. eigenvalues --    0.36332   0.37650   0.38393   0.39487   0.40440
 Alpha virt. eigenvalues --    0.40762   0.41497   0.42044   0.43478   0.44272
 Alpha virt. eigenvalues --    0.44584   0.45105   0.45667   0.46145   0.46588
 Alpha virt. eigenvalues --    0.47310   0.47712   0.48260   0.48364   0.48545
 Alpha virt. eigenvalues --    0.49744   0.50435   0.50880   0.50993   0.51800
 Alpha virt. eigenvalues --    0.52581   0.52737   0.53214   0.53727   0.54019
 Alpha virt. eigenvalues --    0.54263   0.54426   0.54668   0.55046   0.55705
 Alpha virt. eigenvalues --    0.56387   0.56815   0.56960   0.57721   0.58002
 Alpha virt. eigenvalues --    0.58907   0.60084   0.60216   0.60548   0.61277
 Alpha virt. eigenvalues --    0.62325   0.63550   0.64259   0.65393   0.65769
 Alpha virt. eigenvalues --    0.66677   0.67107   0.67803   0.68803   0.69287
 Alpha virt. eigenvalues --    0.69988   0.71013   0.71830   0.72007   0.72853
 Alpha virt. eigenvalues --    0.73214   0.73685   0.73823   0.74748   0.75104
 Alpha virt. eigenvalues --    0.76286   0.76482   0.76834   0.77231   0.77316
 Alpha virt. eigenvalues --    0.77865   0.78078   0.78433   0.78739   0.79203
 Alpha virt. eigenvalues --    0.79303   0.79707   0.80266   0.80724   0.81818
 Alpha virt. eigenvalues --    0.83058   0.83233   0.83756   0.83965   0.84469
 Alpha virt. eigenvalues --    0.85128   0.86033   0.86364   0.86639   0.88408
 Alpha virt. eigenvalues --    0.88586   0.89262   0.89393   0.89514   0.90636
 Alpha virt. eigenvalues --    0.90783   0.91218   0.92885   0.93539   0.94764
 Alpha virt. eigenvalues --    0.95743   0.95997   0.97344   0.97523   0.99046
 Alpha virt. eigenvalues --    1.00718   1.00882   1.02581   1.03980   1.05256
 Alpha virt. eigenvalues --    1.06092   1.07385   1.08250   1.09424   1.10181
 Alpha virt. eigenvalues --    1.11666   1.12283   1.12757   1.13742   1.15201
 Alpha virt. eigenvalues --    1.18218   1.18749   1.19118   1.20963   1.22607
 Alpha virt. eigenvalues --    1.23199   1.24497   1.24887   1.26629   1.28359
 Alpha virt. eigenvalues --    1.30347   1.31376   1.33329   1.33892   1.34581
 Alpha virt. eigenvalues --    1.36343   1.36920   1.37133   1.38756   1.39518
 Alpha virt. eigenvalues --    1.40191   1.42285   1.43330   1.43701   1.43894
 Alpha virt. eigenvalues --    1.45643   1.45937   1.47215   1.47786   1.49806
 Alpha virt. eigenvalues --    1.51248   1.53057   1.53736   1.54756   1.55828
 Alpha virt. eigenvalues --    1.58153   1.60190   1.60256   1.61703   1.62856
 Alpha virt. eigenvalues --    1.63166   1.63945   1.65274   1.66153   1.67077
 Alpha virt. eigenvalues --    1.67874   1.69008   1.69610   1.70413   1.71194
 Alpha virt. eigenvalues --    1.72218   1.73051   1.73397   1.74006   1.75127
 Alpha virt. eigenvalues --    1.75579   1.75882   1.76259   1.77581   1.78460
 Alpha virt. eigenvalues --    1.79093   1.79939   1.80940   1.81892   1.82511
 Alpha virt. eigenvalues --    1.83011   1.84107   1.84557   1.85249   1.85507
 Alpha virt. eigenvalues --    1.86099   1.87076   1.87360   1.88778   1.88929
 Alpha virt. eigenvalues --    1.90853   1.91796   1.92289   1.92350   1.92963
 Alpha virt. eigenvalues --    1.94005   1.95900   1.97499   1.98038   1.98540
 Alpha virt. eigenvalues --    1.98891   1.99321   2.00493   2.01088   2.04134
 Alpha virt. eigenvalues --    2.05240   2.05825   2.06873   2.07221   2.08395
 Alpha virt. eigenvalues --    2.08976   2.09316   2.10013   2.11246   2.11380
 Alpha virt. eigenvalues --    2.14643   2.16323   2.18658   2.20101   2.21408
 Alpha virt. eigenvalues --    2.21713   2.22325   2.23491   2.23927   2.24990
 Alpha virt. eigenvalues --    2.25688   2.26509   2.27111   2.28672   2.29330
 Alpha virt. eigenvalues --    2.31001   2.31992   2.32646   2.33770   2.34691
 Alpha virt. eigenvalues --    2.36222   2.36656   2.38320   2.39304   2.41765
 Alpha virt. eigenvalues --    2.42751   2.43827   2.45631   2.46898   2.47519
 Alpha virt. eigenvalues --    2.48165   2.50354   2.51695   2.51973   2.52470
 Alpha virt. eigenvalues --    2.53194   2.54764   2.56746   2.57102   2.58807
 Alpha virt. eigenvalues --    2.59975   2.60822   2.62058   2.64347   2.66699
 Alpha virt. eigenvalues --    2.67454   2.68491   2.69306   2.70747   2.71586
 Alpha virt. eigenvalues --    2.74543   2.77014   2.79288   2.84826   2.86920
 Alpha virt. eigenvalues --    2.89173   2.89906   2.92928   2.95904   2.96262
 Alpha virt. eigenvalues --    3.00059   3.07096   3.10556   3.35145   3.66167
 Alpha virt. eigenvalues --    3.77102   3.83541   3.88057   3.97025   4.02903
 Alpha virt. eigenvalues --    4.03168   4.05685   4.06637   4.07571   4.10829
 Alpha virt. eigenvalues --    4.11741   4.14197   4.19317   4.21193   4.24838
 Alpha virt. eigenvalues --    4.26971   4.27505   4.28400   4.34546   4.36775
 Alpha virt. eigenvalues --    4.39107   4.41333   4.49225   4.52658   4.56812
 Alpha virt. eigenvalues --    4.64783   4.66511
          Condensed to atoms (all electrons):
 Mulliken charges:
               1
     1  N   -0.694944
     2  C   -0.066070
     3  C    0.545049
     4  O   -0.516364
     5  C   -0.361026
     6  C    0.164792
     7  C   -0.156887
     8  C   -0.192289
     9  C   -0.132883
    10  C   -0.128319
    11  C   -0.127331
    12  H    0.159860
    13  H    0.158104
    14  H    0.115808
    15  H    0.153411
    16  H    0.104639
    17  H    0.142652
    18  H    0.135503
    19  H    0.142027
    20  H    0.319775
    21  H    0.313714
    22  N   -0.488566
    23  C   -0.025985
    24  C    0.635415
    25  O   -0.567695
    26  C   -0.308269
    27  C   -0.303557
    28  C   -0.135449
    29  H    0.215511
    30  H    0.189941
    31  H    0.176456
    32  H    0.148911
    33  H    0.179977
    34  H    0.176604
    35  H    0.173847
    36  N   -0.615057
    37  C   -0.071163
    38  C    0.640663
    39  O   -0.530580
    40  C   -0.308682
    41  C   -0.288770
    42  C   -0.298714
    43  C   -0.192699
    44  N   -0.770822
    45  O   -0.546321
    46  H    0.469422
    47  H    0.383067
    48  H    0.195826
    49  H    0.180380
    50  H    0.175248
    51  H    0.176507
    52  H    0.172979
    53  H    0.201609
    54  H    0.153625
    55  H    0.214539
    56  H    0.221128
    57  H    0.412955
    58  H    0.409073
    59  H    0.469424
 Sum of Mulliken charges =   1.00000
 Mulliken charges with hydrogens summed into heavy atoms:
               1
     1  N   -0.061455
     2  C    0.093790
     3  C    0.545049
     4  O   -0.516364
     5  C   -0.087113
     6  C    0.164792
     7  C   -0.003476
     8  C   -0.087650
     9  C    0.009769
    10  C    0.007183
    11  C    0.014696
    22  N   -0.488566
    23  C    0.189525
    24  C    0.635415
    25  O   -0.567695
    26  C    0.058127
    27  C    0.025331
    28  C    0.215003
    36  N   -0.231990
    37  C    0.124663
    38  C    0.640663
    39  O   -0.530580
    40  C    0.046946
    41  C    0.060716
    42  C    0.056520
    43  C    0.242968
    44  N    0.520630
    45  O   -0.076899
 Electronic spatial extent (au):  <R**2>=         406206.9555
 Charge=              1.0000 electrons
 Dipole moment (field-independent basis, Debye):
    X=            -24.5061    Y=             90.5681    Z=             69.0844  Tot=            116.5152
 Quadrupole moment (field-independent basis, Debye-Ang):
   XX=             -3.7110   YY=           1545.3468   ZZ=            894.0613
   XY=           -471.2477   XZ=           -312.1097   YZ=           1286.3179
 Traceless Quadrupole moment (field-independent basis, Debye-Ang):
   XX=           -815.6100   YY=            733.4477   ZZ=             82.1623
   XY=           -471.2477   XZ=           -312.1097   YZ=           1286.3179
 Octapole moment (field-independent basis, Debye-Ang**2):
  XXX=           2499.7633  YYY=          23418.2293  ZZZ=          11014.3656  XYY=          -7799.2848
  XXY=            143.2480  XXZ=           -101.3099  XZZ=          -3077.9989  YZZ=          16508.9930
  YYZ=          22059.3744  XYZ=          -5953.3170
 Hexadecapole moment (field-independent basis, Debye-Ang**3):
 XXXX=         -56341.2749 YYYY=         288883.5596 ZZZZ=         130415.0517 XXXY=          43655.6089
 XXXZ=          29332.3697 YYYX=        -105710.8945 YYYZ=         343659.2245 ZZZX=         -20965.6680
 ZZZY=         201667.9006 XXYY=          -5016.5220 XXZZ=         -12653.2576 YYZZ=         281671.4629
 XXYZ=            575.4464 YYXZ=         -99156.4699 ZZXY=         -58958.9323
 N-N= 2.768797067346D+03 E-N=-8.541158916494D+03  KE= 1.288397213156D+03
 Unable to Open any file for archive entry.
 1\1\GINC-SKL-145\SP\RB3LYP\6-31G(d)\C20H31N4O4(1+)\KENGMITH\25-May-202
 2\0\\# B3LYP/6-31G* empiricaldispersion=gd3 guess=read geom=check nosy
 mm integral(ultrafinegrid)\\Candidate Structure: Conf:883 Charge calc 
 in gas phase\\1,1\N,0,-10.6685748137,15.713986962,9.8785506131\C,0,-9.
 990781667,16.9984982826,9.9662284903\C,0,-8.4771785473,16.8829402949,9
 .7212993897\O,0,-7.8695647577,15.8388843159,9.9434625347\C,0,-10.18236
 35274,17.6001294498,11.3932242722\C,0,-11.565884165,18.1588218001,11.6
 273732191\C,0,-12.6678087605,17.3112932359,11.8083220841\C,0,-11.77252
 99292,19.5442414739,11.6319058543\C,0,-13.9446509502,17.8432091693,11.
 9882080949\C,0,-13.0495883753,20.0785515784,11.8121136312\C,0,-14.1402
 108763,19.2266612952,11.9913326142\H,0,-10.445383096,17.6836000975,9.2
 435035152\H,0,-9.9487486085,16.79958888,12.1074873113\H,0,-9.445121629
 5,18.3997082963,11.5558130636\H,0,-12.5175478749,16.2374489039,11.7831
 546251\H,0,-10.9242407967,20.2149186089,11.4990389238\H,0,-14.79032324
 77,17.1750980259,12.1265993806\H,0,-13.1910625322,21.1560112804,11.815
 0694961\H,0,-15.1358514025,19.6373248953,12.1339133779\H,0,-10.0458330
 399,15.0021899664,10.2626405152\H,0,-10.8161215515,15.4606338623,8.903
 664807\N,0,-7.798192985,18.0317147726,9.3833701392\C,0,-6.3626330348,1
 7.9581017274,9.090353797\C,0,-5.487901913,17.9849875581,10.3430630306\
 O,0,-4.2492912483,17.9472324856,10.2421320546\C,0,-6.105122224,19.1862
 607515,8.1927773649\C,0,-7.1725377692,20.1868210866,8.6624927737\C,0,-
 8.3977464604,19.2958159155,8.9055477571\H,0,-6.1205354123,17.013792224
 1,8.5937985573\H,0,-5.0782294281,19.5477968969,8.2757615996\H,0,-6.283
 3283743,18.9041599755,7.1499425266\H,0,-6.8623438003,20.6599858836,9.6
 025415551\H,0,-7.3719783372,20.9795514887,7.9374027466\H,0,-8.95807881
 65,19.1282339724,7.9767900493\H,0,-9.0877042356,19.7106727002,9.645903
 6621\N,0,-6.1092191474,18.0443917107,11.5408294171\C,0,-5.4159696788,1
 8.2270797541,12.8175272069\C,0,-4.63266867,16.964774506,13.2633720921\
 O,0,-4.774194635,16.458900482,14.3790046021\C,0,-6.4362109229,18.74872
 05579,13.8435681563\C,0,-5.9750876124,18.7930948288,15.3077713495\C,0,
 -4.566419028,19.3707742541,15.5646351852\C,0,-3.905466852,18.703952914
 2,16.7685927473\N,0,-3.3934190166,17.322321575,16.3664300952\O,0,-3.73
 29419956,16.503876249,12.4282536308\H,0,-3.7370818405,17.0227145667,11
 .557414588\H,0,-7.1202567626,18.0026489037,11.542096187\H,0,-4.6377806
 892,18.985071666,12.6414065615\H,0,-7.3368444445,18.1232133897,13.8047
 379808\H,0,-6.74037022,19.7458637948,13.5028460137\H,0,-6.7048316906,1
 9.3803851746,15.8760725276\H,0,-6.0343697342,17.7767460113,15.70278620
 68\H,0,-4.6137704977,20.447525215,15.7583288333\H,0,-3.9025573696,19.2
 635230466,14.6969841465\H,0,-3.0487678064,19.261164262,17.1536637312\H
 ,0,-4.6153044743,18.5532376368,17.5854743307\H,0,-3.2915871888,16.6929
 365962,17.1690943018\H,0,-2.4744223096,17.3901427029,15.9162155085\H,0
 ,-4.0217867653,16.8687885983,15.6499299826\\Version=ES64L-G16RevC.01\H
 F=-1300.5958045\RMSD=5.578e-09\Dipole=4.8457726,1.5688741,4.84805\Quad
 rupole=-606.3860448,545.3004244,61.0856204,-350.3611509,-232.0459168,9
 56.3458038\PG=C01 [X(C20H31N4O4)]\\@
 The archive entry for this job was punched.


 THERE IS NO CURE FOR BIRTH AND DEATH SAVE TO ENJOY THE INTERVAL.

                               -- GEORGE SANTAYANA
 Job cpu time:       0 days  0 hours  0 minutes 55.2 seconds.
 Elapsed time:       0 days  0 hours  0 minutes 14.2 seconds.
 File lengths (MBytes):  RWF=    240 Int=      0 D2E=      0 Chk=     32 Scr=     16
 Normal termination of Gaussian 16 at Wed May 25 08:34:59 2022.
