 Entering Gaussian System, Link 0=/opt/software/Gaussian/g16-AVX2-C.01/g16/g16
 Input=charge-conf-123.com
 Output=charge-conf-123.log
 Initial command:
 /opt/software/Gaussian/g16-AVX2-C.01/g16/l1.exe "/mnt/gs18/scratch/users/kengmith/Gau-9239.inp" -scrdir="/mnt/gs18/scratch/users/kengmith/"
 Entering Link 1 = /opt/software/Gaussian/g16-AVX2-C.01/g16/l1.exe PID=      9249.
  
 Copyright (c) 1988-2019, Gaussian, Inc.  All Rights Reserved.
  
 This is part of the Gaussian(R) 16 program.  It is based on
 the Gaussian(R) 09 system (copyright 2009, Gaussian, Inc.),
 the Gaussian(R) 03 system (copyright 2003, Gaussian, Inc.),
 the Gaussian(R) 98 system (copyright 1998, Gaussian, Inc.),
 the Gaussian(R) 94 system (copyright 1995, Gaussian, Inc.),
 the Gaussian 92(TM) system (copyright 1992, Gaussian, Inc.),
 the Gaussian 90(TM) system (copyright 1990, Gaussian, Inc.),
 the Gaussian 88(TM) system (copyright 1988, Gaussian, Inc.),
 the Gaussian 86(TM) system (copyright 1986, Carnegie Mellon
 University), and the Gaussian 82(TM) system (copyright 1983,
 Carnegie Mellon University). Gaussian is a federally registered
 trademark of Gaussian, Inc.
  
 This software contains proprietary and confidential information,
 including trade secrets, belonging to Gaussian, Inc.
  
 This software is provided under written license and may be
 used, copied, transmitted, or stored only in accord with that
 written license.
  
 The following legend is applicable only to US Government
 contracts under FAR:
  
                    RESTRICTED RIGHTS LEGEND
  
 Use, reproduction and disclosure by the US Government is
 subject to restrictions as set forth in subparagraphs (a)
 and (c) of the Commercial Computer Software - Restricted
 Rights clause in FAR 52.227-19.
  
 Gaussian, Inc.
 340 Quinnipiac St., Bldg. 40, Wallingford CT 06492
  
  
 ---------------------------------------------------------------
 Warning -- This program may not be used in any manner that
 competes with the business of Gaussian, Inc. or will provide
 assistance to any competitor of Gaussian, Inc.  The licensee
 of this program is prohibited from giving any competitor of
 Gaussian, Inc. access to this program.  By using this program,
 the user acknowledges that Gaussian, Inc. is engaged in the
 business of creating and licensing software in the field of
 computational chemistry and represents and warrants to the
 licensee that it is not a competitor of Gaussian, Inc. and that
 it will not use this program in any manner prohibited above.
 ---------------------------------------------------------------
  

 Cite this work as:
 Gaussian 16, Revision C.01,
 M. J. Frisch, G. W. Trucks, H. B. Schlegel, G. E. Scuseria, 
 M. A. Robb, J. R. Cheeseman, G. Scalmani, V. Barone, 
 G. A. Petersson, H. Nakatsuji, X. Li, M. Caricato, A. V. Marenich, 
 J. Bloino, B. G. Janesko, R. Gomperts, B. Mennucci, H. P. Hratchian, 
 J. V. Ortiz, A. F. Izmaylov, J. L. Sonnenberg, D. Williams-Young, 
 F. Ding, F. Lipparini, F. Egidi, J. Goings, B. Peng, A. Petrone, 
 T. Henderson, D. Ranasinghe, V. G. Zakrzewski, J. Gao, N. Rega, 
 G. Zheng, W. Liang, M. Hada, M. Ehara, K. Toyota, R. Fukuda, 
 J. Hasegawa, M. Ishida, T. Nakajima, Y. Honda, O. Kitao, H. Nakai, 
 T. Vreven, K. Throssell, J. A. Montgomery, Jr., J. E. Peralta, 
 F. Ogliaro, M. J. Bearpark, J. J. Heyd, E. N. Brothers, K. N. Kudin, 
 V. N. Staroverov, T. A. Keith, R. Kobayashi, J. Normand, 
 K. Raghavachari, A. P. Rendell, J. C. Burant, S. S. Iyengar, 
 J. Tomasi, M. Cossi, J. M. Millam, M. Klene, C. Adamo, R. Cammi, 
 J. W. Ochterski, R. L. Martin, K. Morokuma, O. Farkas, 
 J. B. Foresman, and D. J. Fox, Gaussian, Inc., Wallingford CT, 2019.
 
 ******************************************
 Gaussian 16:  ES64L-G16RevC.01  3-Jul-2019
                25-May-2022 
 ******************************************
 %mem=8gb
 %nproc=4
 Will use up to    4 processors via shared memory.
 %chk=conf-123.chk
 ----------------------------------------------------------------------
 # B3LYP/6-31G* empiricaldispersion=gd3 guess=read geom=check nosymm in
 tegral(ultrafinegrid)
 ----------------------------------------------------------------------
 1/29=2,38=1,172=1/1;
 2/12=2,15=1,40=1/2;
 3/5=1,6=6,7=1,11=2,14=-4,25=1,30=1,74=-5,75=-5,116=-2,124=31/1,2,3;
 4/5=1/1;
 5/5=2,38=6/2;
 6/7=2,8=2,9=2,10=2,28=1/1;
 99/5=1,9=1/99;
 ------------------------------------------------------
 Candidate Structure: Conf:123 Charge calc in gas phase
 ------------------------------------------------------
 Structure from the checkpoint file:  "conf-123.chk"
 Charge =  1 Multiplicity = 1
 Redundant internal coordinates found in file.  (old form).
 N,0,-7.8620481242,19.7389711617,13.497599836
 C,0,-7.1242326885,20.1972646687,12.2642343578
 C,0,-8.0695637447,19.7533494095,11.1160435932
 O,0,-9.2594439872,19.5824233581,11.399636249
 C,0,-5.6928928736,19.6154546998,12.2924194655
 C,0,-5.0483352888,19.761723679,13.656875982
 C,0,-5.0689381794,18.693403687,14.5661092134
 C,0,-4.4764399587,20.9802725243,14.0483980337
 C,0,-4.5191893148,18.8424903502,15.841291911
 C,0,-3.9275456437,21.1282698057,15.322881737
 C,0,-3.9482397904,20.0587449982,16.2215747612
 H,0,-7.0883214257,21.2920963863,12.3025996374
 H,0,-5.7414964987,18.5614241856,12.00851358
 H,0,-5.0958802294,20.1438480736,11.546712542
 H,0,-5.5189742292,17.7486348971,14.2697389197
 H,0,-4.4457906648,21.8123962484,13.3474854411
 H,0,-4.5325431468,18.0063206253,16.5344819272
 H,0,-3.4777968659,22.0739804937,15.6110349477
 H,0,-3.5167702669,20.1722557915,17.2116855163
 H,0,-8.8519694314,19.99408278,13.3983697381
 H,0,-7.4420797346,20.1126987025,14.3514102447
 N,0,-7.5917797129,19.486253446,9.8805278724
 C,0,-8.5232931331,18.8647969176,8.9046626514
 C,0,-9.131741328,17.562529722,9.4493250375
 O,0,-10.2956516627,17.2660993856,9.2254177768
 C,0,-7.6454608698,18.6899475143,7.6523416426
 C,0,-6.662379812,19.8658272921,7.7479398006
 C,0,-6.3254413531,19.9134555767,9.2449285039
 H,0,-9.3695499192,19.5319679805,8.7201509522
 H,0,-7.1069293854,17.7361937544,7.702363842
 H,0,-8.244302672,18.6923325261,6.7394143762
 H,0,-5.7693325974,19.7349367678,7.1315950123
 H,0,-7.153482142,20.7971606429,7.4449788652
 H,0,-6.0357639285,20.9113296082,9.5850576276
 H,0,-5.5179592044,19.2125280114,9.4852358198
 N,0,-8.268269629,16.7641862458,10.1669175553
 C,0,-8.8360630039,15.8930081085,11.1877733076
 C,0,-8.722840399,16.5861518919,12.5629252705
 O,0,-7.6641009625,17.2323259397,12.7869772359
 C,0,-8.2081978312,14.49300489,11.2289436602
 C,0,-8.9703254735,13.5242663844,12.1513989965
 C,0,-10.4184630467,13.1986998077,11.6888321604
 C,0,-11.5483973524,13.7091033785,12.5881705421
 N,0,-11.7157599102,15.2042079486,12.5408004043
 O,0,-9.6765857303,16.4602098608,13.3904264341
 H,0,-7.8274079274,18.6626585998,13.494409568
 H,0,-7.4001271764,17.1989397956,10.4572358522
 H,0,-9.8846606504,15.8014771606,10.9091142306
 H,0,-7.1661150736,14.5749510616,11.5611794241
 H,0,-8.1910828496,14.1005292773,10.2051059003
 H,0,-8.400263769,12.5914109679,12.2040031583
 H,0,-8.9839769245,13.9243182649,13.1728002656
 H,0,-10.5506132061,12.111958313,11.6480545844
 H,0,-10.5880919417,13.5479756661,10.6606044455
 H,0,-12.5023091379,13.2584768909,12.2980647855
 H,0,-11.3555756667,13.4574728561,13.6350875116
 H,0,-11.9233160929,15.5234418879,11.5893159666
 H,0,-10.7742477693,15.7740747707,12.914847978
 H,0,-12.499332798,15.4984695196,13.129625088
 Recover connectivity data from disk.
                           ----------------------------
                           !    Current Parameters    !
                           ! (Angstroms and Degrees)  !
 --------------------------                            --------------------------
 ! Name  Definition              Value                                          !
 --------------------------------------------------------------------------------
 ! R1    R(1,2)                  1.5085                                         !
 ! R2    R(1,20)                 1.0271                                         !
 ! R3    R(1,21)                 1.0223                                         !
 ! R4    R(2,3)                  1.5521                                         !
 ! R5    R(2,5)                  1.5453                                         !
 ! R6    R(2,12)                 1.0961                                         !
 ! R7    R(3,4)                  1.2351                                         !
 ! R8    R(3,22)                 1.3513                                         !
 ! R9    R(5,6)                  1.5161                                         !
 ! R10   R(5,13)                 1.0927                                         !
 ! R11   R(5,14)                 1.0917                                         !
 ! R12   R(6,7)                  1.403                                          !
 ! R13   R(6,8)                  1.4019                                         !
 ! R14   R(7,9)                  1.3966                                         !
 ! R15   R(7,15)                 1.0876                                         !
 ! R16   R(8,10)                 1.3955                                         !
 ! R17   R(8,16)                 1.0884                                         !
 ! R18   R(9,11)                 1.3964                                         !
 ! R19   R(9,17)                 1.0862                                         !
 ! R20   R(10,11)                1.3971                                         !
 ! R21   R(10,18)                1.0861                                         !
 ! R22   R(11,19)                1.086                                          !
 ! R23   R(22,23)                1.4853                                         !
 ! R24   R(22,28)                1.4799                                         !
 ! R25   R(23,24)                1.5371                                         !
 ! R26   R(23,26)                1.5393                                         !
 ! R27   R(23,29)                1.0933                                         !
 ! R28   R(24,25)                1.2218                                         !
 ! R29   R(24,36)                1.3776                                         !
 ! R30   R(26,27)                1.5357                                         !
 ! R31   R(26,30)                1.0964                                         !
 ! R32   R(26,31)                1.0918                                         !
 ! R33   R(27,28)                1.5352                                         !
 ! R34   R(27,32)                1.093                                          !
 ! R35   R(27,33)                1.0956                                         !
 ! R36   R(28,34)                1.0933                                         !
 ! R37   R(28,35)                1.0959                                         !
 ! R38   R(36,37)                1.4572                                         !
 ! R39   R(36,47)                1.0134                                         !
 ! R40   R(37,38)                1.5441                                         !
 ! R41   R(37,40)                1.5349                                         !
 ! R42   R(37,48)                1.0888                                         !
 ! R43   R(38,39)                1.2604                                         !
 ! R44   R(38,45)                1.269                                          !
 ! R45   R(40,41)                1.5396                                         !
 ! R46   R(40,49)                1.0968                                         !
 ! R47   R(40,50)                1.0966                                         !
 ! R48   R(41,42)                1.5547                                         !
 ! R49   R(41,51)                1.0945                                         !
 ! R50   R(41,52)                1.097                                          !
 ! R51   R(42,43)                1.5317                                         !
 ! R52   R(42,53)                1.0955                                         !
 ! R53   R(42,54)                1.0991                                         !
 ! R54   R(43,44)                1.5052                                         !
 ! R55   R(43,55)                1.0942                                         !
 ! R56   R(43,56)                1.0939                                         !
 ! R57   R(44,57)                1.0248                                         !
 ! R58   R(44,58)                1.1624                                         !
 ! R59   R(44,59)                1.0234                                         !
 ! R60   R(45,46)                2.8777                                         !
 ! A1    A(2,1,20)             108.479                                          !
 ! A2    A(2,1,21)             111.7695                                         !
 ! A3    A(20,1,21)            112.6963                                         !
 ! A4    A(1,2,3)              102.7119                                         !
 ! A5    A(1,2,5)              108.8888                                         !
 ! A6    A(1,2,12)             106.9096                                         !
 ! A7    A(3,2,5)              118.0309                                         !
 ! A8    A(3,2,12)             109.3614                                         !
 ! A9    A(5,2,12)             110.1866                                         !
 ! A10   A(2,3,4)              117.1607                                         !
 ! A11   A(2,3,22)             121.1676                                         !
 ! A12   A(4,3,22)             121.5471                                         !
 ! A13   A(2,5,6)              111.9546                                         !
 ! A14   A(2,5,13)             108.4962                                         !
 ! A15   A(2,5,14)             108.171                                          !
 ! A16   A(6,5,13)             110.2313                                         !
 ! A17   A(6,5,14)             109.6071                                         !
 ! A18   A(13,5,14)            108.2854                                         !
 ! A19   A(5,6,7)              120.2338                                         !
 ! A20   A(5,6,8)              120.5739                                         !
 ! A21   A(7,6,8)              119.1354                                         !
 ! A22   A(6,7,9)              120.3079                                         !
 ! A23   A(6,7,15)             119.4006                                         !
 ! A24   A(9,7,15)             120.2913                                         !
 ! A25   A(6,8,10)             120.511                                          !
 ! A26   A(6,8,16)             119.7482                                         !
 ! A27   A(10,8,16)            119.7333                                         !
 ! A28   A(7,9,11)             120.1709                                         !
 ! A29   A(7,9,17)             119.7137                                         !
 ! A30   A(11,9,17)            120.1146                                         !
 ! A31   A(8,10,11)            120.0292                                         !
 ! A32   A(8,10,18)            119.8348                                         !
 ! A33   A(11,10,18)           120.1343                                         !
 ! A34   A(9,11,10)            119.8446                                         !
 ! A35   A(9,11,19)            120.118                                          !
 ! A36   A(10,11,19)           120.0368                                         !
 ! A37   A(3,22,23)            117.4936                                         !
 ! A38   A(3,22,28)            129.6549                                         !
 ! A39   A(23,22,28)           112.0393                                         !
 ! A40   A(22,23,24)           111.71                                           !
 ! A41   A(22,23,26)           102.967                                          !
 ! A42   A(22,23,29)           109.9371                                         !
 ! A43   A(24,23,26)           114.6943                                         !
 ! A44   A(24,23,29)           105.6883                                         !
 ! A45   A(26,23,29)           111.9274                                         !
 ! A46   A(23,24,25)           121.1787                                         !
 ! A47   A(23,24,36)           115.3045                                         !
 ! A48   A(25,24,36)           123.5016                                         !
 ! A49   A(23,26,27)           103.1469                                         !
 ! A50   A(23,26,30)           109.9861                                         !
 ! A51   A(23,26,31)           111.5448                                         !
 ! A52   A(27,26,30)           110.414                                          !
 ! A53   A(27,26,31)           113.672                                          !
 ! A54   A(30,26,31)           108.0258                                         !
 ! A55   A(26,27,28)           103.0006                                         !
 ! A56   A(26,27,32)           113.3452                                         !
 ! A57   A(26,27,33)           110.2879                                         !
 ! A58   A(28,27,32)           111.9797                                         !
 ! A59   A(28,27,33)           109.9776                                         !
 ! A60   A(32,27,33)           108.1873                                         !
 ! A61   A(22,28,27)           102.829                                          !
 ! A62   A(22,28,34)           110.8899                                         !
 ! A63   A(22,28,35)           110.5897                                         !
 ! A64   A(27,28,34)           112.9436                                         !
 ! A65   A(27,28,35)           110.8355                                         !
 ! A66   A(34,28,35)           108.6814                                         !
 ! A67   A(24,36,37)           117.8486                                         !
 ! A68   A(24,36,47)           115.948                                          !
 ! A69   A(37,36,47)           112.9281                                         !
 ! A70   A(36,37,38)           109.0842                                         !
 ! A71   A(36,37,40)           113.8722                                         !
 ! A72   A(36,37,48)           104.2533                                         !
 ! A73   A(38,37,40)           110.8277                                         !
 ! A74   A(38,37,48)           109.6495                                         !
 ! A75   A(40,37,48)           108.9128                                         !
 ! A76   A(37,38,39)           116.7456                                         !
 ! A77   A(37,38,45)           118.7566                                         !
 ! A78   A(39,38,45)           124.4923                                         !
 ! A79   A(37,40,41)           112.7995                                         !
 ! A80   A(37,40,49)           109.1851                                         !
 ! A81   A(37,40,50)           107.9257                                         !
 ! A82   A(41,40,49)           109.6238                                         !
 ! A83   A(41,40,50)           109.9946                                         !
 ! A84   A(49,40,50)           107.1404                                         !
 ! A85   A(40,41,42)           114.4942                                         !
 ! A86   A(40,41,51)           107.8945                                         !
 ! A87   A(40,41,52)           109.5459                                         !
 ! A88   A(42,41,51)           108.721                                          !
 ! A89   A(42,41,52)           109.986                                          !
 ! A90   A(51,41,52)           105.8154                                         !
 ! A91   A(41,42,43)           116.2742                                         !
 ! A92   A(41,42,53)           109.3398                                         !
 ! A93   A(41,42,54)           110.8274                                         !
 ! A94   A(43,42,53)           105.2737                                         !
 ! A95   A(43,42,54)           109.2412                                         !
 ! A96   A(53,42,54)           105.177                                          !
 ! A97   A(42,43,44)           113.2375                                         !
 ! A98   A(42,43,55)           110.5014                                         !
 ! A99   A(42,43,56)           110.8094                                         !
 ! A100  A(44,43,55)           107.6864                                         !
 ! A101  A(44,43,56)           106.1539                                         !
 ! A102  A(55,43,56)           108.2222                                         !
 ! A103  A(43,44,57)           111.1705                                         !
 ! A104  A(43,44,58)           112.7547                                         !
 ! A105  A(43,44,59)           110.6491                                         !
 ! A106  A(57,44,58)           108.0647                                         !
 ! A107  A(57,44,59)           106.8312                                         !
 ! A108  A(58,44,59)           107.1017                                         !
 ! A109  A(38,45,46)            57.6311                                         !
 ! D1    D(20,1,2,3)           -44.7368                                         !
 ! D2    D(20,1,2,5)          -170.6358                                         !
 ! D3    D(20,1,2,12)           70.3374                                         !
 ! D4    D(21,1,2,3)          -169.5932                                         !
 ! D5    D(21,1,2,5)            64.5078                                         !
 ! D6    D(21,1,2,12)          -54.5191                                         !
 ! D7    D(1,2,3,4)             22.5742                                         !
 ! D8    D(1,2,3,22)          -153.4291                                         !
 ! D9    D(5,2,3,4)            142.3143                                         !
 ! D10   D(5,2,3,22)           -33.6889                                         !
 ! D11   D(12,2,3,4)           -90.7113                                         !
 ! D12   D(12,2,3,22)           93.2854                                         !
 ! D13   D(1,2,5,6)            -45.0831                                         !
 ! D14   D(1,2,5,13)            76.7876                                         !
 ! D15   D(1,2,5,14)          -165.954                                          !
 ! D16   D(3,2,5,6)           -161.5477                                         !
 ! D17   D(3,2,5,13)           -39.677                                          !
 ! D18   D(3,2,5,14)            77.5813                                         !
 ! D19   D(12,2,5,6)            71.8748                                         !
 ! D20   D(12,2,5,13)         -166.2544                                         !
 ! D21   D(12,2,5,14)          -48.9961                                         !
 ! D22   D(2,3,22,23)          170.552                                          !
 ! D23   D(2,3,22,28)          -20.689                                          !
 ! D24   D(4,3,22,23)           -5.2749                                         !
 ! D25   D(4,3,22,28)          163.484                                          !
 ! D26   D(2,5,6,7)             96.9272                                         !
 ! D27   D(2,5,6,8)            -80.3049                                         !
 ! D28   D(13,5,6,7)           -23.9434                                         !
 ! D29   D(13,5,6,8)           158.8245                                         !
 ! D30   D(14,5,6,7)          -143.0377                                         !
 ! D31   D(14,5,6,8)            39.7302                                         !
 ! D32   D(5,6,7,9)           -177.6377                                         !
 ! D33   D(5,6,7,15)             2.2238                                         !
 ! D34   D(8,6,7,9)             -0.3659                                         !
 ! D35   D(8,6,7,15)           179.4955                                         !
 ! D36   D(5,6,8,10)           177.6203                                         !
 ! D37   D(5,6,8,16)            -3.3734                                         !
 ! D38   D(7,6,8,10)             0.3581                                         !
 ! D39   D(7,6,8,16)           179.3644                                         !
 ! D40   D(6,7,9,11)             0.1928                                         !
 ! D41   D(6,7,9,17)          -179.4637                                         !
 ! D42   D(15,7,9,11)         -179.6674                                         !
 ! D43   D(15,7,9,17)            0.6761                                         !
 ! D44   D(6,8,10,11)           -0.1762                                         !
 ! D45   D(6,8,10,18)          179.3505                                         !
 ! D46   D(16,8,10,11)        -179.1826                                         !
 ! D47   D(16,8,10,18)           0.3441                                         !
 ! D48   D(7,9,11,10)           -0.0065                                         !
 ! D49   D(7,9,11,19)         -179.7081                                         !
 ! D50   D(17,9,11,10)         179.6486                                         !
 ! D51   D(17,9,11,19)          -0.053                                          !
 ! D52   D(8,10,11,9)           -0.002                                          !
 ! D53   D(8,10,11,19)         179.6998                                         !
 ! D54   D(18,10,11,9)        -179.5273                                         !
 ! D55   D(18,10,11,19)          0.1746                                         !
 ! D56   D(3,22,23,24)         -55.4632                                         !
 ! D57   D(3,22,23,26)        -179.0444                                         !
 ! D58   D(3,22,23,29)          61.5391                                         !
 ! D59   D(28,22,23,24)        133.8549                                         !
 ! D60   D(28,22,23,26)         10.2737                                         !
 ! D61   D(28,22,23,29)       -109.1429                                         !
 ! D62   D(3,22,28,27)        -154.6465                                         !
 ! D63   D(3,22,28,34)         -33.6591                                         !
 ! D64   D(3,22,28,35)          86.9789                                         !
 ! D65   D(23,22,28,27)         14.6017                                         !
 ! D66   D(23,22,28,34)        135.5891                                         !
 ! D67   D(23,22,28,35)       -103.7728                                         !
 ! D68   D(22,23,24,25)        142.1749                                         !
 ! D69   D(22,23,24,36)        -39.1941                                         !
 ! D70   D(26,23,24,25)       -101.1511                                         !
 ! D71   D(26,23,24,36)         77.4799                                         !
 ! D72   D(29,23,24,25)         22.6336                                         !
 ! D73   D(29,23,24,36)       -158.7354                                         !
 ! D74   D(22,23,26,27)        -30.9577                                         !
 ! D75   D(22,23,26,30)         86.8233                                         !
 ! D76   D(22,23,26,31)       -153.3352                                         !
 ! D77   D(24,23,26,27)       -152.537                                          !
 ! D78   D(24,23,26,30)        -34.756                                          !
 ! D79   D(24,23,26,31)         85.0855                                         !
 ! D80   D(29,23,26,27)         87.0695                                         !
 ! D81   D(29,23,26,30)       -155.1495                                         !
 ! D82   D(29,23,26,31)        -35.308                                          !
 ! D83   D(23,24,36,37)        152.5403                                         !
 ! D84   D(23,24,36,47)         14.2015                                         !
 ! D85   D(25,24,36,37)        -28.8643                                         !
 ! D86   D(25,24,36,47)       -167.2031                                         !
 ! D87   D(23,26,27,28)         40.3739                                         !
 ! D88   D(23,26,27,32)        161.5736                                         !
 ! D89   D(23,26,27,33)        -76.9605                                         !
 ! D90   D(30,26,27,28)        -77.1063                                         !
 ! D91   D(30,26,27,32)         44.0934                                         !
 ! D92   D(30,26,27,33)        165.5593                                         !
 ! D93   D(31,26,27,28)        161.3147                                         !
 ! D94   D(31,26,27,32)        -77.4855                                         !
 ! D95   D(31,26,27,33)         43.9804                                         !
 ! D96   D(26,27,28,22)        -33.521                                          !
 ! D97   D(26,27,28,34)       -153.0931                                         !
 ! D98   D(26,27,28,35)         84.6809                                         !
 ! D99   D(32,27,28,22)       -155.6453                                         !
 ! D100  D(32,27,28,34)         84.7826                                         !
 ! D101  D(32,27,28,35)        -37.4434                                         !
 ! D102  D(33,27,28,22)         84.0323                                         !
 ! D103  D(33,27,28,34)        -35.5398                                         !
 ! D104  D(33,27,28,35)       -157.7658                                         !
 ! D105  D(24,36,37,38)        -96.6648                                         !
 ! D106  D(24,36,37,40)        138.9643                                         !
 ! D107  D(24,36,37,48)         20.4008                                         !
 ! D108  D(47,36,37,38)         42.8698                                         !
 ! D109  D(47,36,37,40)        -81.5011                                         !
 ! D110  D(47,36,37,48)        159.9354                                         !
 ! D111  D(36,37,38,39)        -38.9422                                         !
 ! D112  D(36,37,38,45)        141.8735                                         !
 ! D113  D(40,37,38,39)         87.1997                                         !
 ! D114  D(40,37,38,45)        -91.9845                                         !
 ! D115  D(48,37,38,39)       -152.531                                          !
 ! D116  D(48,37,38,45)         28.2847                                         !
 ! D117  D(36,37,40,41)       -170.7297                                         !
 ! D118  D(36,37,40,49)         67.1303                                         !
 ! D119  D(36,37,40,50)        -49.0067                                         !
 ! D120  D(38,37,40,41)         65.8415                                         !
 ! D121  D(38,37,40,49)        -56.2984                                         !
 ! D122  D(38,37,40,50)       -172.4355                                         !
 ! D123  D(48,37,40,41)        -54.8655                                         !
 ! D124  D(48,37,40,49)       -177.0055                                         !
 ! D125  D(48,37,40,50)         66.8575                                         !
 ! D126  D(37,38,45,46)       -156.7694                                         !
 ! D127  D(39,38,45,46)         24.1144                                         !
 ! D128  D(37,40,41,42)         64.6888                                         !
 ! D129  D(37,40,41,51)       -174.1306                                         !
 ! D130  D(37,40,41,52)        -59.3883                                         !
 ! D131  D(49,40,41,42)       -173.4184                                         !
 ! D132  D(49,40,41,51)        -52.2378                                         !
 ! D133  D(49,40,41,52)         62.5045                                         !
 ! D134  D(50,40,41,42)        -55.8575                                         !
 ! D135  D(50,40,41,51)         65.3232                                         !
 ! D136  D(50,40,41,52)       -179.9346                                         !
 ! D137  D(40,41,42,43)       -113.3783                                         !
 ! D138  D(40,41,42,53)        127.6343                                         !
 ! D139  D(40,41,42,54)         12.1431                                         !
 ! D140  D(51,41,42,43)        125.897                                          !
 ! D141  D(51,41,42,53)          6.9096                                         !
 ! D142  D(51,41,42,54)       -108.5816                                         !
 ! D143  D(52,41,42,43)         10.4639                                         !
 ! D144  D(52,41,42,53)       -108.5235                                         !
 ! D145  D(52,41,42,54)        135.9854                                         !
 ! D146  D(41,42,43,44)         70.8915                                         !
 ! D147  D(41,42,43,55)       -168.2089                                         !
 ! D148  D(41,42,43,56)        -48.2584                                         !
 ! D149  D(53,42,43,44)       -167.9331                                         !
 ! D150  D(53,42,43,55)        -47.0336                                         !
 ! D151  D(53,42,43,56)         72.917                                          !
 ! D152  D(54,42,43,44)        -55.4284                                         !
 ! D153  D(54,42,43,55)         65.4711                                         !
 ! D154  D(54,42,43,56)       -174.5783                                         !
 ! D155  D(42,43,44,57)         59.5373                                         !
 ! D156  D(42,43,44,58)        -61.9989                                         !
 ! D157  D(42,43,44,59)        178.0776                                         !
 ! D158  D(55,43,44,57)        -62.9409                                         !
 ! D159  D(55,43,44,58)        175.5229                                         !
 ! D160  D(55,43,44,59)         55.5993                                         !
 ! D161  D(56,43,44,57)       -178.6672                                         !
 ! D162  D(56,43,44,58)         59.7965                                         !
 ! D163  D(56,43,44,59)        -60.127                                          !
 --------------------------------------------------------------------------------
 Symmetry turned off by external request.
 Stoichiometry    C20H31N4O4(1+)
 Framework group  C1[X(C20H31N4O4)]
 Deg. of freedom   171
 Full point group                 C1      NOp   1
                          Input orientation:                          
 ---------------------------------------------------------------------
 Center     Atomic      Atomic             Coordinates (Angstroms)
 Number     Number       Type             X           Y           Z
 ---------------------------------------------------------------------
      1          7           0       -7.862048   19.738971   13.497600
      2          6           0       -7.124233   20.197265   12.264234
      3          6           0       -8.069564   19.753349   11.116044
      4          8           0       -9.259444   19.582423   11.399636
      5          6           0       -5.692893   19.615455   12.292419
      6          6           0       -5.048335   19.761724   13.656876
      7          6           0       -5.068938   18.693404   14.566109
      8          6           0       -4.476440   20.980273   14.048398
      9          6           0       -4.519189   18.842490   15.841292
     10          6           0       -3.927546   21.128270   15.322882
     11          6           0       -3.948240   20.058745   16.221575
     12          1           0       -7.088321   21.292096   12.302600
     13          1           0       -5.741496   18.561424   12.008514
     14          1           0       -5.095880   20.143848   11.546713
     15          1           0       -5.518974   17.748635   14.269739
     16          1           0       -4.445791   21.812396   13.347485
     17          1           0       -4.532543   18.006321   16.534482
     18          1           0       -3.477797   22.073980   15.611035
     19          1           0       -3.516770   20.172256   17.211686
     20          1           0       -8.851969   19.994083   13.398370
     21          1           0       -7.442080   20.112699   14.351410
     22          7           0       -7.591780   19.486253    9.880528
     23          6           0       -8.523293   18.864797    8.904663
     24          6           0       -9.131741   17.562530    9.449325
     25          8           0      -10.295652   17.266099    9.225418
     26          6           0       -7.645461   18.689948    7.652342
     27          6           0       -6.662380   19.865827    7.747940
     28          6           0       -6.325441   19.913456    9.244929
     29          1           0       -9.369550   19.531968    8.720151
     30          1           0       -7.106929   17.736194    7.702364
     31          1           0       -8.244303   18.692333    6.739414
     32          1           0       -5.769333   19.734937    7.131595
     33          1           0       -7.153482   20.797161    7.444979
     34          1           0       -6.035764   20.911330    9.585058
     35          1           0       -5.517959   19.212528    9.485236
     36          7           0       -8.268270   16.764186   10.166918
     37          6           0       -8.836063   15.893008   11.187773
     38          6           0       -8.722840   16.586152   12.562925
     39          8           0       -7.664101   17.232326   12.786977
     40          6           0       -8.208198   14.493005   11.228944
     41          6           0       -8.970325   13.524266   12.151399
     42          6           0      -10.418463   13.198700   11.688832
     43          6           0      -11.548397   13.709103   12.588171
     44          7           0      -11.715760   15.204208   12.540800
     45          8           0       -9.676586   16.460210   13.390426
     46          1           0       -7.827408   18.662659   13.494410
     47          1           0       -7.400127   17.198940   10.457236
     48          1           0       -9.884661   15.801477   10.909114
     49          1           0       -7.166115   14.574951   11.561179
     50          1           0       -8.191083   14.100529   10.205106
     51          1           0       -8.400264   12.591411   12.204003
     52          1           0       -8.983977   13.924318   13.172800
     53          1           0      -10.550613   12.111958   11.648055
     54          1           0      -10.588092   13.547976   10.660604
     55          1           0      -12.502309   13.258477   12.298065
     56          1           0      -11.355576   13.457473   13.635088
     57          1           0      -11.923316   15.523442   11.589316
     58          1           0      -10.774248   15.774075   12.914848
     59          1           0      -12.499333   15.498470   13.129625
 ---------------------------------------------------------------------
 Rotational constants (GHZ):           0.2254679           0.1250303           0.0919566
 Standard basis: 6-31G(d) (6D, 7F)
   482 basis functions,   908 primitive gaussians,   482 cartesian basis functions
   105 alpha electrons      105 beta electrons
       nuclear repulsion energy      2893.3093111925 Hartrees.
 NAtoms=   59 NActive=   59 NUniq=   59 SFac= 1.00D+00 NAtFMM=   60 NAOKFM=F Big=F
 Integral buffers will be    131072 words long.
 Raffenetti 2 integral format.
 Two-electron integral symmetry is turned off.
 Nuclear repulsion after empirical dispersion term =     2893.2301798096 Hartrees.
 One-electron integrals computed using PRISM.
 NBasis=   482 RedAO= T EigKep=  4.68D-04  NBF=   482
 NBsUse=   482 1.00D-06 EigRej= -1.00D+00 NBFU=   482
 Initial guess from the checkpoint file:  "conf-123.chk"
 B after Tr=     0.000000    0.000000    0.000000
         Rot=    1.000000    0.000000    0.000000    0.000000 Ang=   0.00 deg.
 Requested convergence on RMS density matrix=1.00D-08 within 128 cycles.
 Requested convergence on MAX density matrix=1.00D-06.
 Requested convergence on             energy=1.00D-06.
 No special actions if energy rises.
 SCF Done:  E(RB3LYP) =  -1300.63263042     A.U. after    2 cycles
            NFock=  2  Conv=0.96D-08     -V/T= 2.0095

 **********************************************************************

            Population analysis using the SCF Density.

 **********************************************************************

 Alpha  occ. eigenvalues --  -19.24036 -19.23116 -19.22330 -19.21114 -14.54370
 Alpha  occ. eigenvalues --  -14.52997 -14.48663 -14.44846 -10.41464 -10.39886
 Alpha  occ. eigenvalues --  -10.38246 -10.38057 -10.35594 -10.34081 -10.33355
 Alpha  occ. eigenvalues --  -10.32374 -10.31297 -10.30351 -10.29947 -10.29645
 Alpha  occ. eigenvalues --  -10.29482 -10.28779 -10.28774 -10.28530 -10.28450
 Alpha  occ. eigenvalues --  -10.28352 -10.28284 -10.28112  -1.16820  -1.15927
 Alpha  occ. eigenvalues --   -1.12900  -1.09747  -1.08522  -1.06620  -1.06084
 Alpha  occ. eigenvalues --   -1.01597  -0.95479  -0.91625  -0.91045  -0.89480
 Alpha  occ. eigenvalues --   -0.87261  -0.85386  -0.84048  -0.83826  -0.80038
 Alpha  occ. eigenvalues --   -0.77818  -0.75459  -0.74403  -0.71250  -0.70543
 Alpha  occ. eigenvalues --   -0.69967  -0.69358  -0.69171  -0.68534  -0.67800
 Alpha  occ. eigenvalues --   -0.67378  -0.66923  -0.66525  -0.64218  -0.61176
 Alpha  occ. eigenvalues --   -0.60767  -0.60553  -0.60077  -0.59832  -0.57998
 Alpha  occ. eigenvalues --   -0.57305  -0.57202  -0.55974  -0.55485  -0.55106
 Alpha  occ. eigenvalues --   -0.54357  -0.54000  -0.53304  -0.52838  -0.52533
 Alpha  occ. eigenvalues --   -0.52197  -0.51740  -0.51321  -0.51056  -0.50765
 Alpha  occ. eigenvalues --   -0.49972  -0.49690  -0.48990  -0.48622  -0.48205
 Alpha  occ. eigenvalues --   -0.47398  -0.46684  -0.46102  -0.45368  -0.45239
 Alpha  occ. eigenvalues --   -0.44706  -0.44534  -0.43772  -0.43697  -0.43389
 Alpha  occ. eigenvalues --   -0.42867  -0.38971  -0.38172  -0.38111  -0.37256
 Alpha  occ. eigenvalues --   -0.36693  -0.34582  -0.34497  -0.34187  -0.33880
 Alpha virt. eigenvalues --   -0.11655  -0.09946  -0.09813  -0.08137  -0.07086
 Alpha virt. eigenvalues --   -0.06413  -0.04546  -0.03343  -0.01763  -0.01699
 Alpha virt. eigenvalues --   -0.00337  -0.00170   0.00686   0.00766   0.01549
 Alpha virt. eigenvalues --    0.02006   0.02204   0.02562   0.03229   0.03691
 Alpha virt. eigenvalues --    0.03782   0.04460   0.04532   0.05483   0.05843
 Alpha virt. eigenvalues --    0.06193   0.06366   0.06666   0.07060   0.07323
 Alpha virt. eigenvalues --    0.07807   0.08013   0.08676   0.08689   0.09346
 Alpha virt. eigenvalues --    0.09635   0.10177   0.10815   0.10944   0.11335
 Alpha virt. eigenvalues --    0.11415   0.12405   0.12773   0.13603   0.14246
 Alpha virt. eigenvalues --    0.15129   0.15274   0.15412   0.16961   0.17580
 Alpha virt. eigenvalues --    0.17975   0.18352   0.19070   0.20427   0.21516
 Alpha virt. eigenvalues --    0.23260   0.23553   0.24742   0.25460   0.25874
 Alpha virt. eigenvalues --    0.28482   0.30330   0.30974   0.32573   0.35407
 Alpha virt. eigenvalues --    0.37437   0.38688   0.39555   0.40567   0.40751
 Alpha virt. eigenvalues --    0.40989   0.41627   0.42155   0.42590   0.43065
 Alpha virt. eigenvalues --    0.44376   0.44601   0.45069   0.45420   0.46051
 Alpha virt. eigenvalues --    0.46240   0.47256   0.47561   0.47785   0.48456
 Alpha virt. eigenvalues --    0.49216   0.50190   0.50421   0.50887   0.51434
 Alpha virt. eigenvalues --    0.51522   0.52051   0.52265   0.52738   0.53269
 Alpha virt. eigenvalues --    0.53484   0.54184   0.54497   0.55214   0.55536
 Alpha virt. eigenvalues --    0.55722   0.56271   0.56827   0.57201   0.59104
 Alpha virt. eigenvalues --    0.59457   0.60270   0.60413   0.61485   0.62526
 Alpha virt. eigenvalues --    0.63262   0.64381   0.64939   0.64976   0.66019
 Alpha virt. eigenvalues --    0.67326   0.68595   0.69247   0.70200   0.70804
 Alpha virt. eigenvalues --    0.71006   0.71106   0.71835   0.72318   0.73133
 Alpha virt. eigenvalues --    0.73694   0.74080   0.74556   0.74796   0.75161
 Alpha virt. eigenvalues --    0.75606   0.76337   0.76477   0.76642   0.77298
 Alpha virt. eigenvalues --    0.77447   0.77982   0.78195   0.78377   0.79255
 Alpha virt. eigenvalues --    0.79554   0.79869   0.80660   0.81399   0.81600
 Alpha virt. eigenvalues --    0.81792   0.82823   0.83008   0.83463   0.84184
 Alpha virt. eigenvalues --    0.84767   0.85036   0.85690   0.86191   0.86865
 Alpha virt. eigenvalues --    0.87522   0.87763   0.89763   0.90429   0.91023
 Alpha virt. eigenvalues --    0.91738   0.92422   0.94916   0.95353   0.96022
 Alpha virt. eigenvalues --    0.96667   0.97868   0.98379   1.00255   1.01316
 Alpha virt. eigenvalues --    1.01651   1.01809   1.03086   1.03776   1.05275
 Alpha virt. eigenvalues --    1.06293   1.07521   1.08742   1.09141   1.09816
 Alpha virt. eigenvalues --    1.11154   1.13524   1.15051   1.16128   1.16843
 Alpha virt. eigenvalues --    1.19255   1.20040   1.20409   1.23673   1.26111
 Alpha virt. eigenvalues --    1.26486   1.26768   1.27393   1.29171   1.29627
 Alpha virt. eigenvalues --    1.30852   1.32867   1.33103   1.33658   1.34598
 Alpha virt. eigenvalues --    1.35068   1.36708   1.38434   1.39012   1.39620
 Alpha virt. eigenvalues --    1.39945   1.40886   1.41629   1.41949   1.43040
 Alpha virt. eigenvalues --    1.44787   1.46969   1.49425   1.49638   1.51168
 Alpha virt. eigenvalues --    1.51871   1.52515   1.55111   1.56377   1.56786
 Alpha virt. eigenvalues --    1.58387   1.59213   1.61172   1.64348   1.64789
 Alpha virt. eigenvalues --    1.65607   1.65740   1.67385   1.68287   1.68627
 Alpha virt. eigenvalues --    1.69286   1.70288   1.70605   1.70860   1.71837
 Alpha virt. eigenvalues --    1.72394   1.73507   1.74234   1.74550   1.75533
 Alpha virt. eigenvalues --    1.76064   1.76417   1.77878   1.78468   1.78860
 Alpha virt. eigenvalues --    1.79754   1.80115   1.80955   1.81934   1.82953
 Alpha virt. eigenvalues --    1.83725   1.83827   1.84170   1.85335   1.87667
 Alpha virt. eigenvalues --    1.88129   1.88829   1.89547   1.90030   1.90859
 Alpha virt. eigenvalues --    1.91585   1.92386   1.93015   1.93320   1.94744
 Alpha virt. eigenvalues --    1.95524   1.95902   1.96577   1.96912   1.97861
 Alpha virt. eigenvalues --    1.98853   2.00615   2.01367   2.01454   2.02245
 Alpha virt. eigenvalues --    2.04221   2.04907   2.05694   2.07061   2.07274
 Alpha virt. eigenvalues --    2.08577   2.10077   2.11274   2.12084   2.12814
 Alpha virt. eigenvalues --    2.14474   2.15357   2.16640   2.16745   2.19284
 Alpha virt. eigenvalues --    2.20366   2.21584   2.22323   2.24196   2.24483
 Alpha virt. eigenvalues --    2.25132   2.26346   2.26792   2.27488   2.29171
 Alpha virt. eigenvalues --    2.30179   2.31252   2.32150   2.32866   2.36074
 Alpha virt. eigenvalues --    2.36998   2.37977   2.40290   2.40897   2.42043
 Alpha virt. eigenvalues --    2.43380   2.45665   2.46505   2.47046   2.48144
 Alpha virt. eigenvalues --    2.48885   2.51366   2.51605   2.51930   2.53711
 Alpha virt. eigenvalues --    2.54905   2.56325   2.56819   2.57251   2.57807
 Alpha virt. eigenvalues --    2.59150   2.60490   2.61893   2.63558   2.65005
 Alpha virt. eigenvalues --    2.65540   2.66118   2.67215   2.67795   2.68309
 Alpha virt. eigenvalues --    2.73290   2.74865   2.81867   2.84383   2.87420
 Alpha virt. eigenvalues --    2.89567   2.92839   2.94384   2.94691   2.97460
 Alpha virt. eigenvalues --    3.01540   3.05442   3.09907   3.31376   3.72977
 Alpha virt. eigenvalues --    3.76276   3.88408   3.92148   3.98973   4.00357
 Alpha virt. eigenvalues --    4.02659   4.03413   4.07052   4.08500   4.10981
 Alpha virt. eigenvalues --    4.13768   4.16159   4.17825   4.22157   4.25139
 Alpha virt. eigenvalues --    4.26143   4.30695   4.32808   4.37154   4.39623
 Alpha virt. eigenvalues --    4.44299   4.46816   4.48522   4.57501   4.60008
 Alpha virt. eigenvalues --    4.60985   4.67676
          Condensed to atoms (all electrons):
 Mulliken charges:
               1
     1  N   -0.759802
     2  C   -0.104808
     3  C    0.635148
     4  O   -0.532402
     5  C   -0.375406
     6  C    0.110192
     7  C   -0.208588
     8  C   -0.185896
     9  C   -0.128372
    10  C   -0.127226
    11  C   -0.125460
    12  H    0.207430
    13  H    0.196833
    14  H    0.179245
    15  H    0.167973
    16  H    0.134772
    17  H    0.156434
    18  H    0.157924
    19  H    0.159131
    20  H    0.408245
    21  H    0.397755
    22  N   -0.489372
    23  C   -0.019426
    24  C    0.613412
    25  O   -0.516131
    26  C   -0.314926
    27  C   -0.301739
    28  C   -0.140304
    29  H    0.199486
    30  H    0.169451
    31  H    0.191877
    32  H    0.179746
    33  H    0.174614
    34  H    0.173214
    35  H    0.173577
    36  N   -0.594086
    37  C   -0.068052
    38  C    0.667537
    39  O   -0.613760
    40  C   -0.276753
    41  C   -0.295819
    42  C   -0.290310
    43  C   -0.181519
    44  N   -0.786632
    45  O   -0.606820
    46  H    0.448433
    47  H    0.336398
    48  H    0.143455
    49  H    0.159749
    50  H    0.167510
    51  H    0.171182
    52  H    0.162702
    53  H    0.185237
    54  H    0.167766
    55  H    0.193406
    56  H    0.201407
    57  H    0.394477
    58  H    0.469722
    59  H    0.388170
 Sum of Mulliken charges =   1.00000
 Mulliken charges with hydrogens summed into heavy atoms:
               1
     1  N    0.494632
     2  C    0.102622
     3  C    0.635148
     4  O   -0.532402
     5  C    0.000672
     6  C    0.110192
     7  C   -0.040615
     8  C   -0.051124
     9  C    0.028062
    10  C    0.030698
    11  C    0.033670
    22  N   -0.489372
    23  C    0.180060
    24  C    0.613412
    25  O   -0.516131
    26  C    0.046402
    27  C    0.052620
    28  C    0.206487
    36  N   -0.257688
    37  C    0.075403
    38  C    0.667537
    39  O   -0.613760
    40  C    0.050506
    41  C    0.038065
    42  C    0.062693
    43  C    0.213294
    44  N    0.465737
    45  O   -0.606820
 Electronic spatial extent (au):  <R**2>=         402569.7446
 Charge=              1.0000 electrons
 Dipole moment (field-independent basis, Debye):
    X=            -40.2323    Y=             85.5032    Z=             58.9438  Tot=            111.3724
 Quadrupole moment (field-independent basis, Debye-Ang):
   XX=            215.7188   YY=           1418.5835   ZZ=            590.4431
   XY=           -673.4829   XZ=           -500.8939   YZ=           1048.8044
 Traceless Quadrupole moment (field-independent basis, Debye-Ang):
   XX=           -525.8630   YY=            677.0017   ZZ=           -151.1387
   XY=           -673.4829   XZ=           -500.8939   YZ=           1048.8044
 Octapole moment (field-independent basis, Debye-Ang**2):
  XXX=           -189.9450  YYY=          21450.2572  ZZZ=           4156.7416  XYY=         -10505.6144
  XXY=           3056.8780  XXZ=           2889.9332  XZZ=          -5129.6599  YZZ=          10556.6065
  YYZ=          17467.8815  XYZ=          -8370.1455
 Hexadecapole moment (field-independent basis, Debye-Ang**3):
 XXXX=         -18246.2516 YYYY=         272351.9965 ZZZZ=          -7424.3957 XXXY=           5948.9593
 XXXZ=          -7720.3711 YYYX=        -148097.4483 YYYZ=         266702.0826 ZZZX=         -39126.4783
 ZZZY=          75587.6050 XXYY=          34295.4698 XXZZ=          27742.6952 YYZZ=         173338.8636
 XXYZ=          41492.0333 YYXZ=        -131266.4587 ZZXY=         -85287.8882
 N-N= 2.893230179810D+03 E-N=-8.790097926457D+03  KE= 1.288400614362D+03
 Unable to Open any file for archive entry.
 1\1\GINC-SKL-148\SP\RB3LYP\6-31G(d)\C20H31N4O4(1+)\KENGMITH\25-May-202
 2\0\\# B3LYP/6-31G* empiricaldispersion=gd3 guess=read geom=check nosy
 mm integral(ultrafinegrid)\\Candidate Structure: Conf:123 Charge calc 
 in gas phase\\1,1\N,0,-7.8620481242,19.7389711617,13.497599836\C,0,-7.
 1242326885,20.1972646687,12.2642343578\C,0,-8.0695637447,19.7533494095
 ,11.1160435932\O,0,-9.2594439872,19.5824233581,11.399636249\C,0,-5.692
 8928736,19.6154546998,12.2924194655\C,0,-5.0483352888,19.761723679,13.
 656875982\C,0,-5.0689381794,18.693403687,14.5661092134\C,0,-4.47643995
 87,20.9802725243,14.0483980337\C,0,-4.5191893148,18.8424903502,15.8412
 91911\C,0,-3.9275456437,21.1282698057,15.322881737\C,0,-3.9482397904,2
 0.0587449982,16.2215747612\H,0,-7.0883214257,21.2920963863,12.30259963
 74\H,0,-5.7414964987,18.5614241856,12.00851358\H,0,-5.0958802294,20.14
 38480736,11.546712542\H,0,-5.5189742292,17.7486348971,14.2697389197\H,
 0,-4.4457906648,21.8123962484,13.3474854411\H,0,-4.5325431468,18.00632
 06253,16.5344819272\H,0,-3.4777968659,22.0739804937,15.6110349477\H,0,
 -3.5167702669,20.1722557915,17.2116855163\H,0,-8.8519694314,19.9940827
 8,13.3983697381\H,0,-7.4420797346,20.1126987025,14.3514102447\N,0,-7.5
 917797129,19.486253446,9.8805278724\C,0,-8.5232931331,18.8647969176,8.
 9046626514\C,0,-9.131741328,17.562529722,9.4493250375\O,0,-10.29565166
 27,17.2660993856,9.2254177768\C,0,-7.6454608698,18.6899475143,7.652341
 6426\C,0,-6.662379812,19.8658272921,7.7479398006\C,0,-6.3254413531,19.
 9134555767,9.2449285039\H,0,-9.3695499192,19.5319679805,8.7201509522\H
 ,0,-7.1069293854,17.7361937544,7.702363842\H,0,-8.244302672,18.6923325
 261,6.7394143762\H,0,-5.7693325974,19.7349367678,7.1315950123\H,0,-7.1
 53482142,20.7971606429,7.4449788652\H,0,-6.0357639285,20.9113296082,9.
 5850576276\H,0,-5.5179592044,19.2125280114,9.4852358198\N,0,-8.2682696
 29,16.7641862458,10.1669175553\C,0,-8.8360630039,15.8930081085,11.1877
 733076\C,0,-8.722840399,16.5861518919,12.5629252705\O,0,-7.6641009625,
 17.2323259397,12.7869772359\C,0,-8.2081978312,14.49300489,11.228943660
 2\C,0,-8.9703254735,13.5242663844,12.1513989965\C,0,-10.4184630467,13.
 1986998077,11.6888321604\C,0,-11.5483973524,13.7091033785,12.588170542
 1\N,0,-11.7157599102,15.2042079486,12.5408004043\O,0,-9.6765857303,16.
 4602098608,13.3904264341\H,0,-7.8274079274,18.6626585998,13.494409568\
 H,0,-7.4001271764,17.1989397956,10.4572358522\H,0,-9.8846606504,15.801
 4771606,10.9091142306\H,0,-7.1661150736,14.5749510616,11.5611794241\H,
 0,-8.1910828496,14.1005292773,10.2051059003\H,0,-8.400263769,12.591410
 9679,12.2040031583\H,0,-8.9839769245,13.9243182649,13.1728002656\H,0,-
 10.5506132061,12.111958313,11.6480545844\H,0,-10.5880919417,13.5479756
 661,10.6606044455\H,0,-12.5023091379,13.2584768909,12.2980647855\H,0,-
 11.3555756667,13.4574728561,13.6350875116\H,0,-11.9233160929,15.523441
 8879,11.5893159666\H,0,-10.7742477693,15.7740747707,12.914847978\H,0,-
 12.499332798,15.4984695196,13.129625088\\Version=ES64L-G16RevC.01\HF=-
 1300.6326304\RMSD=9.582e-09\Dipole=-1.1102667,-0.1537263,0.7937737\Qua
 drupole=-390.9662346,503.3341527,-112.3679181,-500.7180147,-372.402363
 2,779.7603657\PG=C01 [X(C20H31N4O4)]\\@
 The archive entry for this job was punched.


 THERE'S SMALL CHOICE IN A BOWL OF ROTTEN APPLES.
                     SHAKESPEARE
 Job cpu time:       0 days  0 hours  1 minutes 43.6 seconds.
 Elapsed time:       0 days  0 hours  0 minutes 26.4 seconds.
 File lengths (MBytes):  RWF=    240 Int=      0 D2E=      0 Chk=     32 Scr=     16
 Normal termination of Gaussian 16 at Wed May 25 08:35:09 2022.
