 Entering Gaussian System, Link 0=/opt/software/Gaussian/g16-AVX2-C.01/g16/g16
 Input=charge-conf-727.com
 Output=charge-conf-727.log
 Initial command:
 /opt/software/Gaussian/g16-AVX2-C.01/g16/l1.exe "/mnt/gs18/scratch/users/kengmith/Gau-51583.inp" -scrdir="/mnt/gs18/scratch/users/kengmith/"
 Entering Link 1 = /opt/software/Gaussian/g16-AVX2-C.01/g16/l1.exe PID=     51593.
  
 Copyright (c) 1988-2019, Gaussian, Inc.  All Rights Reserved.
  
 This is part of the Gaussian(R) 16 program.  It is based on
 the Gaussian(R) 09 system (copyright 2009, Gaussian, Inc.),
 the Gaussian(R) 03 system (copyright 2003, Gaussian, Inc.),
 the Gaussian(R) 98 system (copyright 1998, Gaussian, Inc.),
 the Gaussian(R) 94 system (copyright 1995, Gaussian, Inc.),
 the Gaussian 92(TM) system (copyright 1992, Gaussian, Inc.),
 the Gaussian 90(TM) system (copyright 1990, Gaussian, Inc.),
 the Gaussian 88(TM) system (copyright 1988, Gaussian, Inc.),
 the Gaussian 86(TM) system (copyright 1986, Carnegie Mellon
 University), and the Gaussian 82(TM) system (copyright 1983,
 Carnegie Mellon University). Gaussian is a federally registered
 trademark of Gaussian, Inc.
  
 This software contains proprietary and confidential information,
 including trade secrets, belonging to Gaussian, Inc.
  
 This software is provided under written license and may be
 used, copied, transmitted, or stored only in accord with that
 written license.
  
 The following legend is applicable only to US Government
 contracts under FAR:
  
                    RESTRICTED RIGHTS LEGEND
  
 Use, reproduction and disclosure by the US Government is
 subject to restrictions as set forth in subparagraphs (a)
 and (c) of the Commercial Computer Software - Restricted
 Rights clause in FAR 52.227-19.
  
 Gaussian, Inc.
 340 Quinnipiac St., Bldg. 40, Wallingford CT 06492
  
  
 ---------------------------------------------------------------
 Warning -- This program may not be used in any manner that
 competes with the business of Gaussian, Inc. or will provide
 assistance to any competitor of Gaussian, Inc.  The licensee
 of this program is prohibited from giving any competitor of
 Gaussian, Inc. access to this program.  By using this program,
 the user acknowledges that Gaussian, Inc. is engaged in the
 business of creating and licensing software in the field of
 computational chemistry and represents and warrants to the
 licensee that it is not a competitor of Gaussian, Inc. and that
 it will not use this program in any manner prohibited above.
 ---------------------------------------------------------------
  

 Cite this work as:
 Gaussian 16, Revision C.01,
 M. J. Frisch, G. W. Trucks, H. B. Schlegel, G. E. Scuseria, 
 M. A. Robb, J. R. Cheeseman, G. Scalmani, V. Barone, 
 G. A. Petersson, H. Nakatsuji, X. Li, M. Caricato, A. V. Marenich, 
 J. Bloino, B. G. Janesko, R. Gomperts, B. Mennucci, H. P. Hratchian, 
 J. V. Ortiz, A. F. Izmaylov, J. L. Sonnenberg, D. Williams-Young, 
 F. Ding, F. Lipparini, F. Egidi, J. Goings, B. Peng, A. Petrone, 
 T. Henderson, D. Ranasinghe, V. G. Zakrzewski, J. Gao, N. Rega, 
 G. Zheng, W. Liang, M. Hada, M. Ehara, K. Toyota, R. Fukuda, 
 J. Hasegawa, M. Ishida, T. Nakajima, Y. Honda, O. Kitao, H. Nakai, 
 T. Vreven, K. Throssell, J. A. Montgomery, Jr., J. E. Peralta, 
 F. Ogliaro, M. J. Bearpark, J. J. Heyd, E. N. Brothers, K. N. Kudin, 
 V. N. Staroverov, T. A. Keith, R. Kobayashi, J. Normand, 
 K. Raghavachari, A. P. Rendell, J. C. Burant, S. S. Iyengar, 
 J. Tomasi, M. Cossi, J. M. Millam, M. Klene, C. Adamo, R. Cammi, 
 J. W. Ochterski, R. L. Martin, K. Morokuma, O. Farkas, 
 J. B. Foresman, and D. J. Fox, Gaussian, Inc., Wallingford CT, 2019.
 
 ******************************************
 Gaussian 16:  ES64L-G16RevC.01  3-Jul-2019
                25-May-2022 
 ******************************************
 %mem=8gb
 %nproc=4
 Will use up to    4 processors via shared memory.
 %chk=conf-727.chk
 ----------------------------------------------------------------------
 # B3LYP/6-31G* empiricaldispersion=gd3 guess=read geom=check nosymm in
 tegral(ultrafinegrid)
 ----------------------------------------------------------------------
 1/29=2,38=1,172=1/1;
 2/12=2,15=1,40=1/2;
 3/5=1,6=6,7=1,11=2,14=-4,25=1,30=1,74=-5,75=-5,116=-2,124=31/1,2,3;
 4/5=1/1;
 5/5=2,38=6/2;
 6/7=2,8=2,9=2,10=2,28=1/1;
 99/5=1,9=1/99;
 ------------------------------------------------------
 Candidate Structure: Conf:727 Charge calc in gas phase
 ------------------------------------------------------
 Structure from the checkpoint file:  "conf-727.chk"
 Charge =  1 Multiplicity = 1
 Redundant internal coordinates found in file.  (old form).
 N,0,-7.7118420201,20.3126061577,9.0084239612
 C,0,-6.9333310696,20.2475221881,10.2360446977
 C,0,-6.3886325981,18.827912313,10.4007422479
 O,0,-6.7039124653,17.910169909,9.6475779295
 C,0,-7.8514659696,20.608939602,11.4414286805
 C,0,-8.3494095072,22.0339183146,11.3630353166
 C,0,-9.4934844995,22.3574368175,10.6204042145
 C,0,-7.6407893249,23.0656123679,11.9929268906
 C,0,-9.9173064146,23.6828219783,10.5117965901
 C,0,-8.0629049798,24.3913906728,11.8865515929
 C,0,-9.2039429271,24.7031725383,11.1445427028
 H,0,-6.075817575,20.9440816986,10.2519947745
 H,0,-8.6924708909,19.9050875532,11.4170692973
 H,0,-7.3136206308,20.4636190453,12.3847599197
 H,0,-10.039775984,21.5642551861,10.1181838404
 H,0,-6.7528687231,22.8284517287,12.5765361597
 H,0,-10.8069743946,23.918556962,9.9341137823
 H,0,-7.5044801807,25.1788171284,12.3853197331
 H,0,-9.5363093215,25.7341333454,11.0623903264
 H,0,-7.3138804445,19.7073200476,8.2959163681
 H,0,-7.7424345929,21.2657294033,8.6602901349
 N,0,-5.5746781571,18.5659777288,11.4849950647
 C,0,-4.9953004681,17.2169697845,11.5672778703
 C,0,-6.0344507095,16.1244313339,11.7514739877
 O,0,-5.7806506456,14.9486922845,11.4473893333
 C,0,-4.0117697241,17.3123136744,12.7510638544
 C,0,-3.5385351406,18.7712996185,12.6717351383
 C,0,-4.8230874014,19.5325958911,12.3149970359
 H,0,-4.4753594122,16.9674827698,10.6361801414
 H,0,-4.5414061463,17.1350340194,13.6953254005
 H,0,-3.2082233169,16.5780250352,12.6679238515
 H,0,-3.0869564068,19.1279865199,13.6011190576
 H,0,-2.8008986142,18.8841418649,11.8693662949
 H,0,-4.6341798105,20.4577537678,11.7656066167
 H,0,-5.3915329398,19.7870336247,13.2182617182
 N,0,-7.2142756939,16.4787366718,12.314038042
 C,0,-8.2732885746,15.5156983507,12.6021302587
 C,0,-8.9204310854,14.9595833839,11.3092286203
 O,0,-10.1302363768,15.0176429438,11.0881956433
 C,0,-9.2488089635,16.1421862983,13.6160054713
 C,0,-10.5761748342,15.4049766901,13.8841708575
 C,0,-10.4989800569,13.8703780652,14.076042781
 C,0,-11.7481344755,13.1612733724,13.5456658139
 N,0,-11.6988974119,13.0588264094,12.0246999703
 O,0,-8.1217741135,14.3242198511,10.4866736457
 H,0,-7.1583068768,14.3979302043,10.7857100153
 H,0,-7.4271228972,17.4669535979,12.3729535562
 H,0,-7.7772180317,14.6460059209,13.0561858964
 H,0,-9.508586518,17.1525156653,13.2755112859
 H,0,-8.6854266477,16.2625144959,14.5485808523
 H,0,-11.0296683406,15.8447280301,14.7793557459
 H,0,-11.2521537018,15.6355273266,13.0586746633
 H,0,-10.4004541641,13.6171273587,15.1367563369
 H,0,-9.6174240941,13.4314732296,13.591315751
 H,0,-11.8521972897,12.141996061,13.9240548274
 H,0,-12.6554936526,13.7183269489,13.791126919
 H,0,-11.1287486013,12.25844093,11.7319782565
 H,0,-11.2328373317,13.9042812629,11.5875412552
 H,0,-12.6284503595,12.935116596,11.6114209588
 Recover connectivity data from disk.
                           ----------------------------
                           !    Current Parameters    !
                           ! (Angstroms and Degrees)  !
 --------------------------                            --------------------------
 ! Name  Definition              Value                                          !
 --------------------------------------------------------------------------------
 ! R1    R(1,2)                  1.4551                                         !
 ! R2    R(1,20)                 1.0161                                         !
 ! R3    R(1,21)                 1.0152                                         !
 ! R4    R(2,3)                  1.5294                                         !
 ! R5    R(2,5)                  1.5577                                         !
 ! R6    R(2,12)                 1.1049                                         !
 ! R7    R(3,4)                  1.2284                                         !
 ! R8    R(3,22)                 1.3808                                         !
 ! R9    R(5,6)                  1.5115                                         !
 ! R10   R(5,13)                 1.0969                                         !
 ! R11   R(5,14)                 1.0956                                         !
 ! R12   R(6,7)                  1.4018                                         !
 ! R13   R(6,8)                  1.4012                                         !
 ! R14   R(7,9)                  1.3957                                         !
 ! R15   R(7,15)                 1.0862                                         !
 ! R16   R(8,10)                 1.3954                                         !
 ! R17   R(8,16)                 1.0887                                         !
 ! R18   R(9,11)                 1.3966                                         !
 ! R19   R(9,17)                 1.0866                                         !
 ! R20   R(10,11)                1.3963                                         !
 ! R21   R(10,18)                1.0866                                         !
 ! R22   R(11,19)                1.0863                                         !
 ! R23   R(22,23)                1.4705                                         !
 ! R24   R(22,28)                1.4792                                         !
 ! R25   R(23,24)                1.519                                          !
 ! R26   R(23,26)                1.542                                          !
 ! R27   R(23,29)                1.0952                                         !
 ! R28   R(24,25)                1.2407                                         !
 ! R29   R(24,36)                1.3543                                         !
 ! R30   R(26,27)                1.5359                                         !
 ! R31   R(26,30)                1.0971                                         !
 ! R32   R(26,31)                1.0917                                         !
 ! R33   R(27,28)                1.5352                                         !
 ! R34   R(27,32)                1.0931                                         !
 ! R35   R(27,33)                1.0957                                         !
 ! R36   R(28,34)                1.0924                                         !
 ! R37   R(28,35)                1.0972                                         !
 ! R38   R(36,37)                1.4601                                         !
 ! R39   R(36,47)                1.0126                                         !
 ! R40   R(37,38)                1.5491                                         !
 ! R41   R(37,40)                1.5402                                         !
 ! R42   R(37,48)                1.0994                                         !
 ! R43   R(38,39)                1.2312                                         !
 ! R44   R(38,45)                1.3108                                         !
 ! R45   R(40,41)                1.5418                                         !
 ! R46   R(40,49)                1.0974                                         !
 ! R47   R(40,50)                1.0962                                         !
 ! R48   R(41,42)                1.5485                                         !
 ! R49   R(41,51)                1.0956                                         !
 ! R50   R(41,52)                1.0916                                         !
 ! R51   R(42,43)                1.5312                                         !
 ! R52   R(42,53)                1.095                                          !
 ! R53   R(42,54)                1.0976                                         !
 ! R54   R(43,44)                1.5252                                         !
 ! R55   R(43,55)                1.0922                                         !
 ! R56   R(43,56)                1.0926                                         !
 ! R57   R(44,57)                1.0254                                         !
 ! R58   R(44,58)                1.0598                                         !
 ! R59   R(44,59)                1.0248                                         !
 ! R60   R(45,46)                1.0115                                         !
 ! A1    A(2,1,20)             110.8186                                         !
 ! A2    A(2,1,21)             110.3303                                         !
 ! A3    A(20,1,21)            109.3068                                         !
 ! A4    A(1,2,3)              108.8391                                         !
 ! A5    A(1,2,5)              109.0934                                         !
 ! A6    A(1,2,12)             113.5289                                         !
 ! A7    A(3,2,5)              109.9953                                         !
 ! A8    A(3,2,12)             107.891                                          !
 ! A9    A(5,2,12)             107.4576                                         !
 ! A10   A(2,3,4)              122.4145                                         !
 ! A11   A(2,3,22)             118.0709                                         !
 ! A12   A(4,3,22)             119.4072                                         !
 ! A13   A(2,5,6)              111.8865                                         !
 ! A14   A(2,5,13)             106.6083                                         !
 ! A15   A(2,5,14)             110.252                                          !
 ! A16   A(6,5,13)             110.5602                                         !
 ! A17   A(6,5,14)             109.356                                          !
 ! A18   A(13,5,14)            108.083                                          !
 ! A19   A(5,6,7)              120.925                                          !
 ! A20   A(5,6,8)              120.2804                                         !
 ! A21   A(7,6,8)              118.7489                                         !
 ! A22   A(6,7,9)              120.5442                                         !
 ! A23   A(6,7,15)             119.1365                                         !
 ! A24   A(9,7,15)             120.314                                          !
 ! A25   A(6,8,10)             120.8175                                         !
 ! A26   A(6,8,16)             119.5416                                         !
 ! A27   A(10,8,16)            119.6401                                         !
 ! A28   A(7,9,11)             120.2273                                         !
 ! A29   A(7,9,17)             119.7346                                         !
 ! A30   A(11,9,17)            120.0379                                         !
 ! A31   A(8,10,11)            119.9898                                         !
 ! A32   A(8,10,18)            119.8719                                         !
 ! A33   A(11,10,18)           120.1377                                         !
 ! A34   A(9,11,10)            119.6721                                         !
 ! A35   A(9,11,19)            120.188                                          !
 ! A36   A(10,11,19)           120.1397                                         !
 ! A37   A(3,22,23)            116.7574                                         !
 ! A38   A(3,22,28)            128.0339                                         !
 ! A39   A(23,22,28)           111.5856                                         !
 ! A40   A(22,23,24)           113.3957                                         !
 ! A41   A(22,23,26)           103.7416                                         !
 ! A42   A(22,23,29)           110.393                                          !
 ! A43   A(24,23,26)           112.8124                                         !
 ! A44   A(24,23,29)           105.3082                                         !
 ! A45   A(26,23,29)           111.342                                          !
 ! A46   A(23,24,25)           120.7931                                         !
 ! A47   A(23,24,36)           117.2701                                         !
 ! A48   A(25,24,36)           121.8683                                         !
 ! A49   A(23,26,27)           102.4515                                         !
 ! A50   A(23,26,30)           110.0503                                         !
 ! A51   A(23,26,31)           111.6801                                         !
 ! A52   A(27,26,30)           110.2864                                         !
 ! A53   A(27,26,31)           114.0931                                         !
 ! A54   A(30,26,31)           108.1923                                         !
 ! A55   A(26,27,28)           103.0178                                         !
 ! A56   A(26,27,32)           113.1627                                         !
 ! A57   A(26,27,33)           110.0643                                         !
 ! A58   A(28,27,32)           112.4212                                         !
 ! A59   A(28,27,33)           110.0016                                         !
 ! A60   A(32,27,33)           108.1121                                         !
 ! A61   A(22,28,27)           103.3839                                         !
 ! A62   A(22,28,34)           111.0434                                         !
 ! A63   A(22,28,35)           110.5017                                         !
 ! A64   A(27,28,34)           113.0866                                         !
 ! A65   A(27,28,35)           110.9287                                         !
 ! A66   A(34,28,35)           107.892                                          !
 ! A67   A(24,36,37)           122.7708                                         !
 ! A68   A(24,36,47)           117.5564                                         !
 ! A69   A(37,36,47)           118.6689                                         !
 ! A70   A(36,37,38)           112.0305                                         !
 ! A71   A(36,37,40)           108.7229                                         !
 ! A72   A(36,37,48)           106.0206                                         !
 ! A73   A(38,37,40)           115.5217                                         !
 ! A74   A(38,37,48)           104.4315                                         !
 ! A75   A(40,37,48)           109.6157                                         !
 ! A76   A(37,38,39)           122.9159                                         !
 ! A77   A(37,38,45)           116.31                                           !
 ! A78   A(39,38,45)           120.5914                                         !
 ! A79   A(37,40,41)           117.7288                                         !
 ! A80   A(37,40,49)           108.6747                                         !
 ! A81   A(37,40,50)           106.2106                                         !
 ! A82   A(41,40,49)           106.8809                                         !
 ! A83   A(41,40,50)           110.3027                                         !
 ! A84   A(49,40,50)           106.5339                                         !
 ! A85   A(40,41,42)           116.9032                                         !
 ! A86   A(40,41,51)           107.8504                                         !
 ! A87   A(40,41,52)           107.4941                                         !
 ! A88   A(42,41,51)           108.4917                                         !
 ! A89   A(42,41,52)           109.5053                                         !
 ! A90   A(51,41,52)           106.0689                                         !
 ! A91   A(41,42,43)           112.0472                                         !
 ! A92   A(41,42,53)           110.7158                                         !
 ! A93   A(41,42,54)           112.4334                                         !
 ! A94   A(43,42,53)           107.5684                                         !
 ! A95   A(43,42,54)           108.4859                                         !
 ! A96   A(53,42,54)           105.2512                                         !
 ! A97   A(42,43,44)           110.499                                          !
 ! A98   A(42,43,55)           112.9489                                         !
 ! A99   A(42,43,56)           111.3186                                         !
 ! A100  A(44,43,55)           106.6109                                         !
 ! A101  A(44,43,56)           106.5635                                         !
 ! A102  A(55,43,56)           108.5921                                         !
 ! A103  A(43,44,57)           110.7976                                         !
 ! A104  A(43,44,58)           111.837                                          !
 ! A105  A(43,44,59)           112.3951                                         !
 ! A106  A(57,44,58)           105.0958                                         !
 ! A107  A(57,44,59)           107.1584                                         !
 ! A108  A(58,44,59)           109.1995                                         !
 ! A109  A(38,45,46)           111.0709                                         !
 ! D1    D(20,1,2,3)           -34.1981                                         !
 ! D2    D(20,1,2,5)          -154.2269                                         !
 ! D3    D(20,1,2,12)           85.9733                                         !
 ! D4    D(21,1,2,3)          -155.4031                                         !
 ! D5    D(21,1,2,5)            84.5681                                         !
 ! D6    D(21,1,2,12)          -35.2317                                         !
 ! D7    D(1,2,3,4)             -6.2134                                         !
 ! D8    D(1,2,3,22)           177.5799                                         !
 ! D9    D(5,2,3,4)            113.2551                                         !
 ! D10   D(5,2,3,22)           -62.9515                                         !
 ! D11   D(12,2,3,4)          -129.8129                                         !
 ! D12   D(12,2,3,22)           53.9804                                         !
 ! D13   D(1,2,5,6)            -64.0208                                         !
 ! D14   D(1,2,5,13)            56.9613                                         !
 ! D15   D(1,2,5,14)           174.0456                                         !
 ! D16   D(3,2,5,6)            176.6659                                         !
 ! D17   D(3,2,5,13)           -62.352                                          !
 ! D18   D(3,2,5,14)            54.7322                                         !
 ! D19   D(12,2,5,6)            59.4636                                         !
 ! D20   D(12,2,5,13)         -179.5543                                         !
 ! D21   D(12,2,5,14)          -62.47                                           !
 ! D22   D(2,3,22,23)         -176.0725                                         !
 ! D23   D(2,3,22,28)          -19.5096                                         !
 ! D24   D(4,3,22,23)            7.6033                                         !
 ! D25   D(4,3,22,28)          164.1661                                         !
 ! D26   D(2,5,6,7)             85.1771                                         !
 ! D27   D(2,5,6,8)            -92.3352                                         !
 ! D28   D(13,5,6,7)           -33.4864                                         !
 ! D29   D(13,5,6,8)           149.0013                                         !
 ! D30   D(14,5,6,7)          -152.3767                                         !
 ! D31   D(14,5,6,8)            30.111                                          !
 ! D32   D(5,6,7,9)           -177.5591                                         !
 ! D33   D(5,6,7,15)             1.6137                                         !
 ! D34   D(8,6,7,9)             -0.0094                                         !
 ! D35   D(8,6,7,15)           179.1634                                         !
 ! D36   D(5,6,8,10)           177.6147                                         !
 ! D37   D(5,6,8,16)            -2.698                                          !
 ! D38   D(7,6,8,10)             0.0487                                         !
 ! D39   D(7,6,8,16)           179.7361                                         !
 ! D40   D(6,7,9,11)            -0.0354                                         !
 ! D41   D(6,7,9,17)          -179.9007                                         !
 ! D42   D(15,7,9,11)         -179.1985                                         !
 ! D43   D(15,7,9,17)            0.9362                                         !
 ! D44   D(6,8,10,11)           -0.0432                                         !
 ! D45   D(6,8,10,18)          179.7047                                         !
 ! D46   D(16,8,10,11)        -179.7303                                         !
 ! D47   D(16,8,10,18)           0.0176                                         !
 ! D48   D(7,9,11,10)            0.0412                                         !
 ! D49   D(7,9,11,19)         -179.7911                                         !
 ! D50   D(17,9,11,10)         179.906                                          !
 ! D51   D(17,9,11,19)           0.0738                                         !
 ! D52   D(8,10,11,9)           -0.0022                                         !
 ! D53   D(8,10,11,19)         179.8302                                         !
 ! D54   D(18,10,11,9)        -179.7494                                         !
 ! D55   D(18,10,11,19)          0.083                                          !
 ! D56   D(3,22,23,24)         -64.6887                                         !
 ! D57   D(3,22,23,26)         172.5802                                         !
 ! D58   D(3,22,23,29)          53.1988                                         !
 ! D59   D(28,22,23,24)        134.9999                                         !
 ! D60   D(28,22,23,26)         12.2688                                         !
 ! D61   D(28,22,23,29)       -107.1126                                         !
 ! D62   D(3,22,28,27)        -144.9272                                         !
 ! D63   D(3,22,28,34)         -23.3656                                         !
 ! D64   D(3,22,28,35)          96.3236                                         !
 ! D65   D(23,22,28,27)         12.619                                          !
 ! D66   D(23,22,28,34)        134.1806                                         !
 ! D67   D(23,22,28,35)       -106.1301                                         !
 ! D68   D(22,23,24,25)        158.3936                                         !
 ! D69   D(22,23,24,36)        -24.5609                                         !
 ! D70   D(26,23,24,25)        -84.0407                                         !
 ! D71   D(26,23,24,36)         93.0048                                         !
 ! D72   D(29,23,24,25)         37.5922                                         !
 ! D73   D(29,23,24,36)       -145.3624                                         !
 ! D74   D(22,23,26,27)        -32.0244                                         !
 ! D75   D(22,23,26,30)         85.2698                                         !
 ! D76   D(22,23,26,31)       -154.5487                                         !
 ! D77   D(24,23,26,27)       -155.1398                                         !
 ! D78   D(24,23,26,30)        -37.8456                                         !
 ! D79   D(24,23,26,31)         82.3359                                         !
 ! D80   D(29,23,26,27)         86.7058                                         !
 ! D81   D(29,23,26,30)       -156.0                                            !
 ! D82   D(29,23,26,31)        -35.8185                                         !
 ! D83   D(23,24,36,37)       -177.163                                          !
 ! D84   D(23,24,36,47)         14.4649                                         !
 ! D85   D(25,24,36,37)         -0.1516                                         !
 ! D86   D(25,24,36,47)       -168.5236                                         !
 ! D87   D(23,26,27,28)         39.8898                                         !
 ! D88   D(23,26,27,32)        161.5384                                         !
 ! D89   D(23,26,27,33)        -77.381                                          !
 ! D90   D(30,26,27,28)        -77.2357                                         !
 ! D91   D(30,26,27,32)         44.4129                                         !
 ! D92   D(30,26,27,33)        165.4935                                         !
 ! D93   D(31,26,27,28)        160.7647                                         !
 ! D94   D(31,26,27,32)        -77.5866                                         !
 ! D95   D(31,26,27,33)         43.4939                                         !
 ! D96   D(26,27,28,22)        -32.3803                                         !
 ! D97   D(26,27,28,34)       -152.5562                                         !
 ! D98   D(26,27,28,35)         86.0727                                         !
 ! D99   D(32,27,28,22)       -154.5296                                         !
 ! D100  D(32,27,28,34)         85.2945                                         !
 ! D101  D(32,27,28,35)        -36.0765                                         !
 ! D102  D(33,27,28,22)         84.9347                                         !
 ! D103  D(33,27,28,34)        -35.2412                                         !
 ! D104  D(33,27,28,35)       -156.6123                                         !
 ! D105  D(24,36,37,38)        -68.9698                                         !
 ! D106  D(24,36,37,40)        162.1345                                         !
 ! D107  D(24,36,37,48)         44.3525                                         !
 ! D108  D(47,36,37,38)         99.2793                                         !
 ! D109  D(47,36,37,40)        -29.6165                                         !
 ! D110  D(47,36,37,48)       -147.3984                                         !
 ! D111  D(36,37,38,39)       -124.6402                                         !
 ! D112  D(36,37,38,45)         60.2537                                         !
 ! D113  D(40,37,38,39)          0.5934                                         !
 ! D114  D(40,37,38,45)       -174.5127                                         !
 ! D115  D(48,37,38,39)        121.0573                                         !
 ! D116  D(48,37,38,45)        -54.0487                                         !
 ! D117  D(36,37,40,41)        169.6664                                         !
 ! D118  D(36,37,40,49)         48.0687                                         !
 ! D119  D(36,37,40,50)        -66.2052                                         !
 ! D120  D(38,37,40,41)         42.7463                                         !
 ! D121  D(38,37,40,49)        -78.8515                                         !
 ! D122  D(38,37,40,50)        166.8746                                         !
 ! D123  D(48,37,40,41)        -74.8566                                         !
 ! D124  D(48,37,40,49)        163.5456                                         !
 ! D125  D(48,37,40,50)         49.2717                                         !
 ! D126  D(37,38,45,46)         -7.0315                                         !
 ! D127  D(39,38,45,46)        177.7408                                         !
 ! D128  D(37,40,41,42)         44.4322                                         !
 ! D129  D(37,40,41,51)        166.915                                          !
 ! D130  D(37,40,41,52)        -79.1063                                         !
 ! D131  D(49,40,41,42)        166.9485                                         !
 ! D132  D(49,40,41,51)        -70.5687                                         !
 ! D133  D(49,40,41,52)         43.4099                                         !
 ! D134  D(50,40,41,42)        -77.6241                                         !
 ! D135  D(50,40,41,51)         44.8587                                         !
 ! D136  D(50,40,41,52)        158.8374                                         !
 ! D137  D(40,41,42,43)       -147.0571                                         !
 ! D138  D(40,41,42,53)         92.8551                                         !
 ! D139  D(40,41,42,54)        -24.5575                                         !
 ! D140  D(51,41,42,43)         90.7928                                         !
 ! D141  D(51,41,42,53)        -29.295                                          !
 ! D142  D(51,41,42,54)       -146.7076                                         !
 ! D143  D(52,41,42,43)        -24.554                                          !
 ! D144  D(52,41,42,53)       -144.6418                                         !
 ! D145  D(52,41,42,54)         97.9456                                         !
 ! D146  D(41,42,43,44)         77.5722                                         !
 ! D147  D(41,42,43,55)       -163.1049                                         !
 ! D148  D(41,42,43,56)        -40.6315                                         !
 ! D149  D(53,42,43,44)       -160.5212                                         !
 ! D150  D(53,42,43,55)        -41.1984                                         !
 ! D151  D(53,42,43,56)         81.275                                          !
 ! D152  D(54,42,43,44)        -47.1439                                         !
 ! D153  D(54,42,43,55)         72.1789                                         !
 ! D154  D(54,42,43,56)       -165.3477                                         !
 ! D155  D(42,43,44,57)         82.2827                                         !
 ! D156  D(42,43,44,58)        -34.6101                                         !
 ! D157  D(42,43,44,59)       -157.8608                                         !
 ! D158  D(55,43,44,57)        -40.8054                                         !
 ! D159  D(55,43,44,58)       -157.6981                                         !
 ! D160  D(55,43,44,59)         79.0512                                         !
 ! D161  D(56,43,44,57)       -156.6444                                         !
 ! D162  D(56,43,44,58)         86.4629                                         !
 ! D163  D(56,43,44,59)        -36.7879                                         !
 --------------------------------------------------------------------------------
 Symmetry turned off by external request.
 Stoichiometry    C20H31N4O4(1+)
 Framework group  C1[X(C20H31N4O4)]
 Deg. of freedom   171
 Full point group                 C1      NOp   1
                          Input orientation:                          
 ---------------------------------------------------------------------
 Center     Atomic      Atomic             Coordinates (Angstroms)
 Number     Number       Type             X           Y           Z
 ---------------------------------------------------------------------
      1          7           0       -7.711842   20.312606    9.008424
      2          6           0       -6.933331   20.247522   10.236045
      3          6           0       -6.388633   18.827912   10.400742
      4          8           0       -6.703912   17.910170    9.647578
      5          6           0       -7.851466   20.608940   11.441429
      6          6           0       -8.349410   22.033918   11.363035
      7          6           0       -9.493484   22.357437   10.620404
      8          6           0       -7.640789   23.065612   11.992927
      9          6           0       -9.917306   23.682822   10.511797
     10          6           0       -8.062905   24.391391   11.886552
     11          6           0       -9.203943   24.703173   11.144543
     12          1           0       -6.075818   20.944082   10.251995
     13          1           0       -8.692471   19.905088   11.417069
     14          1           0       -7.313621   20.463619   12.384760
     15          1           0      -10.039776   21.564255   10.118184
     16          1           0       -6.752869   22.828452   12.576536
     17          1           0      -10.806974   23.918557    9.934114
     18          1           0       -7.504480   25.178817   12.385320
     19          1           0       -9.536309   25.734133   11.062390
     20          1           0       -7.313880   19.707320    8.295916
     21          1           0       -7.742435   21.265729    8.660290
     22          7           0       -5.574678   18.565978   11.484995
     23          6           0       -4.995300   17.216970   11.567278
     24          6           0       -6.034451   16.124431   11.751474
     25          8           0       -5.780651   14.948692   11.447389
     26          6           0       -4.011770   17.312314   12.751064
     27          6           0       -3.538535   18.771300   12.671735
     28          6           0       -4.823087   19.532596   12.314997
     29          1           0       -4.475359   16.967483   10.636180
     30          1           0       -4.541406   17.135034   13.695325
     31          1           0       -3.208223   16.578025   12.667924
     32          1           0       -3.086956   19.127987   13.601119
     33          1           0       -2.800899   18.884142   11.869366
     34          1           0       -4.634180   20.457754   11.765607
     35          1           0       -5.391533   19.787034   13.218262
     36          7           0       -7.214276   16.478737   12.314038
     37          6           0       -8.273289   15.515698   12.602130
     38          6           0       -8.920431   14.959583   11.309229
     39          8           0      -10.130236   15.017643   11.088196
     40          6           0       -9.248809   16.142186   13.616005
     41          6           0      -10.576175   15.404977   13.884171
     42          6           0      -10.498980   13.870378   14.076043
     43          6           0      -11.748134   13.161273   13.545666
     44          7           0      -11.698897   13.058826   12.024700
     45          8           0       -8.121774   14.324220   10.486674
     46          1           0       -7.158307   14.397930   10.785710
     47          1           0       -7.427123   17.466954   12.372954
     48          1           0       -7.777218   14.646006   13.056186
     49          1           0       -9.508587   17.152516   13.275511
     50          1           0       -8.685427   16.262514   14.548581
     51          1           0      -11.029668   15.844728   14.779356
     52          1           0      -11.252154   15.635527   13.058675
     53          1           0      -10.400454   13.617127   15.136756
     54          1           0       -9.617424   13.431473   13.591316
     55          1           0      -11.852197   12.141996   13.924055
     56          1           0      -12.655494   13.718327   13.791127
     57          1           0      -11.128749   12.258441   11.731978
     58          1           0      -11.232837   13.904281   11.587541
     59          1           0      -12.628450   12.935117   11.611421
 ---------------------------------------------------------------------
 Rotational constants (GHZ):           0.2209613           0.0944590           0.0766167
 Standard basis: 6-31G(d) (6D, 7F)
   482 basis functions,   908 primitive gaussians,   482 cartesian basis functions
   105 alpha electrons      105 beta electrons
       nuclear repulsion energy      2761.7834325821 Hartrees.
 NAtoms=   59 NActive=   59 NUniq=   59 SFac= 1.00D+00 NAtFMM=   60 NAOKFM=F Big=F
 Integral buffers will be    131072 words long.
 Raffenetti 2 integral format.
 Two-electron integral symmetry is turned off.
 Nuclear repulsion after empirical dispersion term =     2761.7130163596 Hartrees.
 One-electron integrals computed using PRISM.
 NBasis=   482 RedAO= T EigKep=  4.67D-04  NBF=   482
 NBsUse=   482 1.00D-06 EigRej= -1.00D+00 NBFU=   482
 Initial guess from the checkpoint file:  "conf-727.chk"
 B after Tr=     0.000000    0.000000    0.000000
         Rot=    1.000000    0.000000    0.000000    0.000000 Ang=   0.00 deg.
 Requested convergence on RMS density matrix=1.00D-08 within 128 cycles.
 Requested convergence on MAX density matrix=1.00D-06.
 Requested convergence on             energy=1.00D-06.
 No special actions if energy rises.
 SCF Done:  E(RB3LYP) =  -1300.59553170     A.U. after    1 cycles
            NFock=  1  Conv=0.89D-08     -V/T= 2.0095

 **********************************************************************

            Population analysis using the SCF Density.

 **********************************************************************

 Alpha  occ. eigenvalues --  -19.29817 -19.26510 -19.23971 -19.20822 -14.60141
 Alpha  occ. eigenvalues --  -14.48401 -14.46078 -14.38076 -10.44805 -10.40697
 Alpha  occ. eigenvalues --  -10.40219 -10.37515 -10.36854 -10.34119 -10.33130
 Alpha  occ. eigenvalues --  -10.32148 -10.31999 -10.31851 -10.30669 -10.29173
 Alpha  occ. eigenvalues --  -10.28627 -10.27051 -10.26098 -10.25248 -10.25034
 Alpha  occ. eigenvalues --  -10.24935 -10.24818 -10.24804  -1.22155  -1.15953
 Alpha  occ. eigenvalues --   -1.14878  -1.13233  -1.12899  -1.05213  -1.03580
 Alpha  occ. eigenvalues --   -0.96174  -0.94832  -0.91484  -0.90511  -0.89137
 Alpha  occ. eigenvalues --   -0.86097  -0.84467  -0.83510  -0.80398  -0.79114
 Alpha  occ. eigenvalues --   -0.78956  -0.75490  -0.74630  -0.73795  -0.72595
 Alpha  occ. eigenvalues --   -0.71667  -0.71151  -0.70369  -0.68921  -0.66730
 Alpha  occ. eigenvalues --   -0.66601  -0.65561  -0.64640  -0.64224  -0.62446
 Alpha  occ. eigenvalues --   -0.60265  -0.60026  -0.59451  -0.59233  -0.57479
 Alpha  occ. eigenvalues --   -0.57165  -0.56993  -0.55688  -0.55449  -0.54779
 Alpha  occ. eigenvalues --   -0.54396  -0.53453  -0.53108  -0.52945  -0.51850
 Alpha  occ. eigenvalues --   -0.51715  -0.51427  -0.50810  -0.50247  -0.50067
 Alpha  occ. eigenvalues --   -0.49300  -0.48551  -0.47972  -0.47842  -0.47167
 Alpha  occ. eigenvalues --   -0.46828  -0.46521  -0.46295  -0.45343  -0.44813
 Alpha  occ. eigenvalues --   -0.44488  -0.44306  -0.43549  -0.43417  -0.41545
 Alpha  occ. eigenvalues --   -0.41047  -0.40277  -0.40010  -0.37995  -0.37211
 Alpha  occ. eigenvalues --   -0.34667  -0.33857  -0.31178  -0.30887  -0.29997
 Alpha virt. eigenvalues --   -0.13120  -0.11342  -0.09816  -0.07688  -0.06406
 Alpha virt. eigenvalues --   -0.06277  -0.06133  -0.04626  -0.03253  -0.02563
 Alpha virt. eigenvalues --   -0.02041  -0.01252  -0.00146   0.00856   0.01415
 Alpha virt. eigenvalues --    0.01611   0.01810   0.02525   0.03397   0.03738
 Alpha virt. eigenvalues --    0.04071   0.04293   0.04814   0.05334   0.05687
 Alpha virt. eigenvalues --    0.06763   0.07470   0.07632   0.08188   0.08309
 Alpha virt. eigenvalues --    0.08749   0.09127   0.09711   0.09734   0.10089
 Alpha virt. eigenvalues --    0.10513   0.10705   0.11143   0.11459   0.12686
 Alpha virt. eigenvalues --    0.12767   0.13306   0.13490   0.14311   0.14507
 Alpha virt. eigenvalues --    0.15056   0.15629   0.15872   0.17058   0.18339
 Alpha virt. eigenvalues --    0.18946   0.19385   0.20864   0.21771   0.23932
 Alpha virt. eigenvalues --    0.24728   0.25236   0.26223   0.27311   0.27848
 Alpha virt. eigenvalues --    0.28336   0.28880   0.31094   0.32052   0.35705
 Alpha virt. eigenvalues --    0.36640   0.37755   0.38154   0.38842   0.40401
 Alpha virt. eigenvalues --    0.41886   0.42005   0.42644   0.43212   0.43964
 Alpha virt. eigenvalues --    0.44362   0.45515   0.45858   0.46511   0.47159
 Alpha virt. eigenvalues --    0.47882   0.48004   0.48665   0.48999   0.49666
 Alpha virt. eigenvalues --    0.50081   0.50432   0.51535   0.51664   0.52321
 Alpha virt. eigenvalues --    0.53063   0.53285   0.53510   0.53825   0.54046
 Alpha virt. eigenvalues --    0.54553   0.54651   0.54945   0.55560   0.56073
 Alpha virt. eigenvalues --    0.56239   0.56390   0.57018   0.58211   0.58641
 Alpha virt. eigenvalues --    0.59191   0.60047   0.60243   0.61146   0.61364
 Alpha virt. eigenvalues --    0.62884   0.64059   0.65123   0.65356   0.65778
 Alpha virt. eigenvalues --    0.66384   0.67302   0.68460   0.69064   0.69888
 Alpha virt. eigenvalues --    0.70469   0.70905   0.71936   0.72480   0.72708
 Alpha virt. eigenvalues --    0.73047   0.74596   0.75114   0.75568   0.75628
 Alpha virt. eigenvalues --    0.76290   0.76671   0.76911   0.77091   0.77518
 Alpha virt. eigenvalues --    0.77918   0.78415   0.78587   0.78687   0.78951
 Alpha virt. eigenvalues --    0.79562   0.79971   0.80422   0.81616   0.81788
 Alpha virt. eigenvalues --    0.82488   0.83218   0.83591   0.84084   0.84641
 Alpha virt. eigenvalues --    0.85612   0.86016   0.86292   0.86717   0.87752
 Alpha virt. eigenvalues --    0.87949   0.89005   0.89434   0.89650   0.91230
 Alpha virt. eigenvalues --    0.91795   0.92148   0.92728   0.94840   0.95499
 Alpha virt. eigenvalues --    0.96206   0.97491   0.98255   0.98589   0.99999
 Alpha virt. eigenvalues --    1.00183   1.01480   1.03260   1.04110   1.04842
 Alpha virt. eigenvalues --    1.06487   1.07808   1.08737   1.09298   1.10924
 Alpha virt. eigenvalues --    1.11642   1.11982   1.13621   1.13816   1.16412
 Alpha virt. eigenvalues --    1.17625   1.20125   1.21197   1.21870   1.23644
 Alpha virt. eigenvalues --    1.24236   1.25165   1.25885   1.27484   1.28594
 Alpha virt. eigenvalues --    1.29543   1.30433   1.31888   1.34096   1.34442
 Alpha virt. eigenvalues --    1.35006   1.35725   1.36715   1.37344   1.38287
 Alpha virt. eigenvalues --    1.39220   1.41486   1.42267   1.43394   1.44814
 Alpha virt. eigenvalues --    1.45294   1.47216   1.47827   1.48495   1.49679
 Alpha virt. eigenvalues --    1.52259   1.52818   1.53828   1.54920   1.55394
 Alpha virt. eigenvalues --    1.56790   1.59204   1.60590   1.62332   1.62611
 Alpha virt. eigenvalues --    1.64487   1.65137   1.66563   1.67399   1.67516
 Alpha virt. eigenvalues --    1.68958   1.69811   1.69969   1.71008   1.71869
 Alpha virt. eigenvalues --    1.73122   1.73603   1.74180   1.74447   1.75495
 Alpha virt. eigenvalues --    1.75724   1.76056   1.76795   1.77316   1.77683
 Alpha virt. eigenvalues --    1.78655   1.80680   1.81217   1.82332   1.82657
 Alpha virt. eigenvalues --    1.83194   1.83428   1.84519   1.85545   1.85931
 Alpha virt. eigenvalues --    1.86579   1.87584   1.87892   1.89460   1.90263
 Alpha virt. eigenvalues --    1.90890   1.91747   1.93060   1.93543   1.94425
 Alpha virt. eigenvalues --    1.95365   1.96056   1.96495   1.97325   1.98275
 Alpha virt. eigenvalues --    1.98848   1.99424   2.00222   2.00508   2.01326
 Alpha virt. eigenvalues --    2.03900   2.05155   2.05981   2.08206   2.08383
 Alpha virt. eigenvalues --    2.08846   2.09585   2.10859   2.12433   2.14786
 Alpha virt. eigenvalues --    2.15591   2.15943   2.17729   2.19247   2.20591
 Alpha virt. eigenvalues --    2.20618   2.21160   2.21438   2.23479   2.24669
 Alpha virt. eigenvalues --    2.24867   2.27821   2.28535   2.29099   2.30675
 Alpha virt. eigenvalues --    2.31598   2.31696   2.33687   2.34334   2.34914
 Alpha virt. eigenvalues --    2.37518   2.38715   2.39361   2.39938   2.41503
 Alpha virt. eigenvalues --    2.44092   2.44270   2.47323   2.48202   2.48625
 Alpha virt. eigenvalues --    2.48883   2.50630   2.51998   2.52445   2.52636
 Alpha virt. eigenvalues --    2.53992   2.54839   2.56591   2.58599   2.58958
 Alpha virt. eigenvalues --    2.60108   2.61361   2.63538   2.64859   2.66742
 Alpha virt. eigenvalues --    2.67904   2.68914   2.69672   2.71069   2.71968
 Alpha virt. eigenvalues --    2.74882   2.76888   2.78809   2.85281   2.86590
 Alpha virt. eigenvalues --    2.88657   2.90953   2.94340   2.97243   2.97746
 Alpha virt. eigenvalues --    2.99358   3.07457   3.11922   3.34917   3.65086
 Alpha virt. eigenvalues --    3.74754   3.84475   3.89527   3.95645   4.01301
 Alpha virt. eigenvalues --    4.03208   4.03475   4.06006   4.07653   4.10165
 Alpha virt. eigenvalues --    4.11669   4.16319   4.17094   4.20600   4.24997
 Alpha virt. eigenvalues --    4.27013   4.27774   4.29008   4.35259   4.38375
 Alpha virt. eigenvalues --    4.39748   4.44704   4.46257   4.53819   4.55794
 Alpha virt. eigenvalues --    4.65583   4.69551
          Condensed to atoms (all electrons):
 Mulliken charges:
               1
     1  N   -0.728350
     2  C   -0.045819
     3  C    0.568900
     4  O   -0.510183
     5  C   -0.350053
     6  C    0.152659
     7  C   -0.178372
     8  C   -0.184303
     9  C   -0.131718
    10  C   -0.127837
    11  C   -0.127795
    12  H    0.143310
    13  H    0.147740
    14  H    0.135988
    15  H    0.145691
    16  H    0.115365
    17  H    0.141437
    18  H    0.140885
    19  H    0.143704
    20  H    0.326379
    21  H    0.316821
    22  N   -0.499324
    23  C   -0.004086
    24  C    0.646908
    25  O   -0.574703
    26  C   -0.306214
    27  C   -0.301034
    28  C   -0.133314
    29  H    0.200167
    30  H    0.154115
    31  H    0.189657
    32  H    0.173900
    33  H    0.173245
    34  H    0.179537
    35  H    0.162744
    36  N   -0.601128
    37  C   -0.076309
    38  C    0.638500
    39  O   -0.530054
    40  C   -0.298270
    41  C   -0.287507
    42  C   -0.296779
    43  C   -0.195870
    44  N   -0.769764
    45  O   -0.549005
    46  H    0.472898
    47  H    0.362933
    48  H    0.193690
    49  H    0.172362
    50  H    0.175501
    51  H    0.174960
    52  H    0.169256
    53  H    0.200943
    54  H    0.157651
    55  H    0.215080
    56  H    0.220844
    57  H    0.412455
    58  H    0.466450
    59  H    0.415116
 Sum of Mulliken charges =   1.00000
 Mulliken charges with hydrogens summed into heavy atoms:
               1
     1  N   -0.085150
     2  C    0.097491
     3  C    0.568900
     4  O   -0.510183
     5  C   -0.066325
     6  C    0.152659
     7  C   -0.032682
     8  C   -0.068938
     9  C    0.009719
    10  C    0.013049
    11  C    0.015909
    22  N   -0.499324
    23  C    0.196081
    24  C    0.646908
    25  O   -0.574703
    26  C    0.037558
    27  C    0.046111
    28  C    0.208966
    36  N   -0.238194
    37  C    0.117381
    38  C    0.638500
    39  O   -0.530054
    40  C    0.049592
    41  C    0.056708
    42  C    0.061815
    43  C    0.240055
    44  N    0.524257
    45  O   -0.076107
 Electronic spatial extent (au):  <R**2>=         406826.2587
 Charge=              1.0000 electrons
 Dipole moment (field-independent basis, Debye):
    X=            -46.2065    Y=             73.6343    Z=             63.2545  Tot=            107.5090
 Quadrupole moment (field-independent basis, Debye-Ang):
   XX=            339.1265   YY=           1036.0950   ZZ=            667.9318
   XY=           -656.2013   XZ=           -604.6561   YZ=            963.0897
 Traceless Quadrupole moment (field-independent basis, Debye-Ang):
   XX=           -341.9246   YY=            355.0438   ZZ=            -13.1193
   XY=           -656.2013   XZ=           -604.6561   YZ=            963.0897
 Octapole moment (field-independent basis, Debye-Ang**2):
  XXX=          -1932.5617  YYY=          11977.5845  ZZZ=           5161.5926  XYY=          -8566.4456
  XXY=           3866.0937  XXZ=           4578.6852  XZZ=          -6623.9360  YZZ=           9632.4090
  YYZ=          13548.7045  XYZ=          -8567.1808
 Hexadecapole moment (field-independent basis, Debye-Ang**3):
 XXXX=           2803.6402 YYYY=          53460.5290 ZZZZ=           6535.9902 XXXY=          -7861.9072
 XXXZ=         -28412.5190 YYYX=         -89984.2722 YYYZ=         160092.9547 ZZZX=         -58047.8948
 ZZZY=          61276.4018 XXYY=          30233.8956 XXZZ=          50393.8664 YYZZ=         121545.6917
 XXYZ=          53763.0775 YYXZ=        -111997.9192 ZZXY=         -88871.2906
 N-N= 2.761713016360D+03 E-N=-8.527642660952D+03  KE= 1.288353119743D+03
 Unable to Open any file for archive entry.
 1\1\GINC-SKL-140\SP\RB3LYP\6-31G(d)\C20H31N4O4(1+)\KENGMITH\25-May-202
 2\0\\# B3LYP/6-31G* empiricaldispersion=gd3 guess=read geom=check nosy
 mm integral(ultrafinegrid)\\Candidate Structure: Conf:727 Charge calc 
 in gas phase\\1,1\N,0,-7.7118420201,20.3126061577,9.0084239612\C,0,-6.
 9333310696,20.2475221881,10.2360446977\C,0,-6.3886325981,18.827912313,
 10.4007422479\O,0,-6.7039124653,17.910169909,9.6475779295\C,0,-7.85146
 59696,20.608939602,11.4414286805\C,0,-8.3494095072,22.0339183146,11.36
 30353166\C,0,-9.4934844995,22.3574368175,10.6204042145\C,0,-7.64078932
 49,23.0656123679,11.9929268906\C,0,-9.9173064146,23.6828219783,10.5117
 965901\C,0,-8.0629049798,24.3913906728,11.8865515929\C,0,-9.2039429271
 ,24.7031725383,11.1445427028\H,0,-6.075817575,20.9440816986,10.2519947
 745\H,0,-8.6924708909,19.9050875532,11.4170692973\H,0,-7.3136206308,20
 .4636190453,12.3847599197\H,0,-10.039775984,21.5642551861,10.118183840
 4\H,0,-6.7528687231,22.8284517287,12.5765361597\H,0,-10.8069743946,23.
 918556962,9.9341137823\H,0,-7.5044801807,25.1788171284,12.3853197331\H
 ,0,-9.5363093215,25.7341333454,11.0623903264\H,0,-7.3138804445,19.7073
 200476,8.2959163681\H,0,-7.7424345929,21.2657294033,8.6602901349\N,0,-
 5.5746781571,18.5659777288,11.4849950647\C,0,-4.9953004681,17.21696978
 45,11.5672778703\C,0,-6.0344507095,16.1244313339,11.7514739877\O,0,-5.
 7806506456,14.9486922845,11.4473893333\C,0,-4.0117697241,17.3123136744
 ,12.7510638544\C,0,-3.5385351406,18.7712996185,12.6717351383\C,0,-4.82
 30874014,19.5325958911,12.3149970359\H,0,-4.4753594122,16.9674827698,1
 0.6361801414\H,0,-4.5414061463,17.1350340194,13.6953254005\H,0,-3.2082
 233169,16.5780250352,12.6679238515\H,0,-3.0869564068,19.1279865199,13.
 6011190576\H,0,-2.8008986142,18.8841418649,11.8693662949\H,0,-4.634179
 8105,20.4577537678,11.7656066167\H,0,-5.3915329398,19.7870336247,13.21
 82617182\N,0,-7.2142756939,16.4787366718,12.314038042\C,0,-8.273288574
 6,15.5156983507,12.6021302587\C,0,-8.9204310854,14.9595833839,11.30922
 86203\O,0,-10.1302363768,15.0176429438,11.0881956433\C,0,-9.2488089635
 ,16.1421862983,13.6160054713\C,0,-10.5761748342,15.4049766901,13.88417
 08575\C,0,-10.4989800569,13.8703780652,14.076042781\C,0,-11.7481344755
 ,13.1612733724,13.5456658139\N,0,-11.6988974119,13.0588264094,12.02469
 99703\O,0,-8.1217741135,14.3242198511,10.4866736457\H,0,-7.1583068768,
 14.3979302043,10.7857100153\H,0,-7.4271228972,17.4669535979,12.3729535
 562\H,0,-7.7772180317,14.6460059209,13.0561858964\H,0,-9.508586518,17.
 1525156653,13.2755112859\H,0,-8.6854266477,16.2625144959,14.5485808523
 \H,0,-11.0296683406,15.8447280301,14.7793557459\H,0,-11.2521537018,15.
 6355273266,13.0586746633\H,0,-10.4004541641,13.6171273587,15.136756336
 9\H,0,-9.6174240941,13.4314732296,13.591315751\H,0,-11.8521972897,12.1
 41996061,13.9240548274\H,0,-12.6554936526,13.7183269489,13.791126919\H
 ,0,-11.1287486013,12.25844093,11.7319782565\H,0,-11.2328373317,13.9042
 812629,11.5875412552\H,0,-12.6284503595,12.935116596,11.6114209588\\Ve
 rsion=ES64L-G16RevC.01\HF=-1300.5955317\RMSD=8.934e-09\Dipole=-3.28851
 33,-5.044763,2.754968\Quadrupole=-254.212539,263.9663962,-9.7538572,-4
 87.8695951,-449.5470196,716.0335619\PG=C01 [X(C20H31N4O4)]\\@
 The archive entry for this job was punched.


 SIGN SEEN IN A RESTAURANT-
 WE RESERVE THE RIGHT TO SERVE REFUSE TO ANYONE.
 Job cpu time:       0 days  0 hours  0 minutes 59.8 seconds.
 Elapsed time:       0 days  0 hours  0 minutes 15.4 seconds.
 File lengths (MBytes):  RWF=    240 Int=      0 D2E=      0 Chk=     32 Scr=     16
 Normal termination of Gaussian 16 at Wed May 25 08:34:58 2022.
