 Entering Gaussian System, Link 0=/opt/software/Gaussian/g16-AVX2-C.01/g16/g16
 Input=charge-conf-555.com
 Output=charge-conf-555.log
 Initial command:
 /opt/software/Gaussian/g16-AVX2-C.01/g16/l1.exe "/mnt/gs18/scratch/users/kengmith/Gau-5816.inp" -scrdir="/mnt/gs18/scratch/users/kengmith/"
 Entering Link 1 = /opt/software/Gaussian/g16-AVX2-C.01/g16/l1.exe PID=      5826.
  
 Copyright (c) 1988-2019, Gaussian, Inc.  All Rights Reserved.
  
 This is part of the Gaussian(R) 16 program.  It is based on
 the Gaussian(R) 09 system (copyright 2009, Gaussian, Inc.),
 the Gaussian(R) 03 system (copyright 2003, Gaussian, Inc.),
 the Gaussian(R) 98 system (copyright 1998, Gaussian, Inc.),
 the Gaussian(R) 94 system (copyright 1995, Gaussian, Inc.),
 the Gaussian 92(TM) system (copyright 1992, Gaussian, Inc.),
 the Gaussian 90(TM) system (copyright 1990, Gaussian, Inc.),
 the Gaussian 88(TM) system (copyright 1988, Gaussian, Inc.),
 the Gaussian 86(TM) system (copyright 1986, Carnegie Mellon
 University), and the Gaussian 82(TM) system (copyright 1983,
 Carnegie Mellon University). Gaussian is a federally registered
 trademark of Gaussian, Inc.
  
 This software contains proprietary and confidential information,
 including trade secrets, belonging to Gaussian, Inc.
  
 This software is provided under written license and may be
 used, copied, transmitted, or stored only in accord with that
 written license.
  
 The following legend is applicable only to US Government
 contracts under FAR:
  
                    RESTRICTED RIGHTS LEGEND
  
 Use, reproduction and disclosure by the US Government is
 subject to restrictions as set forth in subparagraphs (a)
 and (c) of the Commercial Computer Software - Restricted
 Rights clause in FAR 52.227-19.
  
 Gaussian, Inc.
 340 Quinnipiac St., Bldg. 40, Wallingford CT 06492
  
  
 ---------------------------------------------------------------
 Warning -- This program may not be used in any manner that
 competes with the business of Gaussian, Inc. or will provide
 assistance to any competitor of Gaussian, Inc.  The licensee
 of this program is prohibited from giving any competitor of
 Gaussian, Inc. access to this program.  By using this program,
 the user acknowledges that Gaussian, Inc. is engaged in the
 business of creating and licensing software in the field of
 computational chemistry and represents and warrants to the
 licensee that it is not a competitor of Gaussian, Inc. and that
 it will not use this program in any manner prohibited above.
 ---------------------------------------------------------------
  

 Cite this work as:
 Gaussian 16, Revision C.01,
 M. J. Frisch, G. W. Trucks, H. B. Schlegel, G. E. Scuseria, 
 M. A. Robb, J. R. Cheeseman, G. Scalmani, V. Barone, 
 G. A. Petersson, H. Nakatsuji, X. Li, M. Caricato, A. V. Marenich, 
 J. Bloino, B. G. Janesko, R. Gomperts, B. Mennucci, H. P. Hratchian, 
 J. V. Ortiz, A. F. Izmaylov, J. L. Sonnenberg, D. Williams-Young, 
 F. Ding, F. Lipparini, F. Egidi, J. Goings, B. Peng, A. Petrone, 
 T. Henderson, D. Ranasinghe, V. G. Zakrzewski, J. Gao, N. Rega, 
 G. Zheng, W. Liang, M. Hada, M. Ehara, K. Toyota, R. Fukuda, 
 J. Hasegawa, M. Ishida, T. Nakajima, Y. Honda, O. Kitao, H. Nakai, 
 T. Vreven, K. Throssell, J. A. Montgomery, Jr., J. E. Peralta, 
 F. Ogliaro, M. J. Bearpark, J. J. Heyd, E. N. Brothers, K. N. Kudin, 
 V. N. Staroverov, T. A. Keith, R. Kobayashi, J. Normand, 
 K. Raghavachari, A. P. Rendell, J. C. Burant, S. S. Iyengar, 
 J. Tomasi, M. Cossi, J. M. Millam, M. Klene, C. Adamo, R. Cammi, 
 J. W. Ochterski, R. L. Martin, K. Morokuma, O. Farkas, 
 J. B. Foresman, and D. J. Fox, Gaussian, Inc., Wallingford CT, 2019.
 
 ******************************************
 Gaussian 16:  ES64L-G16RevC.01  3-Jul-2019
                25-May-2022 
 ******************************************
 %mem=8gb
 %nproc=4
 Will use up to    4 processors via shared memory.
 %chk=conf-555.chk
 ----------------------------------------------------------------------
 # B3LYP/6-31G* empiricaldispersion=gd3 guess=read geom=check nosymm in
 tegral(ultrafinegrid)
 ----------------------------------------------------------------------
 1/29=2,38=1,172=1/1;
 2/12=2,15=1,40=1/2;
 3/5=1,6=6,7=1,11=2,14=-4,25=1,30=1,74=-5,75=-5,116=-2,124=31/1,2,3;
 4/5=1/1;
 5/5=2,38=6/2;
 6/7=2,8=2,9=2,10=2,28=1/1;
 99/5=1,9=1/99;
 ------------------------------------------------------
 Candidate Structure: Conf:555 Charge calc in gas phase
 ------------------------------------------------------
 Structure from the checkpoint file:  "conf-555.chk"
 Charge =  1 Multiplicity = 1
 Redundant internal coordinates found in file.  (old form).
 N,0,-9.5312996742,19.2912356482,12.6133215234
 C,0,-8.5466147722,19.9428974143,11.7065756838
 C,0,-8.2678858805,18.9067037304,10.5915843294
 O,0,-9.0958027146,18.0011159947,10.4144652583
 C,0,-7.3191875145,20.4333878314,12.5212203544
 C,0,-7.7148130558,21.1021243907,13.8219533112
 C,0,-7.6592382472,20.3907350294,15.0293561875
 C,0,-8.1779645951,22.4253407454,13.8321066184
 C,0,-8.0535139075,20.99705988,16.2240400195
 C,0,-8.5737827513,23.0301668677,15.0255636748
 C,0,-8.5116575334,22.31604175,16.2247734352
 H,0,-9.0100818631,20.8195774469,11.227605249
 H,0,-6.6608335425,19.5875402402,12.7258438177
 H,0,-6.7688466551,21.1518226445,11.91069636
 H,0,-7.3023566347,19.3640870107,15.0226972302
 H,0,-8.2162767307,22.9900371677,12.9022782082
 H,0,-7.9969288493,20.4399497393,17.1550314976
 H,0,-8.9220690966,24.0591080601,15.0210239327
 H,0,-8.8140821118,22.7879549218,17.1551245032
 H,0,-10.4021316392,19.1442070974,12.1053764173
 H,0,-9.7172331216,19.9158989917,13.398300658
 N,0,-7.1277446139,18.9375944319,9.8514231841
 C,0,-6.8819241781,17.8249915968,8.8971366529
 C,0,-7.0591544427,16.4790451274,9.6077114856
 O,0,-7.8364051892,15.6263113021,9.1737332807
 C,0,-5.4801962994,18.1371493787,8.3490912036
 C,0,-5.448946162,19.6724353631,8.3596853292
 C,0,-6.1352314871,20.0245213274,9.686528146
 H,0,-7.6366123292,17.836724412,8.1053268904
 H,0,-4.7077383511,17.7339868326,9.0155441847
 H,0,-5.3284857726,17.7008895752,7.3594792759
 H,0,-4.4383508596,20.0836248162,8.2987450283
 H,0,-6.0288726019,20.0669500446,7.5181065928
 H,0,-6.6290325748,20.9991970837,9.6634327763
 H,0,-5.4164838882,20.0165791437,10.5127556527
 N,0,-6.3820306477,16.3163425033,10.7929857538
 C,0,-7.1295618514,15.6150022885,11.8427196281
 C,0,-7.5530344343,16.6858576748,12.8517471461
 O,0,-6.7426396197,17.4202057478,13.3830472328
 C,0,-6.5916213887,14.3248749692,12.4557446986
 C,0,-7.8145482571,13.4760119518,12.8761094097
 C,0,-8.7562652007,13.0925775946,11.6910439947
 C,0,-10.1201845821,13.79955256,11.5486514136
 N,0,-10.0994482059,15.2087204557,10.9671828631
 O,0,-8.8806125654,16.8045239388,12.9851980577
 H,0,-9.1321418155,17.850521183,13.035553037
 H,0,-5.824258759,17.0983241244,11.1199340035
 H,0,-8.0001018579,15.2974320313,11.3083253949
 H,0,-5.9306978925,14.5165757097,13.3073125853
 H,0,-6.0108074426,13.791778233,11.694849077
 H,0,-7.4565421977,12.5559805009,13.3475656687
 H,0,-8.3852527388,14.0077589263,13.6500095356
 H,0,-9.0289113382,12.0370814636,11.8025498409
 H,0,-8.2208957791,13.156165124,10.7347749094
 H,0,-10.7524465926,13.2192284007,10.8726312186
 H,0,-10.6298650229,13.8812851134,12.5123757581
 H,0,-9.7717928182,15.9162192324,11.66617861
 H,0,-11.0362155136,15.4904318307,10.6644762086
 H,0,-9.463106848,15.3003971641,10.1470178614
 Recover connectivity data from disk.
                           ----------------------------
                           !    Current Parameters    !
                           ! (Angstroms and Degrees)  !
 --------------------------                            --------------------------
 ! Name  Definition              Value                                          !
 --------------------------------------------------------------------------------
 ! R1    R(1,2)                  1.4888                                         !
 ! R2    R(1,20)                 1.0188                                         !
 ! R3    R(1,21)                 1.0203                                         !
 ! R4    R(2,3)                  1.5474                                         !
 ! R5    R(2,5)                  1.5527                                         !
 ! R6    R(2,12)                 1.1013                                         !
 ! R7    R(3,4)                  1.2397                                         !
 ! R8    R(3,22)                 1.3597                                         !
 ! R9    R(5,6)                  1.5151                                         !
 ! R10   R(5,13)                 1.0912                                         !
 ! R11   R(5,14)                 1.0917                                         !
 ! R12   R(6,7)                  1.4025                                         !
 ! R13   R(6,8)                  1.402                                          !
 ! R14   R(7,9)                  1.3966                                         !
 ! R15   R(7,15)                 1.0869                                         !
 ! R16   R(8,10)                 1.3953                                         !
 ! R17   R(8,16)                 1.0885                                         !
 ! R18   R(9,11)                 1.3963                                         !
 ! R19   R(9,17)                 1.0864                                         !
 ! R20   R(10,11)                1.3971                                         !
 ! R21   R(10,18)                1.0863                                         !
 ! R22   R(11,19)                1.0861                                         !
 ! R23   R(22,23)                1.4863                                         !
 ! R24   R(22,28)                1.4811                                         !
 ! R25   R(23,24)                1.5323                                         !
 ! R26   R(23,26)                1.5371                                         !
 ! R27   R(23,29)                1.0939                                         !
 ! R28   R(24,25)                1.2327                                         !
 ! R29   R(24,36)                1.3747                                         !
 ! R30   R(26,27)                1.5356                                         !
 ! R31   R(26,30)                1.097                                          !
 ! R32   R(26,31)                1.0921                                         !
 ! R33   R(27,28)                1.5348                                         !
 ! R34   R(27,32)                1.0927                                         !
 ! R35   R(27,33)                1.0955                                         !
 ! R36   R(28,34)                1.0929                                         !
 ! R37   R(28,35)                1.0951                                         !
 ! R38   R(36,37)                1.4672                                         !
 ! R39   R(36,47)                1.0146                                         !
 ! R40   R(37,38)                1.5311                                         !
 ! R41   R(37,40)                1.5263                                         !
 ! R42   R(37,48)                1.0697                                         !
 ! R43   R(38,39)                1.2158                                         !
 ! R44   R(38,45)                1.3395                                         !
 ! R45   R(40,41)                1.5469                                         !
 ! R46   R(40,49)                1.0949                                         !
 ! R47   R(40,50)                1.0957                                         !
 ! R48   R(41,42)                1.5615                                         !
 ! R49   R(41,51)                1.094                                          !
 ! R50   R(41,52)                1.0988                                         !
 ! R51   R(42,43)                1.5428                                         !
 ! R52   R(42,53)                1.0958                                         !
 ! R53   R(42,54)                1.0978                                         !
 ! R54   R(43,44)                1.5246                                         !
 ! R55   R(43,55)                1.0925                                         !
 ! R56   R(43,56)                1.0933                                         !
 ! R57   R(44,57)                1.0471                                         !
 ! R58   R(44,58)                1.024                                          !
 ! R59   R(44,59)                1.0421                                         !
 ! R60   R(45,46)                1.077                                          !
 ! A1    A(2,1,20)             108.9567                                         !
 ! A2    A(2,1,21)             108.7316                                         !
 ! A3    A(20,1,21)            108.4317                                         !
 ! A4    A(1,2,3)              105.3597                                         !
 ! A5    A(1,2,5)              109.973                                          !
 ! A6    A(1,2,12)             109.5722                                         !
 ! A7    A(3,2,5)              116.5632                                         !
 ! A8    A(3,2,12)             107.1864                                         !
 ! A9    A(5,2,12)             108.0236                                         !
 ! A10   A(2,3,4)              118.1507                                         !
 ! A11   A(2,3,22)             121.8746                                         !
 ! A12   A(4,3,22)             119.922                                          !
 ! A13   A(2,5,6)              112.5468                                         !
 ! A14   A(2,5,13)             109.2965                                         !
 ! A15   A(2,5,14)             108.2396                                         !
 ! A16   A(6,5,13)             109.7963                                         !
 ! A17   A(6,5,14)             108.7405                                         !
 ! A18   A(13,5,14)            108.11                                           !
 ! A19   A(5,6,7)              120.3214                                         !
 ! A20   A(5,6,8)              120.6011                                         !
 ! A21   A(7,6,8)              119.0515                                         !
 ! A22   A(6,7,9)              120.3348                                         !
 ! A23   A(6,7,15)             119.1329                                         !
 ! A24   A(9,7,15)             120.5319                                         !
 ! A25   A(6,8,10)             120.5999                                         !
 ! A26   A(6,8,16)             119.6739                                         !
 ! A27   A(10,8,16)            119.721                                          !
 ! A28   A(7,9,11)             120.2124                                         !
 ! A29   A(7,9,17)             119.7177                                         !
 ! A30   A(11,9,17)            120.069                                          !
 ! A31   A(8,10,11)            120.0001                                         !
 ! A32   A(8,10,18)            119.8657                                         !
 ! A33   A(11,10,18)           120.1322                                         !
 ! A34   A(9,11,10)            119.8006                                         !
 ! A35   A(9,11,19)            120.1483                                         !
 ! A36   A(10,11,19)           120.0504                                         !
 ! A37   A(3,22,23)            118.1125                                         !
 ! A38   A(3,22,28)            129.7319                                         !
 ! A39   A(23,22,28)           111.5335                                         !
 ! A40   A(22,23,24)           109.918                                          !
 ! A41   A(22,23,26)           103.1636                                         !
 ! A42   A(22,23,29)           110.0363                                         !
 ! A43   A(24,23,26)           116.693                                          !
 ! A44   A(24,23,29)           105.3842                                         !
 ! A45   A(26,23,29)           111.6468                                         !
 ! A46   A(23,24,25)           121.151                                          !
 ! A47   A(23,24,36)           116.5399                                         !
 ! A48   A(25,24,36)           122.156                                          !
 ! A49   A(23,26,27)           102.6582                                         !
 ! A50   A(23,26,30)           110.5424                                         !
 ! A51   A(23,26,31)           111.6322                                         !
 ! A52   A(27,26,30)           110.4207                                         !
 ! A53   A(27,26,31)           113.7535                                         !
 ! A54   A(30,26,31)           107.8114                                         !
 ! A55   A(26,27,28)           103.0747                                         !
 ! A56   A(26,27,32)           113.2434                                         !
 ! A57   A(26,27,33)           110.118                                          !
 ! A58   A(28,27,32)           112.0512                                         !
 ! A59   A(28,27,33)           110.1697                                         !
 ! A60   A(32,27,33)           108.1322                                         !
 ! A61   A(22,28,27)           103.1527                                         !
 ! A62   A(22,28,34)           110.736                                          !
 ! A63   A(22,28,35)           110.5171                                         !
 ! A64   A(27,28,34)           112.8534                                         !
 ! A65   A(27,28,35)           110.9227                                         !
 ! A66   A(34,28,35)           108.6                                            !
 ! A67   A(24,36,37)           114.9924                                         !
 ! A68   A(24,36,47)           117.2181                                         !
 ! A69   A(37,36,47)           114.7048                                         !
 ! A70   A(36,37,38)           106.1474                                         !
 ! A71   A(36,37,40)           120.7867                                         !
 ! A72   A(36,37,48)           101.4855                                         !
 ! A73   A(38,37,40)           115.0858                                         !
 ! A74   A(38,37,48)           108.1668                                         !
 ! A75   A(40,37,48)           103.6821                                         !
 ! A76   A(37,38,39)           121.7399                                         !
 ! A77   A(37,38,45)           113.6864                                         !
 ! A78   A(39,38,45)           124.3008                                         !
 ! A79   A(37,40,41)           107.1189                                         !
 ! A80   A(37,40,49)           112.1571                                         !
 ! A81   A(37,40,50)           108.6127                                         !
 ! A82   A(41,40,49)           111.2204                                         !
 ! A83   A(41,40,50)           109.9259                                         !
 ! A84   A(49,40,50)           107.7778                                         !
 ! A85   A(40,41,42)           113.91                                           !
 ! A86   A(40,41,51)           108.656                                          !
 ! A87   A(40,41,52)           109.6607                                         !
 ! A88   A(42,41,51)           108.5361                                         !
 ! A89   A(42,41,52)           109.8843                                         !
 ! A90   A(51,41,52)           105.8676                                         !
 ! A91   A(41,42,43)           119.3848                                         !
 ! A92   A(41,42,53)           108.0198                                         !
 ! A93   A(41,42,54)           110.6564                                         !
 ! A94   A(43,42,53)           103.3444                                         !
 ! A95   A(43,42,54)           108.9165                                         !
 ! A96   A(53,42,54)           105.4126                                         !
 ! A97   A(42,43,44)           116.5335                                         !
 ! A98   A(42,43,55)           108.985                                          !
 ! A99   A(42,43,56)           111.4099                                         !
 ! A100  A(44,43,55)           105.2394                                         !
 ! A101  A(44,43,56)           105.8696                                         !
 ! A102  A(55,43,56)           108.3835                                         !
 ! A103  A(43,44,57)           111.9729                                         !
 ! A104  A(43,44,58)           110.7688                                         !
 ! A105  A(43,44,59)           112.9413                                         !
 ! A106  A(57,44,58)           107.32                                           !
 ! A107  A(57,44,59)           105.9532                                         !
 ! A108  A(58,44,59)           107.5633                                         !
 ! A109  A(38,45,46)           108.7936                                         !
 ! D1    D(20,1,2,3)           -64.8241                                         !
 ! D2    D(20,1,2,5)           168.7872                                         !
 ! D3    D(20,1,2,12)           50.1924                                         !
 ! D4    D(21,1,2,3)           177.1757                                         !
 ! D5    D(21,1,2,5)            50.787                                          !
 ! D6    D(21,1,2,12)          -67.8078                                         !
 ! D7    D(1,2,3,4)             19.9104                                         !
 ! D8    D(1,2,3,22)          -157.4444                                         !
 ! D9    D(5,2,3,4)            142.1437                                         !
 ! D10   D(5,2,3,22)           -35.211                                          !
 ! D11   D(12,2,3,4)           -96.7434                                         !
 ! D12   D(12,2,3,22)           85.9018                                         !
 ! D13   D(1,2,5,6)            -43.1428                                         !
 ! D14   D(1,2,5,13)            79.1263                                         !
 ! D15   D(1,2,5,14)          -163.3476                                         !
 ! D16   D(3,2,5,6)           -162.9308                                         !
 ! D17   D(3,2,5,13)           -40.6618                                         !
 ! D18   D(3,2,5,14)            76.8643                                         !
 ! D19   D(12,2,5,6)            76.4003                                         !
 ! D20   D(12,2,5,13)         -161.3306                                         !
 ! D21   D(12,2,5,14)          -43.8045                                         !
 ! D22   D(2,3,22,23)          173.9654                                         !
 ! D23   D(2,3,22,28)          -15.9233                                         !
 ! D24   D(4,3,22,23)           -3.3435                                         !
 ! D25   D(4,3,22,28)          166.7678                                         !
 ! D26   D(2,5,6,7)             99.3266                                         !
 ! D27   D(2,5,6,8)            -78.8009                                         !
 ! D28   D(13,5,6,7)           -22.6599                                         !
 ! D29   D(13,5,6,8)           159.2126                                         !
 ! D30   D(14,5,6,7)          -140.758                                          !
 ! D31   D(14,5,6,8)            41.1145                                         !
 ! D32   D(5,6,7,9)           -178.4996                                         !
 ! D33   D(5,6,7,15)             1.7157                                         !
 ! D34   D(8,6,7,9)             -0.3433                                         !
 ! D35   D(8,6,7,15)           179.872                                          !
 ! D36   D(5,6,8,10)           178.3948                                         !
 ! D37   D(5,6,8,16)            -2.4352                                         !
 ! D38   D(7,6,8,10)             0.2438                                         !
 ! D39   D(7,6,8,16)           179.4138                                         !
 ! D40   D(6,7,9,11)             0.2559                                         !
 ! D41   D(6,7,9,17)          -179.3868                                         !
 ! D42   D(15,7,9,11)         -179.9624                                         !
 ! D43   D(15,7,9,17)            0.3949                                         !
 ! D44   D(6,8,10,11)           -0.0556                                         !
 ! D45   D(6,8,10,18)          179.4353                                         !
 ! D46   D(16,8,10,11)        -179.2252                                         !
 ! D47   D(16,8,10,18)           0.2657                                         !
 ! D48   D(7,9,11,10)           -0.0638                                         !
 ! D49   D(7,9,11,19)         -179.7419                                         !
 ! D50   D(17,9,11,10)         179.5777                                         !
 ! D51   D(17,9,11,19)          -0.1005                                         !
 ! D52   D(8,10,11,9)           -0.0361                                         !
 ! D53   D(8,10,11,19)         179.6423                                         !
 ! D54   D(18,10,11,9)        -179.5257                                         !
 ! D55   D(18,10,11,19)          0.1528                                         !
 ! D56   D(3,22,23,24)         -50.2813                                         !
 ! D57   D(3,22,23,26)        -175.4109                                         !
 ! D58   D(3,22,23,29)          65.3446                                         !
 ! D59   D(28,22,23,24)        137.8813                                         !
 ! D60   D(28,22,23,26)         12.7516                                         !
 ! D61   D(28,22,23,29)       -106.4928                                         !
 ! D62   D(3,22,28,27)        -158.1204                                         !
 ! D63   D(3,22,28,34)         -37.1277                                         !
 ! D64   D(3,22,28,35)          83.2585                                         !
 ! D65   D(23,22,28,27)         12.5078                                         !
 ! D66   D(23,22,28,34)        133.5005                                         !
 ! D67   D(23,22,28,35)       -106.1133                                         !
 ! D68   D(22,23,24,25)        125.1614                                         !
 ! D69   D(22,23,24,36)        -50.435                                          !
 ! D70   D(26,23,24,25)       -117.8828                                         !
 ! D71   D(26,23,24,36)         66.5208                                         !
 ! D72   D(29,23,24,25)          6.6288                                         !
 ! D73   D(29,23,24,36)       -168.9675                                         !
 ! D74   D(22,23,26,27)        -32.7108                                         !
 ! D75   D(22,23,26,30)         85.0672                                         !
 ! D76   D(22,23,26,31)       -154.9318                                         !
 ! D77   D(24,23,26,27)       -153.321                                          !
 ! D78   D(24,23,26,30)        -35.543                                          !
 ! D79   D(24,23,26,31)         84.458                                          !
 ! D80   D(29,23,26,27)         85.413                                          !
 ! D81   D(29,23,26,30)       -156.8089                                         !
 ! D82   D(29,23,26,31)        -36.8079                                         !
 ! D83   D(23,24,36,37)        140.0747                                         !
 ! D84   D(23,24,36,47)          0.7608                                         !
 ! D85   D(25,24,36,37)        -35.4737                                         !
 ! D86   D(25,24,36,47)       -174.7876                                         !
 ! D87   D(23,26,27,28)         40.8399                                         !
 ! D88   D(23,26,27,32)        162.1199                                         !
 ! D89   D(23,26,27,33)        -76.6796                                         !
 ! D90   D(30,26,27,28)        -77.0243                                         !
 ! D91   D(30,26,27,32)         44.2557                                         !
 ! D92   D(30,26,27,33)        165.4562                                         !
 ! D93   D(31,26,27,28)        161.613                                          !
 ! D94   D(31,26,27,32)        -77.107                                          !
 ! D95   D(31,26,27,33)         44.0935                                         !
 ! D96   D(26,27,28,22)        -32.7176                                         !
 ! D97   D(26,27,28,34)       -152.2594                                         !
 ! D98   D(26,27,28,35)         85.6207                                         !
 ! D99   D(32,27,28,22)       -154.8035                                         !
 ! D100  D(32,27,28,34)         85.6547                                         !
 ! D101  D(32,27,28,35)        -36.4652                                         !
 ! D102  D(33,27,28,22)         84.7655                                         !
 ! D103  D(33,27,28,34)        -34.7763                                         !
 ! D104  D(33,27,28,35)       -156.8963                                         !
 ! D105  D(24,36,37,38)       -105.4346                                         !
 ! D106  D(24,36,37,40)        121.2278                                         !
 ! D107  D(24,36,37,48)          7.5231                                         !
 ! D108  D(47,36,37,38)         34.9124                                         !
 ! D109  D(47,36,37,40)        -98.4252                                         !
 ! D110  D(47,36,37,48)        147.8701                                         !
 ! D111  D(36,37,38,39)        -55.5621                                         !
 ! D112  D(36,37,38,45)        118.6808                                         !
 ! D113  D(40,37,38,39)         80.8155                                         !
 ! D114  D(40,37,38,45)       -104.9416                                         !
 ! D115  D(48,37,38,39)       -163.8131                                         !
 ! D116  D(48,37,38,45)         10.4298                                         !
 ! D117  D(36,37,40,41)       -149.7031                                         !
 ! D118  D(36,37,40,49)         87.9965                                         !
 ! D119  D(36,37,40,50)        -31.0167                                         !
 ! D120  D(38,37,40,41)         80.7759                                         !
 ! D121  D(38,37,40,49)        -41.5245                                         !
 ! D122  D(38,37,40,50)       -160.5377                                         !
 ! D123  D(48,37,40,41)        -37.1464                                         !
 ! D124  D(48,37,40,49)       -159.4468                                         !
 ! D125  D(48,37,40,50)         81.5399                                         !
 ! D126  D(37,38,45,46)       -138.1003                                         !
 ! D127  D(39,38,45,46)         35.9723                                         !
 ! D128  D(37,40,41,42)         60.5831                                         !
 ! D129  D(37,40,41,51)       -178.3047                                         !
 ! D130  D(37,40,41,52)        -63.023                                          !
 ! D131  D(49,40,41,42)       -176.5338                                         !
 ! D132  D(49,40,41,51)        -55.4216                                         !
 ! D133  D(49,40,41,52)         59.8601                                         !
 ! D134  D(50,40,41,42)        -57.2492                                         !
 ! D135  D(50,40,41,51)         63.863                                          !
 ! D136  D(50,40,41,52)        179.1447                                         !
 ! D137  D(40,41,42,43)       -106.2937                                         !
 ! D138  D(40,41,42,53)        136.2074                                         !
 ! D139  D(40,41,42,54)         21.2897                                         !
 ! D140  D(51,41,42,43)        132.5274                                         !
 ! D141  D(51,41,42,53)         15.0285                                         !
 ! D142  D(51,41,42,54)        -99.8892                                         !
 ! D143  D(52,41,42,43)         17.1912                                         !
 ! D144  D(52,41,42,53)       -100.3077                                         !
 ! D145  D(52,41,42,54)        144.7746                                         !
 ! D146  D(41,42,43,44)         77.7874                                         !
 ! D147  D(41,42,43,55)       -163.3652                                         !
 ! D148  D(41,42,43,56)        -43.8185                                         !
 ! D149  D(53,42,43,44)       -162.3151                                         !
 ! D150  D(53,42,43,55)        -43.4676                                         !
 ! D151  D(53,42,43,56)         76.079                                          !
 ! D152  D(54,42,43,44)        -50.5978                                         !
 ! D153  D(54,42,43,55)         68.2497                                         !
 ! D154  D(54,42,43,56)       -172.2037                                         !
 ! D155  D(42,43,44,57)        -76.3518                                         !
 ! D156  D(42,43,44,58)        163.8892                                         !
 ! D157  D(42,43,44,59)         43.1608                                         !
 ! D158  D(55,43,44,57)        162.791                                          !
 ! D159  D(55,43,44,58)         43.032                                          !
 ! D160  D(55,43,44,59)        -77.6965                                         !
 ! D161  D(56,43,44,57)         48.1287                                         !
 ! D162  D(56,43,44,58)        -71.6303                                         !
 ! D163  D(56,43,44,59)        167.6412                                         !
 --------------------------------------------------------------------------------
 Symmetry turned off by external request.
 Stoichiometry    C20H31N4O4(1+)
 Framework group  C1[X(C20H31N4O4)]
 Deg. of freedom   171
 Full point group                 C1      NOp   1
                          Input orientation:                          
 ---------------------------------------------------------------------
 Center     Atomic      Atomic             Coordinates (Angstroms)
 Number     Number       Type             X           Y           Z
 ---------------------------------------------------------------------
      1          7           0       -9.531300   19.291236   12.613322
      2          6           0       -8.546615   19.942897   11.706576
      3          6           0       -8.267886   18.906704   10.591584
      4          8           0       -9.095803   18.001116   10.414465
      5          6           0       -7.319188   20.433388   12.521220
      6          6           0       -7.714813   21.102124   13.821953
      7          6           0       -7.659238   20.390735   15.029356
      8          6           0       -8.177965   22.425341   13.832107
      9          6           0       -8.053514   20.997060   16.224040
     10          6           0       -8.573783   23.030167   15.025564
     11          6           0       -8.511658   22.316042   16.224773
     12          1           0       -9.010082   20.819577   11.227605
     13          1           0       -6.660834   19.587540   12.725844
     14          1           0       -6.768847   21.151823   11.910696
     15          1           0       -7.302357   19.364087   15.022697
     16          1           0       -8.216277   22.990037   12.902278
     17          1           0       -7.996929   20.439950   17.155031
     18          1           0       -8.922069   24.059108   15.021024
     19          1           0       -8.814082   22.787955   17.155125
     20          1           0      -10.402132   19.144207   12.105376
     21          1           0       -9.717233   19.915899   13.398301
     22          7           0       -7.127745   18.937594    9.851423
     23          6           0       -6.881924   17.824992    8.897137
     24          6           0       -7.059154   16.479045    9.607711
     25          8           0       -7.836405   15.626311    9.173733
     26          6           0       -5.480196   18.137149    8.349091
     27          6           0       -5.448946   19.672435    8.359685
     28          6           0       -6.135231   20.024521    9.686528
     29          1           0       -7.636612   17.836724    8.105327
     30          1           0       -4.707738   17.733987    9.015544
     31          1           0       -5.328486   17.700890    7.359479
     32          1           0       -4.438351   20.083625    8.298745
     33          1           0       -6.028873   20.066950    7.518107
     34          1           0       -6.629033   20.999197    9.663433
     35          1           0       -5.416484   20.016579   10.512756
     36          7           0       -6.382031   16.316343   10.792986
     37          6           0       -7.129562   15.615002   11.842720
     38          6           0       -7.553034   16.685858   12.851747
     39          8           0       -6.742640   17.420206   13.383047
     40          6           0       -6.591621   14.324875   12.455745
     41          6           0       -7.814548   13.476012   12.876109
     42          6           0       -8.756265   13.092578   11.691044
     43          6           0      -10.120185   13.799553   11.548651
     44          7           0      -10.099448   15.208720   10.967183
     45          8           0       -8.880613   16.804524   12.985198
     46          1           0       -9.132142   17.850521   13.035553
     47          1           0       -5.824259   17.098324   11.119934
     48          1           0       -8.000102   15.297432   11.308325
     49          1           0       -5.930698   14.516576   13.307313
     50          1           0       -6.010807   13.791778   11.694849
     51          1           0       -7.456542   12.555981   13.347566
     52          1           0       -8.385253   14.007759   13.650010
     53          1           0       -9.028911   12.037081   11.802550
     54          1           0       -8.220896   13.156165   10.734775
     55          1           0      -10.752447   13.219228   10.872631
     56          1           0      -10.629865   13.881285   12.512376
     57          1           0       -9.771793   15.916219   11.666179
     58          1           0      -11.036216   15.490432   10.664476
     59          1           0       -9.463107   15.300397   10.147018
 ---------------------------------------------------------------------
 Rotational constants (GHZ):           0.2526911           0.1312671           0.1020765
 Standard basis: 6-31G(d) (6D, 7F)
   482 basis functions,   908 primitive gaussians,   482 cartesian basis functions
   105 alpha electrons      105 beta electrons
       nuclear repulsion energy      2966.5868180947 Hartrees.
 NAtoms=   59 NActive=   59 NUniq=   59 SFac= 1.00D+00 NAtFMM=   60 NAOKFM=F Big=F
 Integral buffers will be    131072 words long.
 Raffenetti 2 integral format.
 Two-electron integral symmetry is turned off.
 Nuclear repulsion after empirical dispersion term =     2966.5026767317 Hartrees.
 One-electron integrals computed using PRISM.
 NBasis=   482 RedAO= T EigKep=  4.62D-04  NBF=   482
 NBsUse=   482 1.00D-06 EigRej= -1.00D+00 NBFU=   482
 Initial guess from the checkpoint file:  "conf-555.chk"
 B after Tr=     0.000000    0.000000    0.000000
         Rot=    1.000000    0.000000    0.000000    0.000000 Ang=   0.00 deg.
 Requested convergence on RMS density matrix=1.00D-08 within 128 cycles.
 Requested convergence on MAX density matrix=1.00D-06.
 Requested convergence on             energy=1.00D-06.
 No special actions if energy rises.
 SCF Done:  E(RB3LYP) =  -1300.61667520     A.U. after    3 cycles
            NFock=  3  Conv=0.70D-09     -V/T= 2.0095

 **********************************************************************

            Population analysis using the SCF Density.

 **********************************************************************

 Alpha  occ. eigenvalues --  -19.28530 -19.25059 -19.24395 -19.24065 -14.56548
 Alpha  occ. eigenvalues --  -14.49010 -14.47832 -14.46813 -10.42884 -10.41347
 Alpha  occ. eigenvalues --  -10.41211 -10.37770 -10.35435 -10.34921 -10.34420
 Alpha  occ. eigenvalues --  -10.34176 -10.31818 -10.30715 -10.30239 -10.30213
 Alpha  occ. eigenvalues --  -10.29740 -10.29386 -10.28426 -10.27420 -10.27093
 Alpha  occ. eigenvalues --  -10.27000 -10.26942 -10.26865  -1.20122  -1.16697
 Alpha  occ. eigenvalues --   -1.15449  -1.11955  -1.11024  -1.06500  -1.04224
 Alpha  occ. eigenvalues --   -1.02619  -0.93866  -0.92933  -0.91516  -0.89111
 Alpha  occ. eigenvalues --   -0.87683  -0.86495  -0.82540  -0.82294  -0.82080
 Alpha  occ. eigenvalues --   -0.77505  -0.76932  -0.74472  -0.72590  -0.71966
 Alpha  occ. eigenvalues --   -0.70907  -0.70282  -0.69378  -0.68802  -0.68751
 Alpha  occ. eigenvalues --   -0.67644  -0.66486  -0.64146  -0.63545  -0.62386
 Alpha  occ. eigenvalues --   -0.61394  -0.60964  -0.60185  -0.59403  -0.58735
 Alpha  occ. eigenvalues --   -0.58518  -0.57953  -0.57410  -0.55593  -0.55451
 Alpha  occ. eigenvalues --   -0.54950  -0.54319  -0.54120  -0.53514  -0.53223
 Alpha  occ. eigenvalues --   -0.52918  -0.52699  -0.52237  -0.51407  -0.50087
 Alpha  occ. eigenvalues --   -0.49935  -0.49898  -0.49180  -0.48799  -0.48524
 Alpha  occ. eigenvalues --   -0.48336  -0.46917  -0.46600  -0.46278  -0.45733
 Alpha  occ. eigenvalues --   -0.45437  -0.44905  -0.44642  -0.43988  -0.42870
 Alpha  occ. eigenvalues --   -0.42391  -0.41921  -0.40174  -0.39284  -0.38226
 Alpha  occ. eigenvalues --   -0.37630  -0.36688  -0.36425  -0.33220  -0.32800
 Alpha virt. eigenvalues --   -0.13144  -0.10907  -0.10067  -0.08623  -0.08403
 Alpha virt. eigenvalues --   -0.07659  -0.04219  -0.02757  -0.01759  -0.01383
 Alpha virt. eigenvalues --   -0.00331  -0.00066   0.00811   0.01229   0.01460
 Alpha virt. eigenvalues --    0.01668   0.02114   0.02815   0.03219   0.03503
 Alpha virt. eigenvalues --    0.04102   0.04549   0.04706   0.05026   0.05499
 Alpha virt. eigenvalues --    0.05546   0.06000   0.06365   0.06878   0.07138
 Alpha virt. eigenvalues --    0.07230   0.07556   0.07974   0.08681   0.08869
 Alpha virt. eigenvalues --    0.09255   0.09540   0.10303   0.10470   0.11077
 Alpha virt. eigenvalues --    0.11189   0.12162   0.12592   0.13709   0.14062
 Alpha virt. eigenvalues --    0.14406   0.14965   0.16060   0.16747   0.16920
 Alpha virt. eigenvalues --    0.17680   0.18057   0.18399   0.19056   0.22716
 Alpha virt. eigenvalues --    0.23058   0.24136   0.24816   0.25124   0.26136
 Alpha virt. eigenvalues --    0.26335   0.28296   0.29983   0.31402   0.35733
 Alpha virt. eigenvalues --    0.37600   0.38107   0.38443   0.38662   0.38924
 Alpha virt. eigenvalues --    0.40492   0.41650   0.41912   0.42416   0.43939
 Alpha virt. eigenvalues --    0.44408   0.44787   0.45511   0.45999   0.46681
 Alpha virt. eigenvalues --    0.46917   0.47452   0.47604   0.48735   0.49028
 Alpha virt. eigenvalues --    0.49308   0.50393   0.50946   0.51319   0.51458
 Alpha virt. eigenvalues --    0.51920   0.52175   0.52868   0.53377   0.53467
 Alpha virt. eigenvalues --    0.53758   0.53934   0.54419   0.55082   0.55675
 Alpha virt. eigenvalues --    0.56085   0.56592   0.57512   0.57610   0.58732
 Alpha virt. eigenvalues --    0.59147   0.59555   0.60704   0.61980   0.62621
 Alpha virt. eigenvalues --    0.62976   0.63965   0.64536   0.65072   0.66461
 Alpha virt. eigenvalues --    0.67304   0.68452   0.69433   0.70167   0.71030
 Alpha virt. eigenvalues --    0.71449   0.71810   0.72466   0.73273   0.73794
 Alpha virt. eigenvalues --    0.73982   0.74655   0.74850   0.75162   0.75739
 Alpha virt. eigenvalues --    0.76188   0.76440   0.76594   0.76753   0.77036
 Alpha virt. eigenvalues --    0.77684   0.77856   0.78528   0.79234   0.79371
 Alpha virt. eigenvalues --    0.79828   0.79967   0.81301   0.81581   0.82519
 Alpha virt. eigenvalues --    0.82702   0.82784   0.83459   0.83832   0.84370
 Alpha virt. eigenvalues --    0.84754   0.85709   0.86076   0.86482   0.87204
 Alpha virt. eigenvalues --    0.88008   0.89860   0.90697   0.90937   0.91360
 Alpha virt. eigenvalues --    0.91823   0.92342   0.94027   0.95274   0.95463
 Alpha virt. eigenvalues --    0.97005   0.97701   0.98325   1.00080   1.01320
 Alpha virt. eigenvalues --    1.02848   1.04592   1.04917   1.05286   1.06208
 Alpha virt. eigenvalues --    1.06459   1.08557   1.09438   1.10484   1.12304
 Alpha virt. eigenvalues --    1.12897   1.14663   1.15555   1.16758   1.18346
 Alpha virt. eigenvalues --    1.19302   1.20459   1.20889   1.22566   1.23624
 Alpha virt. eigenvalues --    1.25992   1.27870   1.28071   1.29643   1.30204
 Alpha virt. eigenvalues --    1.31632   1.33407   1.34123   1.34373   1.35047
 Alpha virt. eigenvalues --    1.35978   1.36093   1.37101   1.37977   1.39906
 Alpha virt. eigenvalues --    1.40256   1.41013   1.42214   1.42319   1.43150
 Alpha virt. eigenvalues --    1.44342   1.47030   1.48730   1.50174   1.51034
 Alpha virt. eigenvalues --    1.51338   1.52540   1.53583   1.55056   1.56341
 Alpha virt. eigenvalues --    1.58012   1.60812   1.61650   1.62513   1.64144
 Alpha virt. eigenvalues --    1.65421   1.65761   1.67076   1.68255   1.69124
 Alpha virt. eigenvalues --    1.69409   1.69805   1.71305   1.71588   1.72214
 Alpha virt. eigenvalues --    1.72428   1.73234   1.73731   1.73938   1.75163
 Alpha virt. eigenvalues --    1.75643   1.76055   1.78013   1.78418   1.79348
 Alpha virt. eigenvalues --    1.80413   1.81134   1.81662   1.82392   1.82591
 Alpha virt. eigenvalues --    1.83824   1.84466   1.85255   1.86088   1.86771
 Alpha virt. eigenvalues --    1.87501   1.88973   1.89201   1.89641   1.90111
 Alpha virt. eigenvalues --    1.91599   1.91904   1.92576   1.93776   1.94797
 Alpha virt. eigenvalues --    1.95341   1.97232   1.97710   1.98259   1.98571
 Alpha virt. eigenvalues --    1.99383   2.00525   2.02025   2.04007   2.04319
 Alpha virt. eigenvalues --    2.06190   2.06283   2.07157   2.07425   2.07982
 Alpha virt. eigenvalues --    2.10472   2.10968   2.11478   2.12805   2.14771
 Alpha virt. eigenvalues --    2.16069   2.16826   2.17338   2.18041   2.18890
 Alpha virt. eigenvalues --    2.20164   2.21021   2.21469   2.22868   2.23441
 Alpha virt. eigenvalues --    2.24557   2.25739   2.27935   2.28119   2.28770
 Alpha virt. eigenvalues --    2.30018   2.30998   2.31817   2.33766   2.35741
 Alpha virt. eigenvalues --    2.36898   2.39064   2.40411   2.41229   2.42328
 Alpha virt. eigenvalues --    2.43917   2.44636   2.46426   2.46896   2.47998
 Alpha virt. eigenvalues --    2.49195   2.50154   2.50827   2.51470   2.52690
 Alpha virt. eigenvalues --    2.53671   2.53903   2.55454   2.56699   2.57888
 Alpha virt. eigenvalues --    2.58150   2.59710   2.62774   2.64454   2.65937
 Alpha virt. eigenvalues --    2.66154   2.66841   2.67792   2.69102   2.69341
 Alpha virt. eigenvalues --    2.71559   2.74027   2.78355   2.83800   2.85436
 Alpha virt. eigenvalues --    2.90928   2.92550   2.94386   2.95660   2.96992
 Alpha virt. eigenvalues --    2.98456   3.01531   3.09558   3.32822   3.77209
 Alpha virt. eigenvalues --    3.83091   3.89421   3.93124   3.98825   4.00992
 Alpha virt. eigenvalues --    4.01841   4.03853   4.07106   4.09155   4.10773
 Alpha virt. eigenvalues --    4.13226   4.18036   4.19641   4.22169   4.26073
 Alpha virt. eigenvalues --    4.27914   4.31104   4.34209   4.39704   4.43068
 Alpha virt. eigenvalues --    4.44956   4.45910   4.48109   4.54848   4.62400
 Alpha virt. eigenvalues --    4.63174   4.72134
          Condensed to atoms (all electrons):
 Mulliken charges:
               1
     1  N   -0.786493
     2  C   -0.070832
     3  C    0.626287
     4  O   -0.578157
     5  C   -0.376721
     6  C    0.110000
     7  C   -0.195502
     8  C   -0.181170
     9  C   -0.129970
    10  C   -0.128561
    11  C   -0.126406
    12  H    0.179980
    13  H    0.195954
    14  H    0.163729
    15  H    0.164700
    16  H    0.127747
    17  H    0.149747
    18  H    0.151072
    19  H    0.152704
    20  H    0.344890
    21  H    0.362739
    22  N   -0.480258
    23  C   -0.019529
    24  C    0.623112
    25  O   -0.547377
    26  C   -0.317864
    27  C   -0.304799
    28  C   -0.138766
    29  H    0.194823
    30  H    0.166569
    31  H    0.193035
    32  H    0.183686
    33  H    0.175905
    34  H    0.180306
    35  H    0.179644
    36  N   -0.581764
    37  C   -0.014842
    38  C    0.610102
    39  O   -0.463548
    40  C   -0.285491
    41  C   -0.293534
    42  C   -0.312659
    43  C   -0.182779
    44  N   -0.811348
    45  O   -0.650548
    46  H    0.474506
    47  H    0.345093
    48  H    0.131694
    49  H    0.179453
    50  H    0.175903
    51  H    0.179709
    52  H    0.159958
    53  H    0.190532
    54  H    0.191600
    55  H    0.205609
    56  H    0.207410
    57  H    0.450311
    58  H    0.400043
    59  H    0.450364
 Sum of Mulliken charges =   1.00000
 Mulliken charges with hydrogens summed into heavy atoms:
               1
     1  N   -0.078864
     2  C    0.109148
     3  C    0.626287
     4  O   -0.578157
     5  C   -0.017038
     6  C    0.110000
     7  C   -0.030802
     8  C   -0.053424
     9  C    0.019777
    10  C    0.022511
    11  C    0.026298
    22  N   -0.480258
    23  C    0.175293
    24  C    0.623112
    25  O   -0.547377
    26  C    0.041740
    27  C    0.054792
    28  C    0.221185
    36  N   -0.236671
    37  C    0.116852
    38  C    0.610102
    39  O   -0.463548
    40  C    0.069865
    41  C    0.046134
    42  C    0.069473
    43  C    0.230240
    44  N    0.489370
    45  O   -0.176042
 Electronic spatial extent (au):  <R**2>=         404364.9906
 Charge=              1.0000 electrons
 Dipole moment (field-independent basis, Debye):
    X=            -42.1400    Y=             83.0516    Z=             53.7901  Tot=            107.5487
 Quadrupole moment (field-independent basis, Debye-Ang):
   XX=            231.9930   YY=           1330.9580   ZZ=            456.9283
   XY=           -716.2051   XZ=           -485.5643   YZ=            927.6147
 Traceless Quadrupole moment (field-independent basis, Debye-Ang):
   XX=           -441.3001   YY=            657.6649   ZZ=           -216.3648
   XY=           -716.2051   XZ=           -485.5643   YZ=            927.6147
 Octapole moment (field-independent basis, Debye-Ang**2):
  XXX=            -81.7943  YYY=          19042.6593  ZZZ=           1571.3144  XYY=         -11424.9177
  XXY=           3665.6572  XXZ=           2673.9286  XZZ=          -4461.0837  YZZ=           7797.4525
  YYZ=          14775.0049  XYZ=          -8282.4708
 Hexadecapole moment (field-independent basis, Debye-Ang**3):
 XXXX=         -21422.5611 YYYY=         210300.6867 ZZZZ=         -51552.8569 XXXY=           4360.8909
 XXXZ=            277.1521 YYYX=        -165693.6629 YYYZ=         207608.7664 ZZZX=         -23781.5729
 ZZZY=          23585.6464 XXYY=          50653.0110 XXZZ=          20857.9423 YYZZ=         116906.3756
 XXYZ=          42439.0188 YYXZ=        -132554.8268 ZZXY=         -75931.2531
 N-N= 2.966502676732D+03 E-N=-8.935446936862D+03  KE= 1.288382266210D+03
 Unable to Open any file for archive entry.
 1\1\GINC-SKL-156\SP\RB3LYP\6-31G(d)\C20H31N4O4(1+)\KENGMITH\25-May-202
 2\0\\# B3LYP/6-31G* empiricaldispersion=gd3 guess=read geom=check nosy
 mm integral(ultrafinegrid)\\Candidate Structure: Conf:555 Charge calc 
 in gas phase\\1,1\N,0,-9.5312996742,19.2912356482,12.6133215234\C,0,-8
 .5466147722,19.9428974143,11.7065756838\C,0,-8.2678858805,18.906703730
 4,10.5915843294\O,0,-9.0958027146,18.0011159947,10.4144652583\C,0,-7.3
 191875145,20.4333878314,12.5212203544\C,0,-7.7148130558,21.1021243907,
 13.8219533112\C,0,-7.6592382472,20.3907350294,15.0293561875\C,0,-8.177
 9645951,22.4253407454,13.8321066184\C,0,-8.0535139075,20.99705988,16.2
 240400195\C,0,-8.5737827513,23.0301668677,15.0255636748\C,0,-8.5116575
 334,22.31604175,16.2247734352\H,0,-9.0100818631,20.8195774469,11.22760
 5249\H,0,-6.6608335425,19.5875402402,12.7258438177\H,0,-6.7688466551,2
 1.1518226445,11.91069636\H,0,-7.3023566347,19.3640870107,15.0226972302
 \H,0,-8.2162767307,22.9900371677,12.9022782082\H,0,-7.9969288493,20.43
 99497393,17.1550314976\H,0,-8.9220690966,24.0591080601,15.0210239327\H
 ,0,-8.8140821118,22.7879549218,17.1551245032\H,0,-10.4021316392,19.144
 2070974,12.1053764173\H,0,-9.7172331216,19.9158989917,13.398300658\N,0
 ,-7.1277446139,18.9375944319,9.8514231841\C,0,-6.8819241781,17.8249915
 968,8.8971366529\C,0,-7.0591544427,16.4790451274,9.6077114856\O,0,-7.8
 364051892,15.6263113021,9.1737332807\C,0,-5.4801962994,18.1371493787,8
 .3490912036\C,0,-5.448946162,19.6724353631,8.3596853292\C,0,-6.1352314
 871,20.0245213274,9.686528146\H,0,-7.6366123292,17.836724412,8.1053268
 904\H,0,-4.7077383511,17.7339868326,9.0155441847\H,0,-5.3284857726,17.
 7008895752,7.3594792759\H,0,-4.4383508596,20.0836248162,8.2987450283\H
 ,0,-6.0288726019,20.0669500446,7.5181065928\H,0,-6.6290325748,20.99919
 70837,9.6634327763\H,0,-5.4164838882,20.0165791437,10.5127556527\N,0,-
 6.3820306477,16.3163425033,10.7929857538\C,0,-7.1295618514,15.61500228
 85,11.8427196281\C,0,-7.5530344343,16.6858576748,12.8517471461\O,0,-6.
 7426396197,17.4202057478,13.3830472328\C,0,-6.5916213887,14.3248749692
 ,12.4557446986\C,0,-7.8145482571,13.4760119518,12.8761094097\C,0,-8.75
 62652007,13.0925775946,11.6910439947\C,0,-10.1201845821,13.79955256,11
 .5486514136\N,0,-10.0994482059,15.2087204557,10.9671828631\O,0,-8.8806
 125654,16.8045239388,12.9851980577\H,0,-9.1321418155,17.850521183,13.0
 35553037\H,0,-5.824258759,17.0983241244,11.1199340035\H,0,-8.000101857
 9,15.2974320313,11.3083253949\H,0,-5.9306978925,14.5165757097,13.30731
 25853\H,0,-6.0108074426,13.791778233,11.694849077\H,0,-7.4565421977,12
 .5559805009,13.3475656687\H,0,-8.3852527388,14.0077589263,13.650009535
 6\H,0,-9.0289113382,12.0370814636,11.8025498409\H,0,-8.2208957791,13.1
 56165124,10.7347749094\H,0,-10.7524465926,13.2192284007,10.8726312186\
 H,0,-10.6298650229,13.8812851134,12.5123757581\H,0,-9.7717928182,15.91
 62192324,11.66617861\H,0,-11.0362155136,15.4904318307,10.6644762086\H,
 0,-9.463106848,15.3003971641,10.1470178614\\Version=ES64L-G16RevC.01\H
 F=-1300.6166752\RMSD=6.993e-10\Dipole=-1.829988,-1.2860549,-1.2368492\
 Quadrupole=-328.0957919,488.9577131,-160.8619212,-532.4809507,-361.005
 1662,689.6588006\PG=C01 [X(C20H31N4O4)]\\@
 The archive entry for this job was punched.


 EXPERIMENTALISTS THINK SILICON IS REALLY FUN TO USE
     ITS PLACE IN NOVEL COMPOUNDS IS CERTAIN TO AMUSE
 THEY SIT ALL DAY IN LABORATORIES MAKING ALL THIS SLUDGE
     "LOADED WITH THE SILICON THEY SAY", TO ME IT LOOKS LIKE FUDGE.
 FOR HAPPY THOUGH THEY BE WITH CRUD, I'D LIKE TO KNOW A LITTLE
      ABOUT THE PI BONDS ON THE EDGE AND SIGMAS IN THE MIDDLE.

 SO LETS DERIVE A WAVEFUNCTION.....6-31G*
     USE AN OPTIMAL GEOMETRY AND SEE WHERE ELECTRONS ARE.
 BUT WHAT OF CORRELATION?  ASKS THE WIRY LITTLE SKEPTIC.
     WE'LL THROW IN PERTURBATION AS AN ELECTRON ANTISEPTIC.
 AND WHEN THE PROGRAM GIVES US ANSWERS IN THEM WE CAN TRUST
     SINCE NOBODY CAN MAKE THE STUFF, WE HAVE NO CHOICE, WE MUST.

 SO THEORY GUYS HAVE GOT IT MADE, IN ROOMS FREE OF POLLUTION.
     INSTEAD OF PROBLEMS WITH THE REFLUX, THEY HAVE ONLY SOLUTIONS.
 AND WHEN THE FEDS ANNOUNCE THE LIST OF CARCINOGENIC TERRORS,
     THE THEORISTS SIT SAFELY AT THEIR TERMINALS FIXING ERRORS.
 IN OTHER WORDS, EXPERIMENTALISTS WILL LIKELY DIE OF CANCER
     FROM WORKING HARD YET FRUITLESSLY...TILL THEORY GIVES THE ANSWER.
          -- THOMAS A. HOLME, 1983
 Job cpu time:       0 days  0 hours  2 minutes 32.8 seconds.
 Elapsed time:       0 days  0 hours  0 minutes 38.7 seconds.
 File lengths (MBytes):  RWF=    240 Int=      0 D2E=      0 Chk=     32 Scr=     16
 Normal termination of Gaussian 16 at Wed May 25 08:35:21 2022.
