 Entering Gaussian System, Link 0=/opt/software/Gaussian/g16-AVX2-C.01/g16/g16
 Input=charge-conf-607.com
 Output=charge-conf-607.log
 Initial command:
 /opt/software/Gaussian/g16-AVX2-C.01/g16/l1.exe "/mnt/gs18/scratch/users/kengmith/Gau-1316.inp" -scrdir="/mnt/gs18/scratch/users/kengmith/"
 Entering Link 1 = /opt/software/Gaussian/g16-AVX2-C.01/g16/l1.exe PID=      1336.
  
 Copyright (c) 1988-2019, Gaussian, Inc.  All Rights Reserved.
  
 This is part of the Gaussian(R) 16 program.  It is based on
 the Gaussian(R) 09 system (copyright 2009, Gaussian, Inc.),
 the Gaussian(R) 03 system (copyright 2003, Gaussian, Inc.),
 the Gaussian(R) 98 system (copyright 1998, Gaussian, Inc.),
 the Gaussian(R) 94 system (copyright 1995, Gaussian, Inc.),
 the Gaussian 92(TM) system (copyright 1992, Gaussian, Inc.),
 the Gaussian 90(TM) system (copyright 1990, Gaussian, Inc.),
 the Gaussian 88(TM) system (copyright 1988, Gaussian, Inc.),
 the Gaussian 86(TM) system (copyright 1986, Carnegie Mellon
 University), and the Gaussian 82(TM) system (copyright 1983,
 Carnegie Mellon University). Gaussian is a federally registered
 trademark of Gaussian, Inc.
  
 This software contains proprietary and confidential information,
 including trade secrets, belonging to Gaussian, Inc.
  
 This software is provided under written license and may be
 used, copied, transmitted, or stored only in accord with that
 written license.
  
 The following legend is applicable only to US Government
 contracts under FAR:
  
                    RESTRICTED RIGHTS LEGEND
  
 Use, reproduction and disclosure by the US Government is
 subject to restrictions as set forth in subparagraphs (a)
 and (c) of the Commercial Computer Software - Restricted
 Rights clause in FAR 52.227-19.
  
 Gaussian, Inc.
 340 Quinnipiac St., Bldg. 40, Wallingford CT 06492
  
  
 ---------------------------------------------------------------
 Warning -- This program may not be used in any manner that
 competes with the business of Gaussian, Inc. or will provide
 assistance to any competitor of Gaussian, Inc.  The licensee
 of this program is prohibited from giving any competitor of
 Gaussian, Inc. access to this program.  By using this program,
 the user acknowledges that Gaussian, Inc. is engaged in the
 business of creating and licensing software in the field of
 computational chemistry and represents and warrants to the
 licensee that it is not a competitor of Gaussian, Inc. and that
 it will not use this program in any manner prohibited above.
 ---------------------------------------------------------------
  

 Cite this work as:
 Gaussian 16, Revision C.01,
 M. J. Frisch, G. W. Trucks, H. B. Schlegel, G. E. Scuseria, 
 M. A. Robb, J. R. Cheeseman, G. Scalmani, V. Barone, 
 G. A. Petersson, H. Nakatsuji, X. Li, M. Caricato, A. V. Marenich, 
 J. Bloino, B. G. Janesko, R. Gomperts, B. Mennucci, H. P. Hratchian, 
 J. V. Ortiz, A. F. Izmaylov, J. L. Sonnenberg, D. Williams-Young, 
 F. Ding, F. Lipparini, F. Egidi, J. Goings, B. Peng, A. Petrone, 
 T. Henderson, D. Ranasinghe, V. G. Zakrzewski, J. Gao, N. Rega, 
 G. Zheng, W. Liang, M. Hada, M. Ehara, K. Toyota, R. Fukuda, 
 J. Hasegawa, M. Ishida, T. Nakajima, Y. Honda, O. Kitao, H. Nakai, 
 T. Vreven, K. Throssell, J. A. Montgomery, Jr., J. E. Peralta, 
 F. Ogliaro, M. J. Bearpark, J. J. Heyd, E. N. Brothers, K. N. Kudin, 
 V. N. Staroverov, T. A. Keith, R. Kobayashi, J. Normand, 
 K. Raghavachari, A. P. Rendell, J. C. Burant, S. S. Iyengar, 
 J. Tomasi, M. Cossi, J. M. Millam, M. Klene, C. Adamo, R. Cammi, 
 J. W. Ochterski, R. L. Martin, K. Morokuma, O. Farkas, 
 J. B. Foresman, and D. J. Fox, Gaussian, Inc., Wallingford CT, 2019.
 
 ******************************************
 Gaussian 16:  ES64L-G16RevC.01  3-Jul-2019
                25-May-2022 
 ******************************************
 %mem=8gb
 %nproc=4
 Will use up to    4 processors via shared memory.
 %chk=conf-607.chk
 ----------------------------------------------------------------------
 # B3LYP/6-31G* empiricaldispersion=gd3 guess=read geom=check nosymm in
 tegral(ultrafinegrid)
 ----------------------------------------------------------------------
 1/29=2,38=1,172=1/1;
 2/12=2,15=1,40=1/2;
 3/5=1,6=6,7=1,11=2,14=-4,25=1,30=1,74=-5,75=-5,116=-2,124=31/1,2,3;
 4/5=1/1;
 5/5=2,38=6/2;
 6/7=2,8=2,9=2,10=2,28=1/1;
 99/5=1,9=1/99;
 ------------------------------------------------------
 Candidate Structure: Conf:607 Charge calc in gas phase
 ------------------------------------------------------
 Structure from the checkpoint file:  "conf-607.chk"
 Charge =  1 Multiplicity = 1
 Redundant internal coordinates found in file.  (old form).
 N,0,-8.0896250118,16.3859688152,14.7898404372
 C,0,-9.0924073012,17.106993379,14.0204952726
 C,0,-9.0719595577,16.5952013777,12.5795407938
 O,0,-8.2282898029,15.7989178757,12.175517769
 C,0,-8.759004295,18.6285233683,14.0478296049
 C,0,-8.8417827996,19.1989912771,15.4450761104
 C,0,-7.7493787121,19.1218219996,16.3201804327
 C,0,-10.0352945208,19.7704804764,15.905705748
 C,0,-7.8504859547,19.6059673673,17.6253234553
 C,0,-10.1386836117,20.255928038,17.2098875399
 C,0,-9.0446487217,20.1745760097,18.0737206371
 H,0,-10.1190325339,16.9854083216,14.4102316666
 H,0,-7.7427254392,18.7338361672,13.6484924957
 H,0,-9.4415458502,19.1778681466,13.389996548
 H,0,-6.8256573706,18.6672524079,15.9739583062
 H,0,-10.8904452659,19.8408438404,15.2356288671
 H,0,-6.994933214,19.5409432988,18.2921076805
 H,0,-11.0701315394,20.7005149545,17.5495855811
 H,0,-9.1216090115,20.5542726035,19.0886135479
 H,0,-8.007872664,15.4260358754,14.4669846029
 H,0,-8.3318171666,16.3891138272,15.7756896137
 N,0,-9.9928727678,17.1157735946,11.6923412918
 C,0,-10.003647904,16.544208757,10.3375493948
 C,0,-8.718021959,16.7957278145,9.5683951923
 O,0,-8.3951110363,16.0706457382,8.6150417785
 C,0,-11.235227243,17.1945923159,9.6760132394
 C,0,-12.1933996201,17.3726059974,10.8631662672
 C,0,-11.2595726732,17.8155243806,11.9984665408
 H,0,-10.1045283266,15.4546136887,10.3835398486
 H,0,-10.9645595215,18.1711373056,9.2557358019
 H,0,-11.6344999848,16.5755306763,8.8703100457
 H,0,-12.9876345787,18.0982793566,10.6695650611
 H,0,-12.6615078957,16.414505793,11.1152461644
 H,0,-11.6297357798,17.5412783295,12.9890626174
 H,0,-11.1116584756,18.90256067,11.983024251
 N,0,-7.9806768494,17.8732797237,9.9289277633
 C,0,-6.7539244625,18.2575946682,9.2366386791
 C,0,-5.6092174958,17.2424116674,9.4784589314
 O,0,-4.5118279534,17.5667441294,9.9326460252
 C,0,-6.4271301376,19.7219067772,9.5846375551
 C,0,-5.0465764075,20.2675142615,9.1680353861
 C,0,-4.5590737467,19.9240701718,7.7389640486
 C,0,-3.0377289219,19.763349372,7.6741393097
 N,0,-2.6194957132,18.4074842478,8.2336299578
 O,0,-5.8295381165,16.0129735913,9.0804576965
 H,0,-6.7852449177,15.8968501478,8.7711694978
 H,0,-8.1950911626,18.3120062696,10.8160249135
 H,0,-6.9728670114,18.1736727564,8.1626519726
 H,0,-6.5057118607,19.8508841061,10.6715560413
 H,0,-7.2254460718,20.3275413288,9.1403106478
 H,0,-5.0703741358,21.3577275032,9.2742647312
 H,0,-4.3182361084,19.9087265977,9.897649557
 H,0,-4.8382768109,20.714208735,7.0342042717
 H,0,-5.0226743832,19.0099159287,7.3463052657
 H,0,-2.6470502804,19.8147102829,6.6554818955
 H,0,-2.5323162042,20.5195219106,8.2796267176
 H,0,-3.2420784308,18.1028546946,9.0352572997
 H,0,-1.6425624294,18.3972526555,8.5429254037
 H,0,-2.7198400975,17.6741632981,7.5240231571
 Recover connectivity data from disk.
                           ----------------------------
                           !    Current Parameters    !
                           ! (Angstroms and Degrees)  !
 --------------------------                            --------------------------
 ! Name  Definition              Value                                          !
 --------------------------------------------------------------------------------
 ! R1    R(1,2)                  1.4551                                         !
 ! R2    R(1,20)                 1.0161                                         !
 ! R3    R(1,21)                 1.0152                                         !
 ! R4    R(2,3)                  1.5293                                         !
 ! R5    R(2,5)                  1.5579                                         !
 ! R6    R(2,12)                 1.1048                                         !
 ! R7    R(3,4)                  1.2284                                         !
 ! R8    R(3,22)                 1.3807                                         !
 ! R9    R(5,6)                  1.5115                                         !
 ! R10   R(5,13)                 1.097                                          !
 ! R11   R(5,14)                 1.0956                                         !
 ! R12   R(6,7)                  1.4018                                         !
 ! R13   R(6,8)                  1.4012                                         !
 ! R14   R(7,9)                  1.3957                                         !
 ! R15   R(7,15)                 1.0862                                         !
 ! R16   R(8,10)                 1.3954                                         !
 ! R17   R(8,16)                 1.0887                                         !
 ! R18   R(9,11)                 1.3966                                         !
 ! R19   R(9,17)                 1.0866                                         !
 ! R20   R(10,11)                1.3963                                         !
 ! R21   R(10,18)                1.0866                                         !
 ! R22   R(11,19)                1.0863                                         !
 ! R23   R(22,23)                1.4705                                         !
 ! R24   R(22,28)                1.4792                                         !
 ! R25   R(23,24)                1.5191                                         !
 ! R26   R(23,26)                1.5419                                         !
 ! R27   R(23,29)                1.0952                                         !
 ! R28   R(24,25)                1.2405                                         !
 ! R29   R(24,36)                1.3545                                         !
 ! R30   R(26,27)                1.5359                                         !
 ! R31   R(26,30)                1.0971                                         !
 ! R32   R(26,31)                1.0917                                         !
 ! R33   R(27,28)                1.5353                                         !
 ! R34   R(27,32)                1.0931                                         !
 ! R35   R(27,33)                1.0957                                         !
 ! R36   R(28,34)                1.0925                                         !
 ! R37   R(28,35)                1.0972                                         !
 ! R38   R(36,37)                1.4601                                         !
 ! R39   R(36,47)                1.0126                                         !
 ! R40   R(37,38)                1.549                                          !
 ! R41   R(37,40)                1.5402                                         !
 ! R42   R(37,48)                1.0993                                         !
 ! R43   R(38,39)                1.2312                                         !
 ! R44   R(38,45)                1.3109                                         !
 ! R45   R(40,41)                1.5418                                         !
 ! R46   R(40,49)                1.0974                                         !
 ! R47   R(40,50)                1.0961                                         !
 ! R48   R(41,42)                1.5485                                         !
 ! R49   R(41,51)                1.0956                                         !
 ! R50   R(41,52)                1.0916                                         !
 ! R51   R(42,43)                1.5312                                         !
 ! R52   R(42,53)                1.095                                          !
 ! R53   R(42,54)                1.0976                                         !
 ! R54   R(43,44)                1.5252                                         !
 ! R55   R(43,55)                1.0922                                         !
 ! R56   R(43,56)                1.0926                                         !
 ! R57   R(44,57)                1.0597                                         !
 ! R58   R(44,58)                1.0248                                         !
 ! R59   R(44,59)                1.0254                                         !
 ! R60   R(45,46)                1.0112                                         !
 ! A1    A(2,1,20)             110.8293                                         !
 ! A2    A(2,1,21)             110.3347                                         !
 ! A3    A(20,1,21)            109.311                                          !
 ! A4    A(1,2,3)              108.8529                                         !
 ! A5    A(1,2,5)              109.0984                                         !
 ! A6    A(1,2,12)             113.5361                                         !
 ! A7    A(3,2,5)              109.909                                          !
 ! A8    A(3,2,12)             107.9375                                         !
 ! A9    A(5,2,12)             107.467                                          !
 ! A10   A(2,3,4)              122.4121                                         !
 ! A11   A(2,3,22)             118.0589                                         !
 ! A12   A(4,3,22)             119.4163                                         !
 ! A13   A(2,5,6)              111.908                                          !
 ! A14   A(2,5,13)             106.5972                                         !
 ! A15   A(2,5,14)             110.2334                                         !
 ! A16   A(6,5,13)             110.5498                                         !
 ! A17   A(6,5,14)             109.3709                                         !
 ! A18   A(13,5,14)            108.0852                                         !
 ! A19   A(5,6,7)              120.9056                                         !
 ! A20   A(5,6,8)              120.2976                                         !
 ! A21   A(7,6,8)              118.7517                                         !
 ! A22   A(6,7,9)              120.5443                                         !
 ! A23   A(6,7,15)             119.129                                          !
 ! A24   A(9,7,15)             120.3213                                         !
 ! A25   A(6,8,10)             120.8139                                         !
 ! A26   A(6,8,16)             119.5446                                         !
 ! A27   A(10,8,16)            119.6408                                         !
 ! A28   A(7,9,11)             120.2258                                         !
 ! A29   A(7,9,17)             119.7361                                         !
 ! A30   A(11,9,17)            120.038                                          !
 ! A31   A(8,10,11)            119.9914                                         !
 ! A32   A(8,10,18)            119.8705                                         !
 ! A33   A(11,10,18)           120.1376                                         !
 ! A34   A(9,11,10)            119.6727                                         !
 ! A35   A(9,11,19)            120.1883                                         !
 ! A36   A(10,11,19)           120.1387                                         !
 ! A37   A(3,22,23)            116.7678                                         !
 ! A38   A(3,22,28)            128.0676                                         !
 ! A39   A(23,22,28)           111.61                                           !
 ! A40   A(22,23,24)           113.3241                                         !
 ! A41   A(22,23,26)           103.7207                                         !
 ! A42   A(22,23,29)           110.407                                          !
 ! A43   A(24,23,26)           112.8867                                         !
 ! A44   A(24,23,29)           105.3036                                         !
 ! A45   A(26,23,29)           111.3514                                         !
 ! A46   A(23,24,25)           120.8392                                         !
 ! A47   A(23,24,36)           117.2345                                         !
 ! A48   A(25,24,36)           121.8589                                         !
 ! A49   A(23,26,27)           102.4483                                         !
 ! A50   A(23,26,30)           110.0457                                         !
 ! A51   A(23,26,31)           111.6898                                         !
 ! A52   A(27,26,30)           110.2946                                         !
 ! A53   A(27,26,31)           114.079                                          !
 ! A54   A(30,26,31)           108.1961                                         !
 ! A55   A(26,27,28)           103.0347                                         !
 ! A56   A(26,27,32)           113.161                                          !
 ! A57   A(26,27,33)           110.0586                                         !
 ! A58   A(28,27,32)           112.4196                                         !
 ! A59   A(28,27,33)           109.9977                                         !
 ! A60   A(32,27,33)           108.1085                                         !
 ! A61   A(22,28,27)           103.3772                                         !
 ! A62   A(22,28,34)           111.0428                                         !
 ! A63   A(22,28,35)           110.5084                                         !
 ! A64   A(27,28,34)           113.0788                                         !
 ! A65   A(27,28,35)           110.9419                                         !
 ! A66   A(34,28,35)           107.8879                                         !
 ! A67   A(24,36,37)           122.7207                                         !
 ! A68   A(24,36,47)           117.5533                                         !
 ! A69   A(37,36,47)           118.6351                                         !
 ! A70   A(36,37,38)           111.9853                                         !
 ! A71   A(36,37,40)           108.747                                          !
 ! A72   A(36,37,48)           106.0094                                         !
 ! A73   A(38,37,40)           115.5326                                         !
 ! A74   A(38,37,48)           104.4581                                         !
 ! A75   A(40,37,48)           109.6085                                         !
 ! A76   A(37,38,39)           122.932                                          !
 ! A77   A(37,38,45)           116.2987                                         !
 ! A78   A(39,38,45)           120.5892                                         !
 ! A79   A(37,40,41)           117.7351                                         !
 ! A80   A(37,40,49)           108.6841                                         !
 ! A81   A(37,40,50)           106.2114                                         !
 ! A82   A(41,40,49)           106.8675                                         !
 ! A83   A(41,40,50)           110.3085                                         !
 ! A84   A(49,40,50)           106.5233                                         !
 ! A85   A(40,41,42)           116.9217                                         !
 ! A86   A(40,41,51)           107.847                                          !
 ! A87   A(40,41,52)           107.4895                                         !
 ! A88   A(42,41,51)           108.4822                                         !
 ! A89   A(42,41,52)           109.5051                                         !
 ! A90   A(51,41,52)           106.0661                                         !
 ! A91   A(41,42,43)           112.0336                                         !
 ! A92   A(41,42,53)           110.712                                          !
 ! A93   A(41,42,54)           112.4509                                         !
 ! A94   A(43,42,53)           107.5683                                         !
 ! A95   A(43,42,54)           108.4869                                         !
 ! A96   A(53,42,54)           105.2505                                         !
 ! A97   A(42,43,44)           110.5013                                         !
 ! A98   A(42,43,55)           112.9511                                         !
 ! A99   A(42,43,56)           111.3145                                         !
 ! A100  A(44,43,55)           106.609                                          !
 ! A101  A(44,43,56)           106.5648                                         !
 ! A102  A(55,43,56)           108.5924                                         !
 ! A103  A(43,44,57)           111.8346                                         !
 ! A104  A(43,44,58)           112.3955                                         !
 ! A105  A(43,44,59)           110.7977                                         !
 ! A106  A(57,44,58)           109.2013                                         !
 ! A107  A(57,44,59)           105.0952                                         !
 ! A108  A(58,44,59)           107.1591                                         !
 ! A109  A(38,45,46)           111.0639                                         !
 ! D1    D(20,1,2,3)           -34.2003                                         !
 ! D2    D(20,1,2,5)          -154.1355                                         !
 ! D3    D(20,1,2,12)           86.0445                                         !
 ! D4    D(21,1,2,3)          -155.4207                                         !
 ! D5    D(21,1,2,5)            84.6441                                         !
 ! D6    D(21,1,2,12)          -35.1759                                         !
 ! D7    D(1,2,3,4)             -6.4939                                         !
 ! D8    D(1,2,3,22)           177.3918                                         !
 ! D9    D(5,2,3,4)            112.9376                                         !
 ! D10   D(5,2,3,22)           -63.1767                                         !
 ! D11   D(12,2,3,4)          -130.1398                                         !
 ! D12   D(12,2,3,22)           53.7459                                         !
 ! D13   D(1,2,5,6)            -63.8724                                         !
 ! D14   D(1,2,5,13)            57.1023                                         !
 ! D15   D(1,2,5,14)           174.1732                                         !
 ! D16   D(3,2,5,6)            176.8461                                         !
 ! D17   D(3,2,5,13)           -62.1792                                         !
 ! D18   D(3,2,5,14)            54.8917                                         !
 ! D19   D(12,2,5,6)            59.6297                                         !
 ! D20   D(12,2,5,13)         -179.3956                                         !
 ! D21   D(12,2,5,14)          -62.3247                                         !
 ! D22   D(2,3,22,23)         -176.3039                                         !
 ! D23   D(2,3,22,28)          -19.5229                                         !
 ! D24   D(4,3,22,23)            7.4618                                         !
 ! D25   D(4,3,22,28)          164.2428                                         !
 ! D26   D(2,5,6,7)             85.1228                                         !
 ! D27   D(2,5,6,8)            -92.4034                                         !
 ! D28   D(13,5,6,7)           -33.5336                                         !
 ! D29   D(13,5,6,8)           148.9402                                         !
 ! D30   D(14,5,6,7)          -152.4296                                         !
 ! D31   D(14,5,6,8)            30.0442                                         !
 ! D32   D(5,6,7,9)           -177.5785                                         !
 ! D33   D(5,6,7,15)             1.5787                                         !
 ! D34   D(8,6,7,9)             -0.0148                                         !
 ! D35   D(8,6,7,15)           179.1424                                         !
 ! D36   D(5,6,8,10)           177.63                                           !
 ! D37   D(5,6,8,16)            -2.6824                                         !
 ! D38   D(7,6,8,10)             0.051                                          !
 ! D39   D(7,6,8,16)           179.7387                                         !
 ! D40   D(6,7,9,11)            -0.032                                          !
 ! D41   D(6,7,9,17)          -179.9013                                         !
 ! D42   D(15,7,9,11)         -179.1792                                         !
 ! D43   D(15,7,9,17)            0.9515                                         !
 ! D44   D(6,8,10,11)           -0.0405                                         !
 ! D45   D(6,8,10,18)          179.7046                                         !
 ! D46   D(16,8,10,11)        -179.7278                                         !
 ! D47   D(16,8,10,18)           0.0173                                         !
 ! D48   D(7,9,11,10)            0.043                                          !
 ! D49   D(7,9,11,19)         -179.7919                                         !
 ! D50   D(17,9,11,10)         179.9118                                         !
 ! D51   D(17,9,11,19)           0.077                                          !
 ! D52   D(8,10,11,9)           -0.007                                          !
 ! D53   D(8,10,11,19)         179.8279                                         !
 ! D54   D(18,10,11,9)        -179.7514                                         !
 ! D55   D(18,10,11,19)          0.0835                                         !
 ! D56   D(3,22,23,24)         -64.3403                                         !
 ! D57   D(3,22,23,26)         172.8921                                         !
 ! D58   D(3,22,23,29)          53.5045                                         !
 ! D59   D(28,22,23,24)        135.1624                                         !
 ! D60   D(28,22,23,26)         12.3947                                         !
 ! D61   D(28,22,23,29)       -106.9929                                         !
 ! D62   D(3,22,28,27)        -145.2678                                         !
 ! D63   D(3,22,28,34)         -23.7199                                         !
 ! D64   D(3,22,28,35)          95.9681                                         !
 ! D65   D(23,22,28,27)         12.4845                                         !
 ! D66   D(23,22,28,34)        134.0324                                         !
 ! D67   D(23,22,28,35)       -106.2795                                         !
 ! D68   D(22,23,24,25)        157.8725                                         !
 ! D69   D(22,23,24,36)        -25.0598                                         !
 ! D70   D(26,23,24,25)        -84.5864                                         !
 ! D71   D(26,23,24,36)         92.4813                                         !
 ! D72   D(29,23,24,25)         37.0981                                         !
 ! D73   D(29,23,24,36)       -145.8342                                         !
 ! D74   D(22,23,26,27)        -32.0862                                         !
 ! D75   D(22,23,26,30)         85.2137                                         !
 ! D76   D(22,23,26,31)       -154.5968                                         !
 ! D77   D(24,23,26,27)       -155.1423                                         !
 ! D78   D(24,23,26,30)        -37.8424                                         !
 ! D79   D(24,23,26,31)         82.3472                                         !
 ! D80   D(29,23,26,27)         86.6531                                         !
 ! D81   D(29,23,26,30)       -156.047                                          !
 ! D82   D(29,23,26,31)        -35.8575                                         !
 ! D83   D(23,24,36,37)       -177.4812                                         !
 ! D84   D(23,24,36,47)         14.6378                                         !
 ! D85   D(25,24,36,37)         -0.4455                                         !
 ! D86   D(25,24,36,47)       -168.3265                                         !
 ! D87   D(23,26,27,28)         39.8815                                         !
 ! D88   D(23,26,27,32)        161.5381                                         !
 ! D89   D(23,26,27,33)        -77.3912                                         !
 ! D90   D(30,26,27,28)        -77.2407                                         !
 ! D91   D(30,26,27,32)         44.416                                          !
 ! D92   D(30,26,27,33)        165.4866                                         !
 ! D93   D(31,26,27,28)        160.7587                                         !
 ! D94   D(31,26,27,32)        -77.5846                                         !
 ! D95   D(31,26,27,33)         43.4861                                         !
 ! D96   D(26,27,28,22)        -32.2927                                         !
 ! D97   D(26,27,28,34)       -152.4594                                         !
 ! D98   D(26,27,28,35)         86.1707                                         !
 ! D99   D(32,27,28,22)       -154.4497                                         !
 ! D100  D(32,27,28,34)         85.3836                                         !
 ! D101  D(32,27,28,35)        -35.9863                                         !
 ! D102  D(33,27,28,22)         85.023                                          !
 ! D103  D(33,27,28,34)        -35.1437                                         !
 ! D104  D(33,27,28,35)       -156.5136                                         !
 ! D105  D(24,36,37,38)        -68.9746                                         !
 ! D106  D(24,36,37,40)        162.1306                                         !
 ! D107  D(24,36,37,48)         44.3509                                         !
 ! D108  D(47,36,37,38)         98.7818                                         !
 ! D109  D(47,36,37,40)        -30.1131                                         !
 ! D110  D(47,36,37,48)       -147.8927                                         !
 ! D111  D(36,37,38,39)       -124.4087                                         !
 ! D112  D(36,37,38,45)         60.4508                                         !
 ! D113  D(40,37,38,39)          0.828                                          !
 ! D114  D(40,37,38,45)       -174.3125                                         !
 ! D115  D(48,37,38,39)        121.3081                                         !
 ! D116  D(48,37,38,45)        -53.8325                                         !
 ! D117  D(36,37,40,41)        169.4568                                         !
 ! D118  D(36,37,40,49)         47.8645                                         !
 ! D119  D(36,37,40,50)        -66.4019                                         !
 ! D120  D(38,37,40,41)         42.5688                                         !
 ! D121  D(38,37,40,49)        -79.0234                                         !
 ! D122  D(38,37,40,50)        166.7101                                         !
 ! D123  D(48,37,40,41)        -75.0702                                         !
 ! D124  D(48,37,40,49)        163.3376                                         !
 ! D125  D(48,37,40,50)         49.0711                                         !
 ! D126  D(37,38,45,46)         -7.1075                                         !
 ! D127  D(39,38,45,46)        177.6301                                         !
 ! D128  D(37,40,41,42)         44.4568                                         !
 ! D129  D(37,40,41,51)        166.9374                                         !
 ! D130  D(37,40,41,52)        -79.0911                                         !
 ! D131  D(49,40,41,42)        166.979                                          !
 ! D132  D(49,40,41,51)        -70.5403                                         !
 ! D133  D(49,40,41,52)         43.4312                                         !
 ! D134  D(50,40,41,42)        -77.6106                                         !
 ! D135  D(50,40,41,51)         44.8701                                         !
 ! D136  D(50,40,41,52)        158.8416                                         !
 ! D137  D(40,41,42,43)       -147.1185                                         !
 ! D138  D(40,41,42,53)         92.8055                                         !
 ! D139  D(40,41,42,54)        -24.6149                                         !
 ! D140  D(51,41,42,43)         90.7302                                         !
 ! D141  D(51,41,42,53)        -29.3458                                         !
 ! D142  D(51,41,42,54)       -146.7661                                         !
 ! D143  D(52,41,42,43)        -24.6079                                         !
 ! D144  D(52,41,42,53)       -144.6839                                         !
 ! D145  D(52,41,42,54)         97.8957                                         !
 ! D146  D(41,42,43,44)         77.601                                          !
 ! D147  D(41,42,43,55)       -163.0755                                         !
 ! D148  D(41,42,43,56)        -40.6032                                         !
 ! D149  D(53,42,43,44)       -160.5057                                         !
 ! D150  D(53,42,43,55)        -41.1822                                         !
 ! D151  D(53,42,43,56)         81.29                                           !
 ! D152  D(54,42,43,44)        -47.1289                                         !
 ! D153  D(54,42,43,55)         72.1947                                         !
 ! D154  D(54,42,43,56)       -165.3331                                         !
 ! D155  D(42,43,44,57)        -34.5838                                         !
 ! D156  D(42,43,44,58)       -157.8354                                         !
 ! D157  D(42,43,44,59)         82.3067                                         !
 ! D158  D(55,43,44,57)       -157.6748                                         !
 ! D159  D(55,43,44,58)         79.0737                                         !
 ! D160  D(55,43,44,59)        -40.7843                                         !
 ! D161  D(56,43,44,57)         86.4862                                         !
 ! D162  D(56,43,44,58)        -36.7653                                         !
 ! D163  D(56,43,44,59)       -156.6233                                         !
 --------------------------------------------------------------------------------
 Symmetry turned off by external request.
 Stoichiometry    C20H31N4O4(1+)
 Framework group  C1[X(C20H31N4O4)]
 Deg. of freedom   171
 Full point group                 C1      NOp   1
                          Input orientation:                          
 ---------------------------------------------------------------------
 Center     Atomic      Atomic             Coordinates (Angstroms)
 Number     Number       Type             X           Y           Z
 ---------------------------------------------------------------------
      1          7           0       -8.089625   16.385969   14.789840
      2          6           0       -9.092407   17.106993   14.020495
      3          6           0       -9.071960   16.595201   12.579541
      4          8           0       -8.228290   15.798918   12.175518
      5          6           0       -8.759004   18.628523   14.047830
      6          6           0       -8.841783   19.198991   15.445076
      7          6           0       -7.749379   19.121822   16.320180
      8          6           0      -10.035295   19.770480   15.905706
      9          6           0       -7.850486   19.605967   17.625323
     10          6           0      -10.138684   20.255928   17.209888
     11          6           0       -9.044649   20.174576   18.073721
     12          1           0      -10.119033   16.985408   14.410232
     13          1           0       -7.742725   18.733836   13.648492
     14          1           0       -9.441546   19.177868   13.389997
     15          1           0       -6.825657   18.667252   15.973958
     16          1           0      -10.890445   19.840844   15.235629
     17          1           0       -6.994933   19.540943   18.292108
     18          1           0      -11.070132   20.700515   17.549586
     19          1           0       -9.121609   20.554273   19.088614
     20          1           0       -8.007873   15.426036   14.466985
     21          1           0       -8.331817   16.389114   15.775690
     22          7           0       -9.992873   17.115774   11.692341
     23          6           0      -10.003648   16.544209   10.337549
     24          6           0       -8.718022   16.795728    9.568395
     25          8           0       -8.395111   16.070646    8.615042
     26          6           0      -11.235227   17.194592    9.676013
     27          6           0      -12.193400   17.372606   10.863166
     28          6           0      -11.259573   17.815524   11.998467
     29          1           0      -10.104528   15.454614   10.383540
     30          1           0      -10.964560   18.171137    9.255736
     31          1           0      -11.634500   16.575531    8.870310
     32          1           0      -12.987635   18.098279   10.669565
     33          1           0      -12.661508   16.414506   11.115246
     34          1           0      -11.629736   17.541278   12.989063
     35          1           0      -11.111658   18.902561   11.983024
     36          7           0       -7.980677   17.873280    9.928928
     37          6           0       -6.753924   18.257595    9.236639
     38          6           0       -5.609217   17.242412    9.478459
     39          8           0       -4.511828   17.566744    9.932646
     40          6           0       -6.427130   19.721907    9.584638
     41          6           0       -5.046576   20.267514    9.168035
     42          6           0       -4.559074   19.924070    7.738964
     43          6           0       -3.037729   19.763349    7.674139
     44          7           0       -2.619496   18.407484    8.233630
     45          8           0       -5.829538   16.012974    9.080458
     46          1           0       -6.785245   15.896850    8.771169
     47          1           0       -8.195091   18.312006   10.816025
     48          1           0       -6.972867   18.173673    8.162652
     49          1           0       -6.505712   19.850884   10.671556
     50          1           0       -7.225446   20.327541    9.140311
     51          1           0       -5.070374   21.357728    9.274265
     52          1           0       -4.318236   19.908727    9.897650
     53          1           0       -4.838277   20.714209    7.034204
     54          1           0       -5.022674   19.009916    7.346305
     55          1           0       -2.647050   19.814710    6.655482
     56          1           0       -2.532316   20.519522    8.279627
     57          1           0       -3.242078   18.102855    9.035257
     58          1           0       -1.642562   18.397253    8.542925
     59          1           0       -2.719840   17.674163    7.524023
 ---------------------------------------------------------------------
 Rotational constants (GHZ):           0.2198363           0.0950929           0.0769013
 Standard basis: 6-31G(d) (6D, 7F)
   482 basis functions,   908 primitive gaussians,   482 cartesian basis functions
   105 alpha electrons      105 beta electrons
       nuclear repulsion energy      2763.3171746024 Hartrees.
 NAtoms=   59 NActive=   59 NUniq=   59 SFac= 1.00D+00 NAtFMM=   60 NAOKFM=F Big=F
 Integral buffers will be    131072 words long.
 Raffenetti 2 integral format.
 Two-electron integral symmetry is turned off.
 Nuclear repulsion after empirical dispersion term =     2763.2467162878 Hartrees.
 One-electron integrals computed using PRISM.
 NBasis=   482 RedAO= T EigKep=  4.67D-04  NBF=   482
 NBsUse=   482 1.00D-06 EigRej= -1.00D+00 NBFU=   482
 Initial guess from the checkpoint file:  "conf-607.chk"
 B after Tr=     0.000000    0.000000    0.000000
         Rot=    1.000000    0.000000    0.000000    0.000000 Ang=   0.00 deg.
 Requested convergence on RMS density matrix=1.00D-08 within 128 cycles.
 Requested convergence on MAX density matrix=1.00D-06.
 Requested convergence on             energy=1.00D-06.
 No special actions if energy rises.
 SCF Done:  E(RB3LYP) =  -1300.59553630     A.U. after    1 cycles
            NFock=  1  Conv=0.71D-08     -V/T= 2.0095

 **********************************************************************

            Population analysis using the SCF Density.

 **********************************************************************

 Alpha  occ. eigenvalues --  -19.29819 -19.26507 -19.23958 -19.20826 -14.60137
 Alpha  occ. eigenvalues --  -14.48387 -14.46081 -14.38088 -10.44798 -10.40688
 Alpha  occ. eigenvalues --  -10.40214 -10.37517 -10.36836 -10.34113 -10.33127
 Alpha  occ. eigenvalues --  -10.32151 -10.31987 -10.31845 -10.30676 -10.29173
 Alpha  occ. eigenvalues --  -10.28630 -10.27066 -10.26106 -10.25255 -10.25040
 Alpha  occ. eigenvalues --  -10.24942 -10.24825 -10.24811  -1.22152  -1.15943
 Alpha  occ. eigenvalues --   -1.14874  -1.13233  -1.12899  -1.05202  -1.03580
 Alpha  occ. eigenvalues --   -0.96183  -0.94824  -0.91491  -0.90502  -0.89140
 Alpha  occ. eigenvalues --   -0.86094  -0.84475  -0.83504  -0.80405  -0.79124
 Alpha  occ. eigenvalues --   -0.78947  -0.75484  -0.74627  -0.73791  -0.72589
 Alpha  occ. eigenvalues --   -0.71664  -0.71149  -0.70370  -0.68924  -0.66732
 Alpha  occ. eigenvalues --   -0.66608  -0.65559  -0.64634  -0.64227  -0.62425
 Alpha  occ. eigenvalues --   -0.60259  -0.60036  -0.59446  -0.59229  -0.57470
 Alpha  occ. eigenvalues --   -0.57170  -0.56991  -0.55683  -0.55451  -0.54774
 Alpha  occ. eigenvalues --   -0.54394  -0.53458  -0.53106  -0.52936  -0.51854
 Alpha  occ. eigenvalues --   -0.51711  -0.51417  -0.50812  -0.50258  -0.50061
 Alpha  occ. eigenvalues --   -0.49301  -0.48560  -0.47973  -0.47840  -0.47176
 Alpha  occ. eigenvalues --   -0.46820  -0.46516  -0.46303  -0.45344  -0.44821
 Alpha  occ. eigenvalues --   -0.44494  -0.44311  -0.43550  -0.43416  -0.41551
 Alpha  occ. eigenvalues --   -0.41042  -0.40284  -0.40017  -0.37981  -0.37194
 Alpha  occ. eigenvalues --   -0.34669  -0.33858  -0.31188  -0.30892  -0.30004
 Alpha virt. eigenvalues --   -0.13120  -0.11337  -0.09816  -0.07695  -0.06402
 Alpha virt. eigenvalues --   -0.06281  -0.06135  -0.04619  -0.03262  -0.02558
 Alpha virt. eigenvalues --   -0.02038  -0.01251  -0.00137   0.00869   0.01419
 Alpha virt. eigenvalues --    0.01606   0.01813   0.02522   0.03397   0.03739
 Alpha virt. eigenvalues --    0.04062   0.04301   0.04819   0.05335   0.05692
 Alpha virt. eigenvalues --    0.06769   0.07469   0.07624   0.08184   0.08311
 Alpha virt. eigenvalues --    0.08744   0.09134   0.09706   0.09734   0.10091
 Alpha virt. eigenvalues --    0.10501   0.10702   0.11142   0.11480   0.12691
 Alpha virt. eigenvalues --    0.12773   0.13289   0.13476   0.14310   0.14495
 Alpha virt. eigenvalues --    0.15069   0.15626   0.15869   0.17062   0.18331
 Alpha virt. eigenvalues --    0.18942   0.19384   0.20874   0.21745   0.23945
 Alpha virt. eigenvalues --    0.24721   0.25234   0.26228   0.27301   0.27856
 Alpha virt. eigenvalues --    0.28334   0.28872   0.31074   0.32042   0.35717
 Alpha virt. eigenvalues --    0.36641   0.37757   0.38157   0.38828   0.40394
 Alpha virt. eigenvalues --    0.41892   0.41985   0.42638   0.43196   0.43968
 Alpha virt. eigenvalues --    0.44359   0.45520   0.45873   0.46505   0.47170
 Alpha virt. eigenvalues --    0.47881   0.48002   0.48665   0.49009   0.49659
 Alpha virt. eigenvalues --    0.50087   0.50408   0.51550   0.51692   0.52339
 Alpha virt. eigenvalues --    0.53070   0.53296   0.53503   0.53819   0.54037
 Alpha virt. eigenvalues --    0.54545   0.54644   0.54948   0.55549   0.56063
 Alpha virt. eigenvalues --    0.56248   0.56395   0.57005   0.58202   0.58641
 Alpha virt. eigenvalues --    0.59168   0.60048   0.60241   0.61114   0.61360
 Alpha virt. eigenvalues --    0.62886   0.64073   0.65131   0.65352   0.65775
 Alpha virt. eigenvalues --    0.66406   0.67302   0.68471   0.69056   0.69902
 Alpha virt. eigenvalues --    0.70477   0.70914   0.71903   0.72487   0.72731
 Alpha virt. eigenvalues --    0.73086   0.74596   0.75099   0.75560   0.75597
 Alpha virt. eigenvalues --    0.76278   0.76659   0.76915   0.77099   0.77524
 Alpha virt. eigenvalues --    0.77921   0.78415   0.78590   0.78681   0.78948
 Alpha virt. eigenvalues --    0.79564   0.79980   0.80418   0.81630   0.81797
 Alpha virt. eigenvalues --    0.82482   0.83242   0.83577   0.84111   0.84641
 Alpha virt. eigenvalues --    0.85604   0.86021   0.86283   0.86707   0.87750
 Alpha virt. eigenvalues --    0.87955   0.89003   0.89475   0.89656   0.91232
 Alpha virt. eigenvalues --    0.91782   0.92137   0.92748   0.94837   0.95526
 Alpha virt. eigenvalues --    0.96201   0.97550   0.98216   0.98598   0.99999
 Alpha virt. eigenvalues --    1.00185   1.01458   1.03287   1.04121   1.04800
 Alpha virt. eigenvalues --    1.06512   1.07846   1.08756   1.09280   1.10943
 Alpha virt. eigenvalues --    1.11623   1.12054   1.13599   1.13857   1.16421
 Alpha virt. eigenvalues --    1.17622   1.20128   1.21250   1.21900   1.23633
 Alpha virt. eigenvalues --    1.24248   1.25176   1.25928   1.27511   1.28553
 Alpha virt. eigenvalues --    1.29510   1.30440   1.31883   1.34085   1.34465
 Alpha virt. eigenvalues --    1.34986   1.35718   1.36683   1.37332   1.38275
 Alpha virt. eigenvalues --    1.39207   1.41470   1.42261   1.43389   1.44851
 Alpha virt. eigenvalues --    1.45288   1.47200   1.47786   1.48495   1.49673
 Alpha virt. eigenvalues --    1.52257   1.52830   1.53837   1.54960   1.55359
 Alpha virt. eigenvalues --    1.56757   1.59268   1.60603   1.62337   1.62648
 Alpha virt. eigenvalues --    1.64516   1.65183   1.66583   1.67398   1.67532
 Alpha virt. eigenvalues --    1.68984   1.69814   1.70006   1.71040   1.71911
 Alpha virt. eigenvalues --    1.73113   1.73598   1.74189   1.74430   1.75454
 Alpha virt. eigenvalues --    1.75706   1.76057   1.76778   1.77337   1.77684
 Alpha virt. eigenvalues --    1.78658   1.80682   1.81247   1.82336   1.82665
 Alpha virt. eigenvalues --    1.83200   1.83432   1.84525   1.85546   1.85926
 Alpha virt. eigenvalues --    1.86569   1.87596   1.87896   1.89472   1.90279
 Alpha virt. eigenvalues --    1.90895   1.91743   1.93079   1.93552   1.94474
 Alpha virt. eigenvalues --    1.95362   1.96032   1.96482   1.97336   1.98293
 Alpha virt. eigenvalues --    1.98834   1.99396   2.00202   2.00525   2.01315
 Alpha virt. eigenvalues --    2.03930   2.05194   2.06005   2.08211   2.08376
 Alpha virt. eigenvalues --    2.08838   2.09570   2.10851   2.12442   2.14789
 Alpha virt. eigenvalues --    2.15587   2.15946   2.17704   2.19227   2.20592
 Alpha virt. eigenvalues --    2.20636   2.21158   2.21427   2.23463   2.24667
 Alpha virt. eigenvalues --    2.24872   2.27816   2.28572   2.29112   2.30685
 Alpha virt. eigenvalues --    2.31582   2.31686   2.33716   2.34380   2.34913
 Alpha virt. eigenvalues --    2.37541   2.38716   2.39384   2.39945   2.41481
 Alpha virt. eigenvalues --    2.44089   2.44288   2.47315   2.48186   2.48634
 Alpha virt. eigenvalues --    2.48855   2.50620   2.51989   2.52447   2.52585
 Alpha virt. eigenvalues --    2.54024   2.54831   2.56562   2.58599   2.58981
 Alpha virt. eigenvalues --    2.60159   2.61360   2.63525   2.64877   2.66746
 Alpha virt. eigenvalues --    2.67906   2.68894   2.69679   2.71065   2.71994
 Alpha virt. eigenvalues --    2.74907   2.76829   2.78820   2.85269   2.86597
 Alpha virt. eigenvalues --    2.88701   2.90954   2.94339   2.97227   2.97716
 Alpha virt. eigenvalues --    2.99354   3.07400   3.11960   3.34912   3.65078
 Alpha virt. eigenvalues --    3.74751   3.84483   3.89597   3.95611   4.01280
 Alpha virt. eigenvalues --    4.03242   4.03465   4.05998   4.07673   4.10147
 Alpha virt. eigenvalues --    4.11651   4.16412   4.17165   4.20631   4.25015
 Alpha virt. eigenvalues --    4.27058   4.27768   4.28992   4.35227   4.38417
 Alpha virt. eigenvalues --    4.39753   4.44731   4.46286   4.53893   4.55853
 Alpha virt. eigenvalues --    4.65576   4.69537
          Condensed to atoms (all electrons):
 Mulliken charges:
               1
     1  N   -0.728289
     2  C   -0.045378
     3  C    0.568800
     4  O   -0.510256
     5  C   -0.350208
     6  C    0.152660
     7  C   -0.178222
     8  C   -0.184288
     9  C   -0.131776
    10  C   -0.127866
    11  C   -0.127785
    12  H    0.143184
    13  H    0.147681
    14  H    0.135842
    15  H    0.145702
    16  H    0.115428
    17  H    0.141392
    18  H    0.140910
    19  H    0.143705
    20  H    0.326337
    21  H    0.316844
    22  N   -0.499265
    23  C   -0.003971
    24  C    0.646600
    25  O   -0.574350
    26  C   -0.306287
    27  C   -0.301176
    28  C   -0.133117
    29  H    0.200019
    30  H    0.154207
    31  H    0.189556
    32  H    0.173934
    33  H    0.173302
    34  H    0.179527
    35  H    0.162733
    36  N   -0.600906
    37  C   -0.076613
    38  C    0.638595
    39  O   -0.530114
    40  C   -0.297935
    41  C   -0.287496
    42  C   -0.296796
    43  C   -0.195859
    44  N   -0.769723
    45  O   -0.549005
    46  H    0.472867
    47  H    0.362722
    48  H    0.193828
    49  H    0.172056
    50  H    0.175615
    51  H    0.174902
    52  H    0.169158
    53  H    0.200929
    54  H    0.157745
    55  H    0.215075
    56  H    0.220811
    57  H    0.466437
    58  H    0.415092
    59  H    0.412486
 Sum of Mulliken charges =   1.00000
 Mulliken charges with hydrogens summed into heavy atoms:
               1
     1  N   -0.085108
     2  C    0.097806
     3  C    0.568800
     4  O   -0.510256
     5  C   -0.066685
     6  C    0.152660
     7  C   -0.032520
     8  C   -0.068860
     9  C    0.009617
    10  C    0.013044
    11  C    0.015920
    22  N   -0.499265
    23  C    0.196048
    24  C    0.646600
    25  O   -0.574350
    26  C    0.037475
    27  C    0.046059
    28  C    0.209142
    36  N   -0.238183
    37  C    0.117214
    38  C    0.638595
    39  O   -0.530114
    40  C    0.049736
    41  C    0.056564
    42  C    0.061878
    43  C    0.240027
    44  N    0.524293
    45  O   -0.076138
 Electronic spatial extent (au):  <R**2>=         407627.9980
 Charge=              1.0000 electrons
 Dipole moment (field-independent basis, Debye):
    X=            -27.1210    Y=             92.3736    Z=             44.1462  Tot=            105.9118
 Quadrupole moment (field-independent basis, Debye-Ang):
   XX=             81.2356   YY=           1609.0124   ZZ=            281.9703
   XY=           -514.1411   XZ=           -292.8553   YZ=            847.4146
 Traceless Quadrupole moment (field-independent basis, Debye-Ang):
   XX=           -576.1705   YY=            951.6063   ZZ=           -375.4358
   XY=           -514.1411   XZ=           -292.8553   YZ=            847.4146
 Octapole moment (field-independent basis, Debye-Ang**2):
  XXX=           1239.7992  YYY=          25060.6722  ZZZ=           -669.7645  XYY=          -8448.3369
  XXY=           1549.8123  XXZ=            941.5165  XZZ=          -2153.3442  YZZ=           5559.6331
  YYZ=          14306.7241  XYZ=          -5508.5239
 Hexadecapole moment (field-independent basis, Debye-Ang**3):
 XXXX=         -37569.6647 YYYY=         324831.5467 ZZZZ=         -78543.1178 XXXY=          22114.3705
 XXXZ=          15942.0565 YYYX=        -114584.3256 YYYZ=         204960.9362 ZZZX=           2974.5784
 ZZZY=          -7860.0115 XXYY=          18092.2313 XXZZ=            -69.6623 YYZZ=          84428.8876
 XXYZ=          17558.3780 YYXZ=         -87868.2080 ZZXY=         -41239.7330
 N-N= 2.763246716288D+03 E-N=-8.530711362907D+03  KE= 1.288353199046D+03
 Unable to Open any file for archive entry.
 1\1\GINC-SKL-152\SP\RB3LYP\6-31G(d)\C20H31N4O4(1+)\KENGMITH\25-May-202
 2\0\\# B3LYP/6-31G* empiricaldispersion=gd3 guess=read geom=check nosy
 mm integral(ultrafinegrid)\\Candidate Structure: Conf:607 Charge calc 
 in gas phase\\1,1\N,0,-8.0896250118,16.3859688152,14.7898404372\C,0,-9
 .0924073012,17.106993379,14.0204952726\C,0,-9.0719595577,16.5952013777
 ,12.5795407938\O,0,-8.2282898029,15.7989178757,12.175517769\C,0,-8.759
 004295,18.6285233683,14.0478296049\C,0,-8.8417827996,19.1989912771,15.
 4450761104\C,0,-7.7493787121,19.1218219996,16.3201804327\C,0,-10.03529
 45208,19.7704804764,15.905705748\C,0,-7.8504859547,19.6059673673,17.62
 53234553\C,0,-10.1386836117,20.255928038,17.2098875399\C,0,-9.04464872
 17,20.1745760097,18.0737206371\H,0,-10.1190325339,16.9854083216,14.410
 2316666\H,0,-7.7427254392,18.7338361672,13.6484924957\H,0,-9.441545850
 2,19.1778681466,13.389996548\H,0,-6.8256573706,18.6672524079,15.973958
 3062\H,0,-10.8904452659,19.8408438404,15.2356288671\H,0,-6.994933214,1
 9.5409432988,18.2921076805\H,0,-11.0701315394,20.7005149545,17.5495855
 811\H,0,-9.1216090115,20.5542726035,19.0886135479\H,0,-8.007872664,15.
 4260358754,14.4669846029\H,0,-8.3318171666,16.3891138272,15.7756896137
 \N,0,-9.9928727678,17.1157735946,11.6923412918\C,0,-10.003647904,16.54
 4208757,10.3375493948\C,0,-8.718021959,16.7957278145,9.5683951923\O,0,
 -8.3951110363,16.0706457382,8.6150417785\C,0,-11.235227243,17.19459231
 59,9.6760132394\C,0,-12.1933996201,17.3726059974,10.8631662672\C,0,-11
 .2595726732,17.8155243806,11.9984665408\H,0,-10.1045283266,15.45461368
 87,10.3835398486\H,0,-10.9645595215,18.1711373056,9.2557358019\H,0,-11
 .6344999848,16.5755306763,8.8703100457\H,0,-12.9876345787,18.098279356
 6,10.6695650611\H,0,-12.6615078957,16.414505793,11.1152461644\H,0,-11.
 6297357798,17.5412783295,12.9890626174\H,0,-11.1116584756,18.90256067,
 11.983024251\N,0,-7.9806768494,17.8732797237,9.9289277633\C,0,-6.75392
 44625,18.2575946682,9.2366386791\C,0,-5.6092174958,17.2424116674,9.478
 4589314\O,0,-4.5118279534,17.5667441294,9.9326460252\C,0,-6.4271301376
 ,19.7219067772,9.5846375551\C,0,-5.0465764075,20.2675142615,9.16803538
 61\C,0,-4.5590737467,19.9240701718,7.7389640486\C,0,-3.0377289219,19.7
 63349372,7.6741393097\N,0,-2.6194957132,18.4074842478,8.2336299578\O,0
 ,-5.8295381165,16.0129735913,9.0804576965\H,0,-6.7852449177,15.8968501
 478,8.7711694978\H,0,-8.1950911626,18.3120062696,10.8160249135\H,0,-6.
 9728670114,18.1736727564,8.1626519726\H,0,-6.5057118607,19.8508841061,
 10.6715560413\H,0,-7.2254460718,20.3275413288,9.1403106478\H,0,-5.0703
 741358,21.3577275032,9.2742647312\H,0,-4.3182361084,19.9087265977,9.89
 7649557\H,0,-4.8382768109,20.714208735,7.0342042717\H,0,-5.0226743832,
 19.0099159287,7.3463052657\H,0,-2.6470502804,19.8147102829,6.655481895
 5\H,0,-2.5323162042,20.5195219106,8.2796267176\H,0,-3.2420784308,18.10
 28546946,9.0352572997\H,0,-1.6425624294,18.3972526555,8.5429254037\H,0
 ,-2.7198400975,17.6741632981,7.5240231571\\Version=ES64L-G16RevC.01\HF
 =-1300.5955363\RMSD=7.109e-09\Dipole=4.0751616,2.1711785,-4.7037857\Qu
 adrupole=-428.3686558,707.4959535,-279.1272977,-382.2513412,-217.73072
 ,630.0320027\PG=C01 [X(C20H31N4O4)]\\@
 The archive entry for this job was punched.


 THERE ARE PEOPLE SO ADDICTED TO EXAGERATING THEY
 CAN'T TELL THE TRUTH WITHOUT LYING. -- FORTUNE COOKIE
 Job cpu time:       0 days  0 hours  0 minutes 54.7 seconds.
 Elapsed time:       0 days  0 hours  0 minutes 14.1 seconds.
 File lengths (MBytes):  RWF=    240 Int=      0 D2E=      0 Chk=     32 Scr=     16
 Normal termination of Gaussian 16 at Wed May 25 08:34:56 2022.
