 Entering Gaussian System, Link 0=/opt/software/Gaussian/g16-AVX2-C.01/g16/g16
 Input=charge-conf-472.com
 Output=charge-conf-472.log
 Initial command:
 /opt/software/Gaussian/g16-AVX2-C.01/g16/l1.exe "/mnt/gs18/scratch/users/kengmith/Gau-15547.inp" -scrdir="/mnt/gs18/scratch/users/kengmith/"
 Entering Link 1 = /opt/software/Gaussian/g16-AVX2-C.01/g16/l1.exe PID=     15557.
  
 Copyright (c) 1988-2019, Gaussian, Inc.  All Rights Reserved.
  
 This is part of the Gaussian(R) 16 program.  It is based on
 the Gaussian(R) 09 system (copyright 2009, Gaussian, Inc.),
 the Gaussian(R) 03 system (copyright 2003, Gaussian, Inc.),
 the Gaussian(R) 98 system (copyright 1998, Gaussian, Inc.),
 the Gaussian(R) 94 system (copyright 1995, Gaussian, Inc.),
 the Gaussian 92(TM) system (copyright 1992, Gaussian, Inc.),
 the Gaussian 90(TM) system (copyright 1990, Gaussian, Inc.),
 the Gaussian 88(TM) system (copyright 1988, Gaussian, Inc.),
 the Gaussian 86(TM) system (copyright 1986, Carnegie Mellon
 University), and the Gaussian 82(TM) system (copyright 1983,
 Carnegie Mellon University). Gaussian is a federally registered
 trademark of Gaussian, Inc.
  
 This software contains proprietary and confidential information,
 including trade secrets, belonging to Gaussian, Inc.
  
 This software is provided under written license and may be
 used, copied, transmitted, or stored only in accord with that
 written license.
  
 The following legend is applicable only to US Government
 contracts under FAR:
  
                    RESTRICTED RIGHTS LEGEND
  
 Use, reproduction and disclosure by the US Government is
 subject to restrictions as set forth in subparagraphs (a)
 and (c) of the Commercial Computer Software - Restricted
 Rights clause in FAR 52.227-19.
  
 Gaussian, Inc.
 340 Quinnipiac St., Bldg. 40, Wallingford CT 06492
  
  
 ---------------------------------------------------------------
 Warning -- This program may not be used in any manner that
 competes with the business of Gaussian, Inc. or will provide
 assistance to any competitor of Gaussian, Inc.  The licensee
 of this program is prohibited from giving any competitor of
 Gaussian, Inc. access to this program.  By using this program,
 the user acknowledges that Gaussian, Inc. is engaged in the
 business of creating and licensing software in the field of
 computational chemistry and represents and warrants to the
 licensee that it is not a competitor of Gaussian, Inc. and that
 it will not use this program in any manner prohibited above.
 ---------------------------------------------------------------
  

 Cite this work as:
 Gaussian 16, Revision C.01,
 M. J. Frisch, G. W. Trucks, H. B. Schlegel, G. E. Scuseria, 
 M. A. Robb, J. R. Cheeseman, G. Scalmani, V. Barone, 
 G. A. Petersson, H. Nakatsuji, X. Li, M. Caricato, A. V. Marenich, 
 J. Bloino, B. G. Janesko, R. Gomperts, B. Mennucci, H. P. Hratchian, 
 J. V. Ortiz, A. F. Izmaylov, J. L. Sonnenberg, D. Williams-Young, 
 F. Ding, F. Lipparini, F. Egidi, J. Goings, B. Peng, A. Petrone, 
 T. Henderson, D. Ranasinghe, V. G. Zakrzewski, J. Gao, N. Rega, 
 G. Zheng, W. Liang, M. Hada, M. Ehara, K. Toyota, R. Fukuda, 
 J. Hasegawa, M. Ishida, T. Nakajima, Y. Honda, O. Kitao, H. Nakai, 
 T. Vreven, K. Throssell, J. A. Montgomery, Jr., J. E. Peralta, 
 F. Ogliaro, M. J. Bearpark, J. J. Heyd, E. N. Brothers, K. N. Kudin, 
 V. N. Staroverov, T. A. Keith, R. Kobayashi, J. Normand, 
 K. Raghavachari, A. P. Rendell, J. C. Burant, S. S. Iyengar, 
 J. Tomasi, M. Cossi, J. M. Millam, M. Klene, C. Adamo, R. Cammi, 
 J. W. Ochterski, R. L. Martin, K. Morokuma, O. Farkas, 
 J. B. Foresman, and D. J. Fox, Gaussian, Inc., Wallingford CT, 2019.
 
 ******************************************
 Gaussian 16:  ES64L-G16RevC.01  3-Jul-2019
                25-May-2022 
 ******************************************
 %mem=8gb
 %nproc=4
 Will use up to    4 processors via shared memory.
 %chk=conf-472.chk
 ----------------------------------------------------------------------
 # B3LYP/6-31G* empiricaldispersion=gd3 guess=read geom=check nosymm in
 tegral(ultrafinegrid)
 ----------------------------------------------------------------------
 1/29=2,38=1,172=1/1;
 2/12=2,15=1,40=1/2;
 3/5=1,6=6,7=1,11=2,14=-4,25=1,30=1,74=-5,75=-5,116=-2,124=31/1,2,3;
 4/5=1/1;
 5/5=2,38=6/2;
 6/7=2,8=2,9=2,10=2,28=1/1;
 99/5=1,9=1/99;
 ------------------------------------------------------
 Candidate Structure: Conf:472 Charge calc in gas phase
 ------------------------------------------------------
 Structure from the checkpoint file:  "conf-472.chk"
 Charge =  1 Multiplicity = 1
 Redundant internal coordinates found in file.  (old form).
 N,0,-9.5353186746,18.1154059057,10.3647660625
 C,0,-9.1655109581,19.3804527736,11.057132552
 C,0,-7.6182946472,19.4021969857,11.0720084764
 O,0,-7.0155010269,18.6869519311,10.258404267
 C,0,-9.8746200615,19.4570688208,12.4362200982
 C,0,-11.3248216881,19.0237431056,12.3676979787
 C,0,-11.6959302433,17.728766062,12.7578943182
 C,0,-12.30758831,19.8947569879,11.8767141881
 C,0,-13.0274636561,17.3181688348,12.6641225917
 C,0,-13.6374749057,19.4835341643,11.7811475887
 C,0,-13.9997466029,18.1931214649,12.17553469
 H,0,-9.4972272619,20.2410148756,10.4553120891
 H,0,-9.3365102096,18.835290243,13.153557535
 H,0,-9.8331535191,20.4907869545,12.7848305361
 H,0,-10.9347169238,17.051561647,13.1365776342
 H,0,-12.0324721367,20.9052487387,11.5797897356
 H,0,-13.3054653033,16.3160370842,12.9783771247
 H,0,-14.390783644,20.1712133047,11.4074231838
 H,0,-15.0357002662,17.8740896085,12.1067612058
 H,0,-9.2187180381,18.1626964845,9.3975605568
 H,0,-10.5515870832,18.0252079013,10.3675407521
 N,0,-6.9191223334,20.1361168409,11.9782521981
 C,0,-5.4402021633,19.9910244943,12.0055441663
 C,0,-5.0622504464,18.5073222444,12.0655764793
 O,0,-4.3034145261,18.0081298496,11.2321570945
 C,0,-5.0255459226,20.8579485733,13.2051844584
 C,0,-6.0713612281,21.9822415426,13.1852782855
 C,0,-7.3732819669,21.2392536341,12.8560845918
 H,0,-5.0097721293,20.3626859719,11.071074257
 H,0,-5.0978094119,20.2845943064,14.137627205
 H,0,-3.9969101992,21.2121271166,13.1096194976
 H,0,-6.1374408772,22.5265415138,14.1305148996
 H,0,-5.836236018,22.7016732547,12.3932392029
 H,0,-8.1027073466,21.8688942,12.3405031734
 H,0,-7.8363161543,20.840698315,13.7649411902
 N,0,-5.684097419,17.7540406771,13.0328245686
 C,0,-6.082228334,16.4069922466,12.6090028786
 C,0,-7.6016794443,16.4496735175,12.4260805912
 O,0,-8.3439739297,16.8045810931,13.3212526567
 C,0,-5.5517680034,15.1720224712,13.332061441
 C,0,-5.4800425909,14.0304214139,12.2907042455
 C,0,-4.5326482072,14.3305789994,11.0862461448
 C,0,-5.1419505545,14.6663147109,9.7090887355
 N,0,-5.6807701546,16.081055561,9.5293853604
 O,0,-8.0008961338,16.1829582694,11.1755500269
 H,0,-8.7903012591,16.8658987487,10.9099519409
 H,0,-6.3551964386,18.2269771242,13.6290226217
 H,0,-5.6311926618,16.3463785909,11.6409819929
 H,0,-6.1785515617,14.8916803025,14.1848733916
 H,0,-4.5485564225,15.3937234171,13.7127463694
 H,0,-5.1298969607,13.1224341537,12.7905687403
 H,0,-6.4899665611,13.8008511103,11.9236072793
 H,0,-3.9407494195,13.4298951836,10.8880745252
 H,0,-3.8029899065,15.1067812067,11.3513308473
 H,0,-4.3718195569,14.5528771448,8.9425609746
 H,0,-5.9716146435,13.9971490198,9.4660081383
 H,0,-5.0503013642,16.8091739327,9.9272739413
 H,0,-6.6056728133,16.2112869283,10.0029509455
 H,0,-5.8133095356,16.2958789106,8.537016388
 Recover connectivity data from disk.
                           ----------------------------
                           !    Current Parameters    !
                           ! (Angstroms and Degrees)  !
 --------------------------                            --------------------------
 ! Name  Definition              Value                                          !
 --------------------------------------------------------------------------------
 ! R1    R(1,2)                  1.4888                                         !
 ! R2    R(1,20)                 1.0188                                         !
 ! R3    R(1,21)                 1.0203                                         !
 ! R4    R(2,3)                  1.5474                                         !
 ! R5    R(2,5)                  1.5526                                         !
 ! R6    R(2,12)                 1.1013                                         !
 ! R7    R(3,4)                  1.2397                                         !
 ! R8    R(3,22)                 1.3597                                         !
 ! R9    R(5,6)                  1.5151                                         !
 ! R10   R(5,13)                 1.0912                                         !
 ! R11   R(5,14)                 1.0917                                         !
 ! R12   R(6,7)                  1.4025                                         !
 ! R13   R(6,8)                  1.402                                          !
 ! R14   R(7,9)                  1.3966                                         !
 ! R15   R(7,15)                 1.0869                                         !
 ! R16   R(8,10)                 1.3953                                         !
 ! R17   R(8,16)                 1.0886                                         !
 ! R18   R(9,11)                 1.3963                                         !
 ! R19   R(9,17)                 1.0864                                         !
 ! R20   R(10,11)                1.3971                                         !
 ! R21   R(10,18)                1.0863                                         !
 ! R22   R(11,19)                1.0861                                         !
 ! R23   R(22,23)                1.4863                                         !
 ! R24   R(22,28)                1.4811                                         !
 ! R25   R(23,24)                1.5323                                         !
 ! R26   R(23,26)                1.5371                                         !
 ! R27   R(23,29)                1.0939                                         !
 ! R28   R(24,25)                1.2327                                         !
 ! R29   R(24,36)                1.3747                                         !
 ! R30   R(26,27)                1.5356                                         !
 ! R31   R(26,30)                1.097                                          !
 ! R32   R(26,31)                1.0921                                         !
 ! R33   R(27,28)                1.5347                                         !
 ! R34   R(27,32)                1.0927                                         !
 ! R35   R(27,33)                1.0955                                         !
 ! R36   R(28,34)                1.0929                                         !
 ! R37   R(28,35)                1.0951                                         !
 ! R38   R(36,37)                1.4672                                         !
 ! R39   R(36,47)                1.0146                                         !
 ! R40   R(37,38)                1.531                                          !
 ! R41   R(37,40)                1.5262                                         !
 ! R42   R(37,48)                1.0697                                         !
 ! R43   R(38,39)                1.2159                                         !
 ! R44   R(38,45)                1.3395                                         !
 ! R45   R(40,41)                1.5469                                         !
 ! R46   R(40,49)                1.0949                                         !
 ! R47   R(40,50)                1.0957                                         !
 ! R48   R(41,42)                1.5615                                         !
 ! R49   R(41,51)                1.094                                          !
 ! R50   R(41,52)                1.0988                                         !
 ! R51   R(42,43)                1.5429                                         !
 ! R52   R(42,53)                1.0958                                         !
 ! R53   R(42,54)                1.0978                                         !
 ! R54   R(43,44)                1.5245                                         !
 ! R55   R(43,55)                1.0925                                         !
 ! R56   R(43,56)                1.0933                                         !
 ! R57   R(44,57)                1.0421                                         !
 ! R58   R(44,58)                1.0472                                         !
 ! R59   R(44,59)                1.024                                          !
 ! R60   R(45,46)                1.0771                                         !
 ! A1    A(2,1,20)             108.9577                                         !
 ! A2    A(2,1,21)             108.7403                                         !
 ! A3    A(20,1,21)            108.4348                                         !
 ! A4    A(1,2,3)              105.3533                                         !
 ! A5    A(1,2,5)              109.9722                                         !
 ! A6    A(1,2,12)             109.5744                                         !
 ! A7    A(3,2,5)              116.5785                                         !
 ! A8    A(3,2,12)             107.1841                                         !
 ! A9    A(5,2,12)             108.0155                                         !
 ! A10   A(2,3,4)              118.148                                          !
 ! A11   A(2,3,22)             121.8793                                         !
 ! A12   A(4,3,22)             119.921                                          !
 ! A13   A(2,5,6)              112.5116                                         !
 ! A14   A(2,5,13)             109.3032                                         !
 ! A15   A(2,5,14)             108.2411                                         !
 ! A16   A(6,5,13)             109.8019                                         !
 ! A17   A(6,5,14)             108.7603                                         !
 ! A18   A(13,5,14)            108.1129                                         !
 ! A19   A(5,6,7)              120.3162                                         !
 ! A20   A(5,6,8)              120.6043                                         !
 ! A21   A(7,6,8)              119.0518                                         !
 ! A22   A(6,7,9)              120.3367                                         !
 ! A23   A(6,7,15)             119.1368                                         !
 ! A24   A(9,7,15)             120.5263                                         !
 ! A25   A(6,8,10)             120.5978                                         !
 ! A26   A(6,8,16)             119.6752                                         !
 ! A27   A(10,8,16)            119.7221                                         !
 ! A28   A(7,9,11)             120.2106                                         !
 ! A29   A(7,9,17)             119.7192                                         !
 ! A30   A(11,9,17)            120.0694                                         !
 ! A31   A(8,10,11)            120.0014                                         !
 ! A32   A(8,10,18)            119.8643                                         !
 ! A33   A(11,10,18)           120.1323                                         !
 ! A34   A(9,11,10)            119.801                                          !
 ! A35   A(9,11,19)            120.1495                                         !
 ! A36   A(10,11,19)           120.0488                                         !
 ! A37   A(3,22,23)            118.1133                                         !
 ! A38   A(3,22,28)            129.7445                                         !
 ! A39   A(23,22,28)           111.5269                                         !
 ! A40   A(22,23,24)           109.9189                                         !
 ! A41   A(22,23,26)           103.162                                          !
 ! A42   A(22,23,29)           110.0402                                         !
 ! A43   A(24,23,26)           116.6803                                         !
 ! A44   A(24,23,29)           105.3907                                         !
 ! A45   A(26,23,29)           111.6502                                         !
 ! A46   A(23,24,25)           121.1626                                         !
 ! A47   A(23,24,36)           116.5255                                         !
 ! A48   A(25,24,36)           122.1588                                         !
 ! A49   A(23,26,27)           102.6557                                         !
 ! A50   A(23,26,30)           110.5386                                         !
 ! A51   A(23,26,31)           111.6361                                         !
 ! A52   A(27,26,30)           110.4147                                         !
 ! A53   A(27,26,31)           113.7587                                         !
 ! A54   A(30,26,31)           107.8141                                         !
 ! A55   A(26,27,28)           103.0655                                         !
 ! A56   A(26,27,32)           113.2441                                         !
 ! A57   A(26,27,33)           110.1207                                         !
 ! A58   A(28,27,32)           112.0479                                         !
 ! A59   A(28,27,33)           110.1761                                         !
 ! A60   A(32,27,33)           108.1348                                         !
 ! A61   A(22,28,27)           103.1544                                         !
 ! A62   A(22,28,34)           110.7418                                         !
 ! A63   A(22,28,35)           110.5157                                         !
 ! A64   A(27,28,34)           112.8596                                         !
 ! A65   A(27,28,35)           110.9072                                         !
 ! A66   A(34,28,35)           108.6029                                         !
 ! A67   A(24,36,37)           114.9988                                         !
 ! A68   A(24,36,47)           117.2085                                         !
 ! A69   A(37,36,47)           114.721                                          !
 ! A70   A(36,37,38)           106.1541                                         !
 ! A71   A(36,37,40)           120.7798                                         !
 ! A72   A(36,37,48)           101.4798                                         !
 ! A73   A(38,37,40)           115.0937                                         !
 ! A74   A(38,37,48)           108.1757                                         !
 ! A75   A(40,37,48)           103.6702                                         !
 ! A76   A(37,38,39)           121.7406                                         !
 ! A77   A(37,38,45)           113.6886                                         !
 ! A78   A(39,38,45)           124.2986                                         !
 ! A79   A(37,40,41)           107.1187                                         !
 ! A80   A(37,40,49)           112.1625                                         !
 ! A81   A(37,40,50)           108.609                                          !
 ! A82   A(41,40,49)           111.2197                                         !
 ! A83   A(41,40,50)           109.924                                          !
 ! A84   A(49,40,50)           107.7788                                         !
 ! A85   A(40,41,42)           113.9246                                         !
 ! A86   A(40,41,51)           108.6483                                         !
 ! A87   A(40,41,52)           109.6622                                         !
 ! A88   A(42,41,51)           108.5286                                         !
 ! A89   A(42,41,52)           109.8827                                         !
 ! A90   A(51,41,52)           105.867                                          !
 ! A91   A(41,42,43)           119.3872                                         !
 ! A92   A(41,42,53)           108.0114                                         !
 ! A93   A(41,42,54)           110.6654                                         !
 ! A94   A(43,42,53)           103.3406                                         !
 ! A95   A(43,42,54)           108.9143                                         !
 ! A96   A(53,42,54)           105.4147                                         !
 ! A97   A(42,43,44)           116.5337                                         !
 ! A98   A(42,43,55)           108.9829                                         !
 ! A99   A(42,43,56)           111.4053                                         !
 ! A100  A(44,43,55)           105.2364                                         !
 ! A101  A(44,43,56)           105.8776                                         !
 ! A102  A(55,43,56)           108.3854                                         !
 ! A103  A(43,44,57)           112.9272                                         !
 ! A104  A(43,44,58)           111.9784                                         !
 ! A105  A(43,44,59)           110.7736                                         !
 ! A106  A(57,44,58)           105.9491                                         !
 ! A107  A(57,44,59)           107.5632                                         !
 ! A108  A(58,44,59)           107.3284                                         !
 ! A109  A(38,45,46)           108.8072                                         !
 ! D1    D(20,1,2,3)           -64.8041                                         !
 ! D2    D(20,1,2,5)           168.7932                                         !
 ! D3    D(20,1,2,12)           50.2075                                         !
 ! D4    D(21,1,2,3)           177.1864                                         !
 ! D5    D(21,1,2,5)            50.7837                                         !
 ! D6    D(21,1,2,12)          -67.802                                          !
 ! D7    D(1,2,3,4)             19.8837                                         !
 ! D8    D(1,2,3,22)          -157.4974                                         !
 ! D9    D(5,2,3,4)            142.1209                                         !
 ! D10   D(5,2,3,22)           -35.2602                                         !
 ! D11   D(12,2,3,4)           -96.7685                                         !
 ! D12   D(12,2,3,22)           85.8504                                         !
 ! D13   D(1,2,5,6)            -43.2325                                         !
 ! D14   D(1,2,5,13)            79.0247                                         !
 ! D15   D(1,2,5,14)          -163.4412                                         !
 ! D16   D(3,2,5,6)           -163.0222                                         !
 ! D17   D(3,2,5,13)           -40.765                                          !
 ! D18   D(3,2,5,14)            76.769                                          !
 ! D19   D(12,2,5,6)            76.308                                          !
 ! D20   D(12,2,5,13)         -161.4348                                         !
 ! D21   D(12,2,5,14)          -43.9007                                         !
 ! D22   D(2,3,22,23)          173.9832                                         !
 ! D23   D(2,3,22,28)          -15.8527                                         !
 ! D24   D(4,3,22,23)           -3.3524                                         !
 ! D25   D(4,3,22,28)          166.8116                                         !
 ! D26   D(2,5,6,7)             99.3201                                         !
 ! D27   D(2,5,6,8)            -78.7458                                         !
 ! D28   D(13,5,6,7)           -22.6549                                         !
 ! D29   D(13,5,6,8)           159.2792                                         !
 ! D30   D(14,5,6,7)          -140.7713                                         !
 ! D31   D(14,5,6,8)            41.1627                                         !
 ! D32   D(5,6,7,9)           -178.4316                                         !
 ! D33   D(5,6,7,15)             1.7632                                         !
 ! D34   D(8,6,7,9)             -0.3359                                         !
 ! D35   D(8,6,7,15)           179.8589                                         !
 ! D36   D(5,6,8,10)           178.3244                                         !
 ! D37   D(5,6,8,16)            -2.4856                                         !
 ! D38   D(7,6,8,10)             0.2342                                         !
 ! D39   D(7,6,8,16)           179.4243                                         !
 ! D40   D(6,7,9,11)             0.257                                          !
 ! D41   D(6,7,9,17)          -179.3985                                         !
 ! D42   D(15,7,9,11)         -179.9406                                         !
 ! D43   D(15,7,9,17)            0.4039                                         !
 ! D44   D(6,8,10,11)           -0.0523                                         !
 ! D45   D(6,8,10,18)          179.4474                                         !
 ! D46   D(16,8,10,11)        -179.242                                          !
 ! D47   D(16,8,10,18)           0.2577                                         !
 ! D48   D(7,9,11,10)           -0.0712                                         !
 ! D49   D(7,9,11,19)         -179.7547                                         !
 ! D50   D(17,9,11,10)         179.5831                                         !
 ! D51   D(17,9,11,19)          -0.1004                                         !
 ! D52   D(8,10,11,9)           -0.0309                                         !
 ! D53   D(8,10,11,19)         179.6529                                         !
 ! D54   D(18,10,11,9)        -179.5293                                         !
 ! D55   D(18,10,11,19)          0.1545                                         !
 ! D56   D(3,22,23,24)         -50.2503                                         !
 ! D57   D(3,22,23,26)        -175.3644                                         !
 ! D58   D(3,22,23,29)          65.3862                                         !
 ! D59   D(28,22,23,24)        137.867                                          !
 ! D60   D(28,22,23,26)         12.7529                                         !
 ! D61   D(28,22,23,29)       -106.4965                                         !
 ! D62   D(3,22,28,27)        -158.1585                                         !
 ! D63   D(3,22,28,34)         -37.1545                                         !
 ! D64   D(3,22,28,35)          83.2383                                         !
 ! D65   D(23,22,28,27)         12.5201                                         !
 ! D66   D(23,22,28,34)        133.5241                                         !
 ! D67   D(23,22,28,35)       -106.0831                                         !
 ! D68   D(22,23,24,25)        125.1657                                         !
 ! D69   D(22,23,24,36)        -50.4304                                         !
 ! D70   D(26,23,24,25)       -117.8882                                         !
 ! D71   D(26,23,24,36)         66.5156                                         !
 ! D72   D(29,23,24,25)          6.6244                                         !
 ! D73   D(29,23,24,36)       -168.9717                                         !
 ! D74   D(22,23,26,27)        -32.7259                                         !
 ! D75   D(22,23,26,30)         85.0421                                         !
 ! D76   D(22,23,26,31)       -154.9535                                         !
 ! D77   D(24,23,26,27)       -153.329                                          !
 ! D78   D(24,23,26,30)        -35.561                                          !
 ! D79   D(24,23,26,31)         84.4434                                         !
 ! D80   D(29,23,26,27)         85.4032                                         !
 ! D81   D(29,23,26,30)       -156.8289                                         !
 ! D82   D(29,23,26,31)        -36.8244                                         !
 ! D83   D(23,24,36,37)        140.0919                                         !
 ! D84   D(23,24,36,47)          0.7544                                         !
 ! D85   D(25,24,36,37)        -35.4566                                         !
 ! D86   D(25,24,36,47)       -174.7942                                         !
 ! D87   D(23,26,27,28)         40.8606                                         !
 ! D88   D(23,26,27,32)        162.131                                          !
 ! D89   D(23,26,27,33)        -76.6627                                         !
 ! D90   D(30,26,27,28)        -76.995                                          !
 ! D91   D(30,26,27,32)         44.2754                                         !
 ! D92   D(30,26,27,33)        165.4817                                         !
 ! D93   D(31,26,27,28)        161.6396                                         !
 ! D94   D(31,26,27,32)        -77.09                                           !
 ! D95   D(31,26,27,33)         44.1163                                         !
 ! D96   D(26,27,28,22)        -32.7377                                         !
 ! D97   D(26,27,28,34)       -152.2907                                         !
 ! D98   D(26,27,28,35)         85.5925                                         !
 ! D99   D(32,27,28,22)       -154.8169                                         !
 ! D100  D(32,27,28,34)         85.6301                                         !
 ! D101  D(32,27,28,35)        -36.4867                                         !
 ! D102  D(33,27,28,22)         84.7465                                         !
 ! D103  D(33,27,28,34)        -34.8065                                         !
 ! D104  D(33,27,28,35)       -156.9233                                         !
 ! D105  D(24,36,37,38)       -105.4581                                         !
 ! D106  D(24,36,37,40)        121.1916                                         !
 ! D107  D(24,36,37,48)          7.5095                                         !
 ! D108  D(47,36,37,38)         34.9015                                         !
 ! D109  D(47,36,37,40)        -98.4488                                         !
 ! D110  D(47,36,37,48)        147.8691                                         !
 ! D111  D(36,37,38,39)        -55.6107                                         !
 ! D112  D(36,37,38,45)        118.6385                                         !
 ! D113  D(40,37,38,39)         80.7708                                         !
 ! D114  D(40,37,38,45)       -104.98                                           !
 ! D115  D(48,37,38,39)       -163.8619                                         !
 ! D116  D(48,37,38,45)         10.3872                                         !
 ! D117  D(36,37,40,41)       -149.6867                                         !
 ! D118  D(36,37,40,49)         88.0106                                         !
 ! D119  D(36,37,40,50)        -31.0047                                         !
 ! D120  D(38,37,40,41)         80.7799                                         !
 ! D121  D(38,37,40,49)        -41.5228                                         !
 ! D122  D(38,37,40,50)       -160.5381                                         !
 ! D123  D(48,37,40,41)        -37.1496                                         !
 ! D124  D(48,37,40,49)       -159.4524                                         !
 ! D125  D(48,37,40,50)         81.5323                                         !
 ! D126  D(37,38,45,46)       -138.0784                                         !
 ! D127  D(39,38,45,46)         36.0009                                         !
 ! D128  D(37,40,41,42)         60.5535                                         !
 ! D129  D(37,40,41,51)       -178.3398                                         !
 ! D130  D(37,40,41,52)        -63.0623                                         !
 ! D131  D(49,40,41,42)       -176.5572                                         !
 ! D132  D(49,40,41,51)        -55.4506                                         !
 ! D133  D(49,40,41,52)         59.8269                                         !
 ! D134  D(50,40,41,42)        -57.2731                                         !
 ! D135  D(50,40,41,51)         63.8335                                         !
 ! D136  D(50,40,41,52)        179.111                                          !
 ! D137  D(40,41,42,43)       -106.2584                                         !
 ! D138  D(40,41,42,53)        136.2531                                         !
 ! D139  D(40,41,42,54)         21.3329                                         !
 ! D140  D(51,41,42,43)        132.5684                                         !
 ! D141  D(51,41,42,53)         15.0799                                         !
 ! D142  D(51,41,42,54)        -99.8403                                         !
 ! D143  D(52,41,42,43)         17.238                                          !
 ! D144  D(52,41,42,53)       -100.2505                                         !
 ! D145  D(52,41,42,54)        144.8293                                         !
 ! D146  D(41,42,43,44)         77.8297                                         !
 ! D147  D(41,42,43,55)       -163.3283                                         !
 ! D148  D(41,42,43,56)        -43.7834                                         !
 ! D149  D(53,42,43,44)       -162.2853                                         !
 ! D150  D(53,42,43,55)        -43.4433                                         !
 ! D151  D(53,42,43,56)         76.1016                                         !
 ! D152  D(54,42,43,44)        -50.5683                                         !
 ! D153  D(54,42,43,55)         68.2737                                         !
 ! D154  D(54,42,43,56)       -172.1814                                         !
 ! D155  D(42,43,44,57)         43.0939                                         !
 ! D156  D(42,43,44,58)        -76.4074                                         !
 ! D157  D(42,43,44,59)        163.816                                          !
 ! D158  D(55,43,44,57)        -77.7585                                         !
 ! D159  D(55,43,44,58)        162.7402                                         !
 ! D160  D(55,43,44,59)         42.9635                                         !
 ! D161  D(56,43,44,57)        167.5749                                         !
 ! D162  D(56,43,44,58)         48.0736                                         !
 ! D163  D(56,43,44,59)        -71.703                                          !
 --------------------------------------------------------------------------------
 Symmetry turned off by external request.
 Stoichiometry    C20H31N4O4(1+)
 Framework group  C1[X(C20H31N4O4)]
 Deg. of freedom   171
 Full point group                 C1      NOp   1
                          Input orientation:                          
 ---------------------------------------------------------------------
 Center     Atomic      Atomic             Coordinates (Angstroms)
 Number     Number       Type             X           Y           Z
 ---------------------------------------------------------------------
      1          7           0       -9.535319   18.115406   10.364766
      2          6           0       -9.165511   19.380453   11.057133
      3          6           0       -7.618295   19.402197   11.072008
      4          8           0       -7.015501   18.686952   10.258404
      5          6           0       -9.874620   19.457069   12.436220
      6          6           0      -11.324822   19.023743   12.367698
      7          6           0      -11.695930   17.728766   12.757894
      8          6           0      -12.307588   19.894757   11.876714
      9          6           0      -13.027464   17.318169   12.664123
     10          6           0      -13.637475   19.483534   11.781148
     11          6           0      -13.999747   18.193121   12.175535
     12          1           0       -9.497227   20.241015   10.455312
     13          1           0       -9.336510   18.835290   13.153558
     14          1           0       -9.833154   20.490787   12.784831
     15          1           0      -10.934717   17.051562   13.136578
     16          1           0      -12.032472   20.905249   11.579790
     17          1           0      -13.305465   16.316037   12.978377
     18          1           0      -14.390784   20.171213   11.407423
     19          1           0      -15.035700   17.874090   12.106761
     20          1           0       -9.218718   18.162696    9.397561
     21          1           0      -10.551587   18.025208   10.367541
     22          7           0       -6.919122   20.136117   11.978252
     23          6           0       -5.440202   19.991024   12.005544
     24          6           0       -5.062250   18.507322   12.065576
     25          8           0       -4.303415   18.008130   11.232157
     26          6           0       -5.025546   20.857949   13.205184
     27          6           0       -6.071361   21.982242   13.185278
     28          6           0       -7.373282   21.239254   12.856085
     29          1           0       -5.009772   20.362686   11.071074
     30          1           0       -5.097809   20.284594   14.137627
     31          1           0       -3.996910   21.212127   13.109619
     32          1           0       -6.137441   22.526542   14.130515
     33          1           0       -5.836236   22.701673   12.393239
     34          1           0       -8.102707   21.868894   12.340503
     35          1           0       -7.836316   20.840698   13.764941
     36          7           0       -5.684097   17.754041   13.032825
     37          6           0       -6.082228   16.406992   12.609003
     38          6           0       -7.601679   16.449674   12.426081
     39          8           0       -8.343974   16.804581   13.321253
     40          6           0       -5.551768   15.172022   13.332061
     41          6           0       -5.480043   14.030421   12.290704
     42          6           0       -4.532648   14.330579   11.086246
     43          6           0       -5.141951   14.666315    9.709089
     44          7           0       -5.680770   16.081056    9.529385
     45          8           0       -8.000896   16.182958   11.175550
     46          1           0       -8.790301   16.865899   10.909952
     47          1           0       -6.355196   18.226977   13.629023
     48          1           0       -5.631193   16.346379   11.640982
     49          1           0       -6.178552   14.891680   14.184873
     50          1           0       -4.548556   15.393723   13.712746
     51          1           0       -5.129897   13.122434   12.790569
     52          1           0       -6.489967   13.800851   11.923607
     53          1           0       -3.940749   13.429895   10.888075
     54          1           0       -3.802990   15.106781   11.351331
     55          1           0       -4.371820   14.552877    8.942561
     56          1           0       -5.971615   13.997149    9.466008
     57          1           0       -5.050301   16.809174    9.927274
     58          1           0       -6.605673   16.211287   10.002951
     59          1           0       -5.813310   16.295879    8.537016
 ---------------------------------------------------------------------
 Rotational constants (GHZ):           0.2527588           0.1312268           0.1020572
 Standard basis: 6-31G(d) (6D, 7F)
   482 basis functions,   908 primitive gaussians,   482 cartesian basis functions
   105 alpha electrons      105 beta electrons
       nuclear repulsion energy      2966.5426274957 Hartrees.
 NAtoms=   59 NActive=   59 NUniq=   59 SFac= 1.00D+00 NAtFMM=   60 NAOKFM=F Big=F
 Integral buffers will be    131072 words long.
 Raffenetti 2 integral format.
 Two-electron integral symmetry is turned off.
 Nuclear repulsion after empirical dispersion term =     2966.4584878001 Hartrees.
 One-electron integrals computed using PRISM.
 NBasis=   482 RedAO= T EigKep=  4.62D-04  NBF=   482
 NBsUse=   482 1.00D-06 EigRej= -1.00D+00 NBFU=   482
 Initial guess from the checkpoint file:  "conf-472.chk"
 B after Tr=     0.000000    0.000000    0.000000
         Rot=    1.000000    0.000000    0.000000    0.000000 Ang=   0.00 deg.
 Requested convergence on RMS density matrix=1.00D-08 within 128 cycles.
 Requested convergence on MAX density matrix=1.00D-06.
 Requested convergence on             energy=1.00D-06.
 No special actions if energy rises.
 SCF Done:  E(RB3LYP) =  -1300.61666736     A.U. after    2 cycles
            NFock=  2  Conv=0.87D-08     -V/T= 2.0095

 **********************************************************************

            Population analysis using the SCF Density.

 **********************************************************************

 Alpha  occ. eigenvalues --  -19.28527 -19.25056 -19.24395 -19.24068 -14.56543
 Alpha  occ. eigenvalues --  -14.49014 -14.47832 -14.46813 -10.42881 -10.41347
 Alpha  occ. eigenvalues --  -10.41214 -10.37766 -10.35437 -10.34923 -10.34417
 Alpha  occ. eigenvalues --  -10.34179 -10.31817 -10.30717 -10.30241 -10.30211
 Alpha  occ. eigenvalues --  -10.29737 -10.29388 -10.28430 -10.27424 -10.27098
 Alpha  occ. eigenvalues --  -10.27005 -10.26949 -10.26869  -1.20118  -1.16699
 Alpha  occ. eigenvalues --   -1.15451  -1.11951  -1.11019  -1.06503  -1.04225
 Alpha  occ. eigenvalues --   -1.02620  -0.93871  -0.92931  -0.91518  -0.89111
 Alpha  occ. eigenvalues --   -0.87686  -0.86497  -0.82545  -0.82297  -0.82079
 Alpha  occ. eigenvalues --   -0.77507  -0.76931  -0.74474  -0.72590  -0.71966
 Alpha  occ. eigenvalues --   -0.70906  -0.70281  -0.69376  -0.68804  -0.68753
 Alpha  occ. eigenvalues --   -0.67642  -0.66490  -0.64148  -0.63547  -0.62384
 Alpha  occ. eigenvalues --   -0.61394  -0.60965  -0.60185  -0.59408  -0.58735
 Alpha  occ. eigenvalues --   -0.58517  -0.57953  -0.57411  -0.55590  -0.55452
 Alpha  occ. eigenvalues --   -0.54948  -0.54318  -0.54124  -0.53517  -0.53223
 Alpha  occ. eigenvalues --   -0.52918  -0.52701  -0.52237  -0.51410  -0.50089
 Alpha  occ. eigenvalues --   -0.49939  -0.49900  -0.49180  -0.48802  -0.48522
 Alpha  occ. eigenvalues --   -0.48338  -0.46918  -0.46599  -0.46279  -0.45732
 Alpha  occ. eigenvalues --   -0.45439  -0.44903  -0.44640  -0.43993  -0.42870
 Alpha  occ. eigenvalues --   -0.42394  -0.41923  -0.40174  -0.39283  -0.38227
 Alpha  occ. eigenvalues --   -0.37634  -0.36688  -0.36427  -0.33226  -0.32804
 Alpha virt. eigenvalues --   -0.13145  -0.10909  -0.10064  -0.08626  -0.08408
 Alpha virt. eigenvalues --   -0.07657  -0.04220  -0.02758  -0.01758  -0.01383
 Alpha virt. eigenvalues --   -0.00330  -0.00062   0.00810   0.01231   0.01460
 Alpha virt. eigenvalues --    0.01666   0.02114   0.02816   0.03219   0.03508
 Alpha virt. eigenvalues --    0.04101   0.04550   0.04704   0.05027   0.05503
 Alpha virt. eigenvalues --    0.05550   0.05998   0.06364   0.06880   0.07137
 Alpha virt. eigenvalues --    0.07229   0.07555   0.07973   0.08680   0.08867
 Alpha virt. eigenvalues --    0.09252   0.09537   0.10305   0.10465   0.11071
 Alpha virt. eigenvalues --    0.11185   0.12156   0.12590   0.13711   0.14059
 Alpha virt. eigenvalues --    0.14407   0.14963   0.16057   0.16745   0.16923
 Alpha virt. eigenvalues --    0.17678   0.18053   0.18397   0.19053   0.22712
 Alpha virt. eigenvalues --    0.23061   0.24132   0.24812   0.25122   0.26132
 Alpha virt. eigenvalues --    0.26333   0.28294   0.29982   0.31399   0.35731
 Alpha virt. eigenvalues --    0.37597   0.38106   0.38442   0.38667   0.38926
 Alpha virt. eigenvalues --    0.40490   0.41651   0.41912   0.42413   0.43940
 Alpha virt. eigenvalues --    0.44410   0.44782   0.45510   0.45998   0.46678
 Alpha virt. eigenvalues --    0.46914   0.47453   0.47600   0.48734   0.49029
 Alpha virt. eigenvalues --    0.49305   0.50394   0.50943   0.51314   0.51453
 Alpha virt. eigenvalues --    0.51919   0.52176   0.52867   0.53374   0.53469
 Alpha virt. eigenvalues --    0.53756   0.53933   0.54415   0.55077   0.55672
 Alpha virt. eigenvalues --    0.56091   0.56595   0.57511   0.57611   0.58733
 Alpha virt. eigenvalues --    0.59144   0.59558   0.60701   0.61982   0.62618
 Alpha virt. eigenvalues --    0.62983   0.63964   0.64532   0.65076   0.66467
 Alpha virt. eigenvalues --    0.67307   0.68451   0.69432   0.70168   0.71031
 Alpha virt. eigenvalues --    0.71441   0.71809   0.72469   0.73275   0.73800
 Alpha virt. eigenvalues --    0.73980   0.74653   0.74851   0.75160   0.75734
 Alpha virt. eigenvalues --    0.76185   0.76441   0.76597   0.76751   0.77037
 Alpha virt. eigenvalues --    0.77685   0.77856   0.78528   0.79234   0.79367
 Alpha virt. eigenvalues --    0.79832   0.79968   0.81304   0.81583   0.82522
 Alpha virt. eigenvalues --    0.82701   0.82785   0.83461   0.83834   0.84373
 Alpha virt. eigenvalues --    0.84756   0.85712   0.86077   0.86480   0.87198
 Alpha virt. eigenvalues --    0.88012   0.89868   0.90693   0.90937   0.91354
 Alpha virt. eigenvalues --    0.91822   0.92332   0.94027   0.95277   0.95460
 Alpha virt. eigenvalues --    0.97015   0.97705   0.98325   1.00074   1.01319
 Alpha virt. eigenvalues --    1.02855   1.04595   1.04926   1.05272   1.06219
 Alpha virt. eigenvalues --    1.06458   1.08547   1.09440   1.10484   1.12312
 Alpha virt. eigenvalues --    1.12906   1.14671   1.15553   1.16709   1.18346
 Alpha virt. eigenvalues --    1.19300   1.20456   1.20892   1.22536   1.23628
 Alpha virt. eigenvalues --    1.25988   1.27871   1.28081   1.29648   1.30212
 Alpha virt. eigenvalues --    1.31631   1.33413   1.34120   1.34363   1.35044
 Alpha virt. eigenvalues --    1.35981   1.36091   1.37105   1.37987   1.39896
 Alpha virt. eigenvalues --    1.40247   1.41006   1.42217   1.42324   1.43146
 Alpha virt. eigenvalues --    1.44346   1.47034   1.48735   1.50174   1.51032
 Alpha virt. eigenvalues --    1.51319   1.52534   1.53577   1.55063   1.56340
 Alpha virt. eigenvalues --    1.58009   1.60806   1.61654   1.62518   1.64140
 Alpha virt. eigenvalues --    1.65418   1.65767   1.67075   1.68255   1.69127
 Alpha virt. eigenvalues --    1.69408   1.69808   1.71311   1.71587   1.72213
 Alpha virt. eigenvalues --    1.72425   1.73236   1.73728   1.73938   1.75160
 Alpha virt. eigenvalues --    1.75642   1.76057   1.78016   1.78418   1.79355
 Alpha virt. eigenvalues --    1.80413   1.81137   1.81664   1.82399   1.82598
 Alpha virt. eigenvalues --    1.83822   1.84464   1.85250   1.86099   1.86770
 Alpha virt. eigenvalues --    1.87506   1.88974   1.89193   1.89639   1.90110
 Alpha virt. eigenvalues --    1.91597   1.91910   1.92575   1.93777   1.94796
 Alpha virt. eigenvalues --    1.95347   1.97228   1.97707   1.98252   1.98569
 Alpha virt. eigenvalues --    1.99370   2.00521   2.02023   2.04008   2.04320
 Alpha virt. eigenvalues --    2.06190   2.06281   2.07157   2.07420   2.07986
 Alpha virt. eigenvalues --    2.10470   2.10962   2.11463   2.12802   2.14765
 Alpha virt. eigenvalues --    2.16073   2.16828   2.17338   2.18038   2.18892
 Alpha virt. eigenvalues --    2.20171   2.21021   2.21450   2.22864   2.23443
 Alpha virt. eigenvalues --    2.24557   2.25738   2.27934   2.28120   2.28771
 Alpha virt. eigenvalues --    2.30016   2.30996   2.31811   2.33768   2.35735
 Alpha virt. eigenvalues --    2.36893   2.39061   2.40407   2.41227   2.42335
 Alpha virt. eigenvalues --    2.43919   2.44637   2.46422   2.46890   2.47998
 Alpha virt. eigenvalues --    2.49191   2.50158   2.50827   2.51474   2.52686
 Alpha virt. eigenvalues --    2.53675   2.53906   2.55453   2.56700   2.57884
 Alpha virt. eigenvalues --    2.58145   2.59714   2.62770   2.64453   2.65932
 Alpha virt. eigenvalues --    2.66155   2.66833   2.67788   2.69107   2.69340
 Alpha virt. eigenvalues --    2.71555   2.74025   2.78359   2.83799   2.85443
 Alpha virt. eigenvalues --    2.90931   2.92557   2.94377   2.95663   2.96988
 Alpha virt. eigenvalues --    2.98445   3.01523   3.09560   3.32817   3.77214
 Alpha virt. eigenvalues --    3.83100   3.89425   3.93111   3.98821   4.00992
 Alpha virt. eigenvalues --    4.01841   4.03850   4.07109   4.09162   4.10782
 Alpha virt. eigenvalues --    4.13234   4.18041   4.19651   4.22175   4.26072
 Alpha virt. eigenvalues --    4.27909   4.31104   4.34210   4.39708   4.43071
 Alpha virt. eigenvalues --    4.44965   4.45903   4.48122   4.54852   4.62395
 Alpha virt. eigenvalues --    4.63176   4.72148
          Condensed to atoms (all electrons):
 Mulliken charges:
               1
     1  N   -0.786513
     2  C   -0.070820
     3  C    0.626308
     4  O   -0.578156
     5  C   -0.376815
     6  C    0.110162
     7  C   -0.195585
     8  C   -0.181145
     9  C   -0.129943
    10  C   -0.128554
    11  C   -0.126414
    12  H    0.179996
    13  H    0.196064
    14  H    0.163726
    15  H    0.164590
    16  H    0.127755
    17  H    0.149783
    18  H    0.151090
    19  H    0.152726
    20  H    0.344898
    21  H    0.362767
    22  N   -0.480306
    23  C   -0.019542
    24  C    0.623094
    25  O   -0.547417
    26  C   -0.317872
    27  C   -0.304771
    28  C   -0.138798
    29  H    0.194818
    30  H    0.166564
    31  H    0.193047
    32  H    0.183690
    33  H    0.175911
    34  H    0.180326
    35  H    0.179654
    36  N   -0.581739
    37  C   -0.014748
    38  C    0.610103
    39  O   -0.463596
    40  C   -0.285477
    41  C   -0.293516
    42  C   -0.312707
    43  C   -0.182735
    44  N   -0.811380
    45  O   -0.650583
    46  H    0.474473
    47  H    0.345068
    48  H    0.131696
    49  H    0.179465
    50  H    0.175886
    51  H    0.179698
    52  H    0.159955
    53  H    0.190514
    54  H    0.191592
    55  H    0.205570
    56  H    0.207407
    57  H    0.450349
    58  H    0.450365
    59  H    0.400022
 Sum of Mulliken charges =   1.00000
 Mulliken charges with hydrogens summed into heavy atoms:
               1
     1  N   -0.078848
     2  C    0.109175
     3  C    0.626308
     4  O   -0.578156
     5  C   -0.017025
     6  C    0.110162
     7  C   -0.030995
     8  C   -0.053390
     9  C    0.019840
    10  C    0.022536
    11  C    0.026312
    22  N   -0.480306
    23  C    0.175276
    24  C    0.623094
    25  O   -0.547417
    26  C    0.041739
    27  C    0.054829
    28  C    0.221182
    36  N   -0.236671
    37  C    0.116948
    38  C    0.610103
    39  O   -0.463596
    40  C    0.069874
    41  C    0.046137
    42  C    0.069399
    43  C    0.230242
    44  N    0.489357
    45  O   -0.176110
 Electronic spatial extent (au):  <R**2>=         405414.7565
 Charge=              1.0000 electrons
 Dipole moment (field-independent basis, Debye):
    X=            -33.8098    Y=             85.1320    Z=             51.8603  Tot=            105.2618
 Quadrupole moment (field-independent basis, Debye-Ang):
   XX=            109.4714   YY=           1394.9881   ZZ=            414.0933
   XY=           -615.6106   XZ=           -361.8592   YZ=            935.6912
 Traceless Quadrupole moment (field-independent basis, Debye-Ang):
   XX=           -530.0462   YY=            755.4705   ZZ=           -225.4243
   XY=           -615.6106   XZ=           -361.8592   YZ=            935.6912
 Octapole moment (field-independent basis, Debye-Ang**2):
  XXX=           1256.0341  YYY=          20566.8592  ZZZ=            767.8317  XYY=         -10223.5207
  XXY=           2124.8787  XXZ=            955.5992  XZZ=          -2669.2187  YZZ=           7651.9389
  YYZ=          15511.5274  XYZ=          -6681.5751
 Hexadecapole moment (field-independent basis, Debye-Ang**3):
 XXXX=         -40177.8245 YYYY=         246597.3356 ZZZZ=         -63207.9267 XXXY=          21530.0996
 XXXZ=          18383.5651 YYYX=        -150116.9694 YYYZ=         230082.1584 ZZZX=           2151.6541
 ZZZY=          17559.2743 XXYY=          30766.8946 XXZZ=          -3846.0288 YYZZ=         123889.6911
 XXYZ=          19203.0097 YYXZ=        -111424.1160 ZZXY=         -50560.2134
 N-N= 2.966458487800D+03 E-N=-8.935356896363D+03  KE= 1.288382613332D+03
 Unable to Open any file for archive entry.
 1\1\GINC-SKL-150\SP\RB3LYP\6-31G(d)\C20H31N4O4(1+)\KENGMITH\25-May-202
 2\0\\# B3LYP/6-31G* empiricaldispersion=gd3 guess=read geom=check nosy
 mm integral(ultrafinegrid)\\Candidate Structure: Conf:472 Charge calc 
 in gas phase\\1,1\N,0,-9.5353186746,18.1154059057,10.3647660625\C,0,-9
 .1655109581,19.3804527736,11.057132552\C,0,-7.6182946472,19.4021969857
 ,11.0720084764\O,0,-7.0155010269,18.6869519311,10.258404267\C,0,-9.874
 6200615,19.4570688208,12.4362200982\C,0,-11.3248216881,19.0237431056,1
 2.3676979787\C,0,-11.6959302433,17.728766062,12.7578943182\C,0,-12.307
 58831,19.8947569879,11.8767141881\C,0,-13.0274636561,17.3181688348,12.
 6641225917\C,0,-13.6374749057,19.4835341643,11.7811475887\C,0,-13.9997
 466029,18.1931214649,12.17553469\H,0,-9.4972272619,20.2410148756,10.45
 53120891\H,0,-9.3365102096,18.835290243,13.153557535\H,0,-9.8331535191
 ,20.4907869545,12.7848305361\H,0,-10.9347169238,17.051561647,13.136577
 6342\H,0,-12.0324721367,20.9052487387,11.5797897356\H,0,-13.3054653033
 ,16.3160370842,12.9783771247\H,0,-14.390783644,20.1712133047,11.407423
 1838\H,0,-15.0357002662,17.8740896085,12.1067612058\H,0,-9.2187180381,
 18.1626964845,9.3975605568\H,0,-10.5515870832,18.0252079013,10.3675407
 521\N,0,-6.9191223334,20.1361168409,11.9782521981\C,0,-5.4402021633,19
 .9910244943,12.0055441663\C,0,-5.0622504464,18.5073222444,12.065576479
 3\O,0,-4.3034145261,18.0081298496,11.2321570945\C,0,-5.0255459226,20.8
 579485733,13.2051844584\C,0,-6.0713612281,21.9822415426,13.1852782855\
 C,0,-7.3732819669,21.2392536341,12.8560845918\H,0,-5.0097721293,20.362
 6859719,11.071074257\H,0,-5.0978094119,20.2845943064,14.137627205\H,0,
 -3.9969101992,21.2121271166,13.1096194976\H,0,-6.1374408772,22.5265415
 138,14.1305148996\H,0,-5.836236018,22.7016732547,12.3932392029\H,0,-8.
 1027073466,21.8688942,12.3405031734\H,0,-7.8363161543,20.840698315,13.
 7649411902\N,0,-5.684097419,17.7540406771,13.0328245686\C,0,-6.0822283
 34,16.4069922466,12.6090028786\C,0,-7.6016794443,16.4496735175,12.4260
 805912\O,0,-8.3439739297,16.8045810931,13.3212526567\C,0,-5.5517680034
 ,15.1720224712,13.332061441\C,0,-5.4800425909,14.0304214139,12.2907042
 455\C,0,-4.5326482072,14.3305789994,11.0862461448\C,0,-5.1419505545,14
 .6663147109,9.7090887355\N,0,-5.6807701546,16.081055561,9.5293853604\O
 ,0,-8.0008961338,16.1829582694,11.1755500269\H,0,-8.7903012591,16.8658
 987487,10.9099519409\H,0,-6.3551964386,18.2269771242,13.6290226217\H,0
 ,-5.6311926618,16.3463785909,11.6409819929\H,0,-6.1785515617,14.891680
 3025,14.1848733916\H,0,-4.5485564225,15.3937234171,13.7127463694\H,0,-
 5.1298969607,13.1224341537,12.7905687403\H,0,-6.4899665611,13.80085111
 03,11.9236072793\H,0,-3.9407494195,13.4298951836,10.8880745252\H,0,-3.
 8029899065,15.1067812067,11.3513308473\H,0,-4.3718195569,14.5528771448
 ,8.9425609746\H,0,-5.9716146435,13.9971490198,9.4660081383\H,0,-5.0503
 013642,16.8091739327,9.9272739413\H,0,-6.6056728133,16.2112869283,10.0
 029509455\H,0,-5.8133095356,16.2958789106,8.537016388\\Version=ES64L-G
 16RevC.01\HF=-1300.6166674\RMSD=8.721e-09\Dipole=1.4485159,-0.5043835,
 -2.0423668\Quadrupole=-394.0763681,561.6738118,-167.5974437,-457.69138
 53,-269.0334365,695.6634896\PG=C01 [X(C20H31N4O4)]\\@
 The archive entry for this job was punched.


 Children are likely to live up to what you believe of them.
 -- Lady Bird Johnson
 Job cpu time:       0 days  0 hours  1 minutes 50.5 seconds.
 Elapsed time:       0 days  0 hours  0 minutes 28.1 seconds.
 File lengths (MBytes):  RWF=    240 Int=      0 D2E=      0 Chk=     32 Scr=     16
 Normal termination of Gaussian 16 at Wed May 25 08:35:10 2022.
