 Entering Gaussian System, Link 0=/opt/software/Gaussian/g16-AVX2-C.01/g16/g16
 Input=charge-conf-669.com
 Output=charge-conf-669.log
 Initial command:
 /opt/software/Gaussian/g16-AVX2-C.01/g16/l1.exe "/mnt/gs18/scratch/users/kengmith/Gau-7973.inp" -scrdir="/mnt/gs18/scratch/users/kengmith/"
 Entering Link 1 = /opt/software/Gaussian/g16-AVX2-C.01/g16/l1.exe PID=      7983.
  
 Copyright (c) 1988-2019, Gaussian, Inc.  All Rights Reserved.
  
 This is part of the Gaussian(R) 16 program.  It is based on
 the Gaussian(R) 09 system (copyright 2009, Gaussian, Inc.),
 the Gaussian(R) 03 system (copyright 2003, Gaussian, Inc.),
 the Gaussian(R) 98 system (copyright 1998, Gaussian, Inc.),
 the Gaussian(R) 94 system (copyright 1995, Gaussian, Inc.),
 the Gaussian 92(TM) system (copyright 1992, Gaussian, Inc.),
 the Gaussian 90(TM) system (copyright 1990, Gaussian, Inc.),
 the Gaussian 88(TM) system (copyright 1988, Gaussian, Inc.),
 the Gaussian 86(TM) system (copyright 1986, Carnegie Mellon
 University), and the Gaussian 82(TM) system (copyright 1983,
 Carnegie Mellon University). Gaussian is a federally registered
 trademark of Gaussian, Inc.
  
 This software contains proprietary and confidential information,
 including trade secrets, belonging to Gaussian, Inc.
  
 This software is provided under written license and may be
 used, copied, transmitted, or stored only in accord with that
 written license.
  
 The following legend is applicable only to US Government
 contracts under FAR:
  
                    RESTRICTED RIGHTS LEGEND
  
 Use, reproduction and disclosure by the US Government is
 subject to restrictions as set forth in subparagraphs (a)
 and (c) of the Commercial Computer Software - Restricted
 Rights clause in FAR 52.227-19.
  
 Gaussian, Inc.
 340 Quinnipiac St., Bldg. 40, Wallingford CT 06492
  
  
 ---------------------------------------------------------------
 Warning -- This program may not be used in any manner that
 competes with the business of Gaussian, Inc. or will provide
 assistance to any competitor of Gaussian, Inc.  The licensee
 of this program is prohibited from giving any competitor of
 Gaussian, Inc. access to this program.  By using this program,
 the user acknowledges that Gaussian, Inc. is engaged in the
 business of creating and licensing software in the field of
 computational chemistry and represents and warrants to the
 licensee that it is not a competitor of Gaussian, Inc. and that
 it will not use this program in any manner prohibited above.
 ---------------------------------------------------------------
  

 Cite this work as:
 Gaussian 16, Revision C.01,
 M. J. Frisch, G. W. Trucks, H. B. Schlegel, G. E. Scuseria, 
 M. A. Robb, J. R. Cheeseman, G. Scalmani, V. Barone, 
 G. A. Petersson, H. Nakatsuji, X. Li, M. Caricato, A. V. Marenich, 
 J. Bloino, B. G. Janesko, R. Gomperts, B. Mennucci, H. P. Hratchian, 
 J. V. Ortiz, A. F. Izmaylov, J. L. Sonnenberg, D. Williams-Young, 
 F. Ding, F. Lipparini, F. Egidi, J. Goings, B. Peng, A. Petrone, 
 T. Henderson, D. Ranasinghe, V. G. Zakrzewski, J. Gao, N. Rega, 
 G. Zheng, W. Liang, M. Hada, M. Ehara, K. Toyota, R. Fukuda, 
 J. Hasegawa, M. Ishida, T. Nakajima, Y. Honda, O. Kitao, H. Nakai, 
 T. Vreven, K. Throssell, J. A. Montgomery, Jr., J. E. Peralta, 
 F. Ogliaro, M. J. Bearpark, J. J. Heyd, E. N. Brothers, K. N. Kudin, 
 V. N. Staroverov, T. A. Keith, R. Kobayashi, J. Normand, 
 K. Raghavachari, A. P. Rendell, J. C. Burant, S. S. Iyengar, 
 J. Tomasi, M. Cossi, J. M. Millam, M. Klene, C. Adamo, R. Cammi, 
 J. W. Ochterski, R. L. Martin, K. Morokuma, O. Farkas, 
 J. B. Foresman, and D. J. Fox, Gaussian, Inc., Wallingford CT, 2019.
 
 ******************************************
 Gaussian 16:  ES64L-G16RevC.01  3-Jul-2019
                25-May-2022 
 ******************************************
 %mem=8gb
 %nproc=4
 Will use up to    4 processors via shared memory.
 %chk=conf-669.chk
 ----------------------------------------------------------------------
 # B3LYP/6-31G* empiricaldispersion=gd3 guess=read geom=check nosymm in
 tegral(ultrafinegrid)
 ----------------------------------------------------------------------
 1/29=2,38=1,172=1/1;
 2/12=2,15=1,40=1/2;
 3/5=1,6=6,7=1,11=2,14=-4,25=1,30=1,74=-5,75=-5,116=-2,124=31/1,2,3;
 4/5=1/1;
 5/5=2,38=6/2;
 6/7=2,8=2,9=2,10=2,28=1/1;
 99/5=1,9=1/99;
 ------------------------------------------------------
 Candidate Structure: Conf:669 Charge calc in gas phase
 ------------------------------------------------------
 Structure from the checkpoint file:  "conf-669.chk"
 Charge =  1 Multiplicity = 1
 Redundant internal coordinates found in file.  (old form).
 N,0,-6.9768570116,17.7208425933,13.7395249045
 C,0,-7.6452910937,19.027962088,13.4923258041
 C,0,-8.9180970264,18.6900305083,12.6797522793
 O,0,-9.3442103063,17.5264532644,12.7173030511
 C,0,-6.6456672053,20.0190031686,12.8371879485
 C,0,-5.2766530999,19.9754960969,13.4848891361
 C,0,-4.2358797233,19.2454486662,12.892599824
 C,0,-5.0422611585,20.6296314989,14.7025618092
 C,0,-2.9830344817,19.1788277562,13.5060627919
 C,0,-3.7911116004,20.5610591632,15.3163231457
 C,0,-2.7583538952,19.8348929974,14.7179578844
 H,0,-7.9755705636,19.4603691896,14.4497766196
 H,0,-6.5587744749,19.7929823501,11.7731641053
 H,0,-7.0493692142,21.0282897239,12.9378875675
 H,0,-4.4166918518,18.7359935065,11.9496158472
 H,0,-5.8400180668,21.2069961502,15.1664268601
 H,0,-2.1810732899,18.6185873363,13.0335174731
 H,0,-3.6200115947,21.0799224771,16.2552317809
 H,0,-1.7824343279,19.7857018403,15.1921673451
 H,0,-7.5770695655,17.1487913196,14.3315357972
 H,0,-6.1010286998,17.8892716852,14.2350116453
 N,0,-9.5363403051,19.6138938064,11.89687758
 C,0,-10.6703151257,19.165853797,11.0470370538
 C,0,-10.2633819369,17.9249055606,10.2455831992
 O,0,-10.9257878741,16.8865701775,10.2975773549
 C,0,-11.0209042666,20.4252930269,10.238595061
 C,0,-10.6981169292,21.5582957536,11.2236270353
 C,0,-9.3920175453,21.0878167645,11.8779831632
 H,0,-11.5057746493,18.8443509236,11.6757557507
 H,0,-10.3852681984,20.5000386655,9.3476731921
 H,0,-12.0612706012,20.4140087516,9.9066695929
 H,0,-10.5870646412,22.5317586851,10.7397495525
 H,0,-11.4897615472,21.6401157855,11.9764914567
 H,0,-9.2605330205,21.4767829925,12.8907918812
 H,0,-8.5254307048,21.3809479988,11.2759673088
 N,0,-9.0810419557,18.004409215,9.5488357448
 C,0,-8.2630594908,16.7866978824,9.5744636548
 C,0,-7.0985292935,17.0760506785,10.5254234217
 O,0,-6.361731964,18.0294173557,10.3625252664
 C,0,-7.8796272542,16.076104918,8.2792765959
 C,0,-7.7466612268,14.5704049126,8.6080308097
 C,0,-9.0610949399,13.9216353908,9.1462816558
 C,0,-9.1738734174,13.5701700409,10.6443692996
 N,0,-9.4553074674,14.7272398826,11.5963218136
 O,0,-7.0589284565,16.2647845086,11.5906013835
 H,0,-6.8208133036,16.8491832281,12.4634913101
 H,0,-8.556099109,18.8695314084,9.6229358769
 H,0,-8.9235648274,16.0964569608,10.0557118508
 H,0,-6.9531549253,16.4714129647,7.8501787077
 H,0,-8.6796132186,16.2290425823,7.5463905321
 H,0,-7.4432042499,14.039684313,7.7007517554
 H,0,-6.9324438847,14.420109739,9.3304470227
 H,0,-9.1894014349,12.9535206485,8.6491548988
 H,0,-9.9351712227,14.5179330428,8.8538526766
 H,0,-10.0045305706,12.874533108,10.7845106631
 H,0,-8.2606232651,13.095289263,11.0127218665
 H,0,-10.1821678426,15.3815754092,11.2364589558
 H,0,-8.6025110713,15.310403362,11.7674047741
 H,0,-9.7746463913,14.3801475257,12.5052052617
 Recover connectivity data from disk.
                           ----------------------------
                           !    Current Parameters    !
                           ! (Angstroms and Degrees)  !
 --------------------------                            --------------------------
 ! Name  Definition              Value                                          !
 --------------------------------------------------------------------------------
 ! R1    R(1,2)                  1.4888                                         !
 ! R2    R(1,20)                 1.0188                                         !
 ! R3    R(1,21)                 1.0203                                         !
 ! R4    R(2,3)                  1.5474                                         !
 ! R5    R(2,5)                  1.5526                                         !
 ! R6    R(2,12)                 1.1013                                         !
 ! R7    R(3,4)                  1.2397                                         !
 ! R8    R(3,22)                 1.3596                                         !
 ! R9    R(5,6)                  1.5151                                         !
 ! R10   R(5,13)                 1.0912                                         !
 ! R11   R(5,14)                 1.0917                                         !
 ! R12   R(6,7)                  1.4025                                         !
 ! R13   R(6,8)                  1.402                                          !
 ! R14   R(7,9)                  1.3966                                         !
 ! R15   R(7,15)                 1.0869                                         !
 ! R16   R(8,10)                 1.3953                                         !
 ! R17   R(8,16)                 1.0885                                         !
 ! R18   R(9,11)                 1.3963                                         !
 ! R19   R(9,17)                 1.0864                                         !
 ! R20   R(10,11)                1.3971                                         !
 ! R21   R(10,18)                1.0863                                         !
 ! R22   R(11,19)                1.0861                                         !
 ! R23   R(22,23)                1.4862                                         !
 ! R24   R(22,28)                1.4811                                         !
 ! R25   R(23,24)                1.5323                                         !
 ! R26   R(23,26)                1.5371                                         !
 ! R27   R(23,29)                1.0939                                         !
 ! R28   R(24,25)                1.2327                                         !
 ! R29   R(24,36)                1.3747                                         !
 ! R30   R(26,27)                1.5356                                         !
 ! R31   R(26,30)                1.097                                          !
 ! R32   R(26,31)                1.0921                                         !
 ! R33   R(27,28)                1.5347                                         !
 ! R34   R(27,32)                1.0927                                         !
 ! R35   R(27,33)                1.0955                                         !
 ! R36   R(28,34)                1.0929                                         !
 ! R37   R(28,35)                1.0951                                         !
 ! R38   R(36,37)                1.4672                                         !
 ! R39   R(36,47)                1.0146                                         !
 ! R40   R(37,38)                1.5311                                         !
 ! R41   R(37,40)                1.5263                                         !
 ! R42   R(37,48)                1.0697                                         !
 ! R43   R(38,39)                1.2159                                         !
 ! R44   R(38,45)                1.3395                                         !
 ! R45   R(40,41)                1.5469                                         !
 ! R46   R(40,49)                1.0949                                         !
 ! R47   R(40,50)                1.0957                                         !
 ! R48   R(41,42)                1.5615                                         !
 ! R49   R(41,51)                1.094                                          !
 ! R50   R(41,52)                1.0988                                         !
 ! R51   R(42,43)                1.5429                                         !
 ! R52   R(42,53)                1.0958                                         !
 ! R53   R(42,54)                1.0978                                         !
 ! R54   R(43,44)                1.5245                                         !
 ! R55   R(43,55)                1.0925                                         !
 ! R56   R(43,56)                1.0933                                         !
 ! R57   R(44,57)                1.0421                                         !
 ! R58   R(44,58)                1.0472                                         !
 ! R59   R(44,59)                1.024                                          !
 ! R60   R(45,46)                1.0771                                         !
 ! A1    A(2,1,20)             108.9626                                         !
 ! A2    A(2,1,21)             108.7304                                         !
 ! A3    A(20,1,21)            108.4345                                         !
 ! A4    A(1,2,3)              105.3525                                         !
 ! A5    A(1,2,5)              109.9629                                         !
 ! A6    A(1,2,12)             109.5745                                         !
 ! A7    A(3,2,5)              116.5765                                         !
 ! A8    A(3,2,12)             107.1937                                         !
 ! A9    A(5,2,12)             108.0182                                         !
 ! A10   A(2,3,4)              118.1503                                         !
 ! A11   A(2,3,22)             121.8692                                         !
 ! A12   A(4,3,22)             119.9276                                         !
 ! A13   A(2,5,6)              112.5216                                         !
 ! A14   A(2,5,13)             109.2989                                         !
 ! A15   A(2,5,14)             108.2471                                         !
 ! A16   A(6,5,13)             109.812                                          !
 ! A17   A(6,5,14)             108.7386                                         !
 ! A18   A(13,5,14)            108.1123                                         !
 ! A19   A(5,6,7)              120.3272                                         !
 ! A20   A(5,6,8)              120.5943                                         !
 ! A21   A(7,6,8)              119.0516                                         !
 ! A22   A(6,7,9)              120.3343                                         !
 ! A23   A(6,7,15)             119.1376                                         !
 ! A24   A(9,7,15)             120.5278                                         !
 ! A25   A(6,8,10)             120.6001                                         !
 ! A26   A(6,8,16)             119.6736                                         !
 ! A27   A(10,8,16)            119.7213                                         !
 ! A28   A(7,9,11)             120.2119                                         !
 ! A29   A(7,9,17)             119.7187                                         !
 ! A30   A(11,9,17)            120.0686                                         !
 ! A31   A(8,10,11)            119.9998                                         !
 ! A32   A(8,10,18)            119.8656                                         !
 ! A33   A(11,10,18)           120.1327                                         !
 ! A34   A(9,11,10)            119.8016                                         !
 ! A35   A(9,11,19)            120.1488                                         !
 ! A36   A(10,11,19)           120.0489                                         !
 ! A37   A(3,22,23)            118.1215                                         !
 ! A38   A(3,22,28)            129.7348                                         !
 ! A39   A(23,22,28)           111.5342                                         !
 ! A40   A(22,23,24)           109.9134                                         !
 ! A41   A(22,23,26)           103.1656                                         !
 ! A42   A(22,23,29)           110.0401                                         !
 ! A43   A(24,23,26)           116.6829                                         !
 ! A44   A(24,23,29)           105.3921                                         !
 ! A45   A(26,23,29)           111.648                                          !
 ! A46   A(23,24,25)           121.1575                                         !
 ! A47   A(23,24,36)           116.5312                                         !
 ! A48   A(25,24,36)           122.1584                                         !
 ! A49   A(23,26,27)           102.6629                                         !
 ! A50   A(23,26,30)           110.5378                                         !
 ! A51   A(23,26,31)           111.6337                                         !
 ! A52   A(27,26,30)           110.4194                                         !
 ! A53   A(27,26,31)           113.7549                                         !
 ! A54   A(30,26,31)           107.8098                                         !
 ! A55   A(26,27,28)           103.0732                                         !
 ! A56   A(26,27,32)           113.2404                                         !
 ! A57   A(26,27,33)           110.1222                                         !
 ! A58   A(28,27,32)           112.049                                          !
 ! A59   A(28,27,33)           110.1727                                         !
 ! A60   A(32,27,33)           108.1319                                         !
 ! A61   A(22,28,27)           103.1547                                         !
 ! A62   A(22,28,34)           110.7377                                         !
 ! A63   A(22,28,35)           110.5174                                         !
 ! A64   A(27,28,34)           112.8556                                         !
 ! A65   A(27,28,35)           110.9152                                         !
 ! A66   A(34,28,35)           108.6011                                         !
 ! A67   A(24,36,37)           115.0032                                         !
 ! A68   A(24,36,47)           117.2119                                         !
 ! A69   A(37,36,47)           114.7051                                         !
 ! A70   A(36,37,38)           106.1437                                         !
 ! A71   A(36,37,40)           120.7744                                         !
 ! A72   A(36,37,48)           101.4876                                         !
 ! A73   A(38,37,40)           115.0862                                         !
 ! A74   A(38,37,48)           108.1892                                         !
 ! A75   A(40,37,48)           103.6786                                         !
 ! A76   A(37,38,39)           121.7279                                         !
 ! A77   A(37,38,45)           113.6987                                         !
 ! A78   A(39,38,45)           124.2988                                         !
 ! A79   A(37,40,41)           107.123                                          !
 ! A80   A(37,40,49)           112.152                                          !
 ! A81   A(37,40,50)           108.6152                                         !
 ! A82   A(41,40,49)           111.2227                                         !
 ! A83   A(41,40,50)           109.9246                                         !
 ! A84   A(49,40,50)           107.7754                                         !
 ! A85   A(40,41,42)           113.9105                                         !
 ! A86   A(40,41,51)           108.6497                                         !
 ! A87   A(40,41,52)           109.6669                                         !
 ! A88   A(42,41,51)           108.5295                                         !
 ! A89   A(42,41,52)           109.8946                                         !
 ! A90   A(51,41,52)           105.8627                                         !
 ! A91   A(41,42,43)           119.3971                                         !
 ! A92   A(41,42,53)           108.0132                                         !
 ! A93   A(41,42,54)           110.6547                                         !
 ! A94   A(43,42,53)           103.3367                                         !
 ! A95   A(43,42,54)           108.9162                                         !
 ! A96   A(53,42,54)           105.4151                                         !
 ! A97   A(42,43,44)           116.5444                                         !
 ! A98   A(42,43,55)           108.9763                                         !
 ! A99   A(42,43,56)           111.4097                                         !
 ! A100  A(44,43,55)           105.2366                                         !
 ! A101  A(44,43,56)           105.8722                                         !
 ! A102  A(55,43,56)           108.3811                                         !
 ! A103  A(43,44,57)           112.9348                                         !
 ! A104  A(43,44,58)           111.9831                                         !
 ! A105  A(43,44,59)           110.7656                                         !
 ! A106  A(57,44,58)           105.948                                          !
 ! A107  A(57,44,59)           107.5673                                         !
 ! A108  A(58,44,59)           107.321                                          !
 ! A109  A(38,45,46)           108.8059                                         !
 ! D1    D(20,1,2,3)           -64.8142                                         !
 ! D2    D(20,1,2,5)           168.7917                                         !
 ! D3    D(20,1,2,12)           50.2082                                         !
 ! D4    D(21,1,2,3)           177.1795                                         !
 ! D5    D(21,1,2,5)            50.7854                                         !
 ! D6    D(21,1,2,12)          -67.7982                                         !
 ! D7    D(1,2,3,4)             19.8619                                         !
 ! D8    D(1,2,3,22)          -157.4887                                         !
 ! D9    D(5,2,3,4)            142.0852                                         !
 ! D10   D(5,2,3,22)           -35.2654                                         !
 ! D11   D(12,2,3,4)           -96.7945                                         !
 ! D12   D(12,2,3,22)           85.855                                          !
 ! D13   D(1,2,5,6)            -43.2257                                         !
 ! D14   D(1,2,5,13)            79.048                                          !
 ! D15   D(1,2,5,14)          -163.4176                                         !
 ! D16   D(3,2,5,6)           -163.0057                                         !
 ! D17   D(3,2,5,13)           -40.732                                          !
 ! D18   D(3,2,5,14)            76.8024                                         !
 ! D19   D(12,2,5,6)            76.3111                                         !
 ! D20   D(12,2,5,13)         -161.4152                                         !
 ! D21   D(12,2,5,14)          -43.8808                                         !
 ! D22   D(2,3,22,23)          173.9472                                         !
 ! D23   D(2,3,22,28)          -15.8417                                         !
 ! D24   D(4,3,22,23)           -3.3573                                         !
 ! D25   D(4,3,22,28)          166.8538                                         !
 ! D26   D(2,5,6,7)             99.4063                                         !
 ! D27   D(2,5,6,8)            -78.6877                                         !
 ! D28   D(13,5,6,7)           -22.5772                                         !
 ! D29   D(13,5,6,8)           159.3288                                         !
 ! D30   D(14,5,6,7)          -140.6859                                         !
 ! D31   D(14,5,6,8)            41.22                                           !
 ! D32   D(5,6,7,9)           -178.4558                                         !
 ! D33   D(5,6,7,15)             1.7469                                         !
 ! D34   D(8,6,7,9)             -0.3326                                         !
 ! D35   D(8,6,7,15)           179.8701                                         !
 ! D36   D(5,6,8,10)           178.345                                          !
 ! D37   D(5,6,8,16)            -2.4667                                         !
 ! D38   D(7,6,8,10)             0.227                                          !
 ! D39   D(7,6,8,16)           179.4153                                         !
 ! D40   D(6,7,9,11)             0.2587                                         !
 ! D41   D(6,7,9,17)          -179.3956                                         !
 ! D42   D(15,7,9,11)         -179.9468                                         !
 ! D43   D(15,7,9,17)            0.3989                                         !
 ! D44   D(6,8,10,11)           -0.0461                                         !
 ! D45   D(6,8,10,18)          179.4471                                         !
 ! D46   D(16,8,10,11)        -179.234                                          !
 ! D47   D(16,8,10,18)           0.2592                                         !
 ! D48   D(7,9,11,10)           -0.0741                                         !
 ! D49   D(7,9,11,19)         -179.7541                                         !
 ! D50   D(17,9,11,10)         179.579                                          !
 ! D51   D(17,9,11,19)          -0.101                                          !
 ! D52   D(8,10,11,9)           -0.032                                          !
 ! D53   D(8,10,11,19)         179.6484                                         !
 ! D54   D(18,10,11,9)        -179.5238                                         !
 ! D55   D(18,10,11,19)          0.1566                                         !
 ! D56   D(3,22,23,24)         -50.2325                                         !
 ! D57   D(3,22,23,26)        -175.3488                                         !
 ! D58   D(3,22,23,29)          65.4025                                         !
 ! D59   D(28,22,23,24)        137.8476                                         !
 ! D60   D(28,22,23,26)         12.7312                                         !
 ! D61   D(28,22,23,29)       -106.5175                                         !
 ! D62   D(3,22,28,27)        -158.201                                          !
 ! D63   D(3,22,28,34)         -37.2036                                         !
 ! D64   D(3,22,28,35)          83.1854                                         !
 ! D65   D(23,22,28,27)         12.5225                                         !
 ! D66   D(23,22,28,34)        133.5199                                         !
 ! D67   D(23,22,28,35)       -106.0911                                         !
 ! D68   D(22,23,24,25)        125.1813                                         !
 ! D69   D(22,23,24,36)        -50.4179                                         !
 ! D70   D(26,23,24,25)       -117.8704                                         !
 ! D71   D(26,23,24,36)         66.5303                                         !
 ! D72   D(29,23,24,25)          6.6422                                         !
 ! D73   D(29,23,24,36)       -168.957                                          !
 ! D74   D(22,23,26,27)        -32.6939                                         !
 ! D75   D(22,23,26,30)         85.0831                                         !
 ! D76   D(22,23,26,31)       -154.9201                                         !
 ! D77   D(24,23,26,27)       -153.294                                          !
 ! D78   D(24,23,26,30)        -35.517                                          !
 ! D79   D(24,23,26,31)         84.4798                                         !
 ! D80   D(29,23,26,27)         85.4361                                         !
 ! D81   D(29,23,26,30)       -156.7869                                         !
 ! D82   D(29,23,26,31)        -36.7901                                         !
 ! D83   D(23,24,36,37)        140.1276                                         !
 ! D84   D(23,24,36,47)          0.8071                                         !
 ! D85   D(25,24,36,37)        -35.4239                                         !
 ! D86   D(25,24,36,47)       -174.7444                                         !
 ! D87   D(23,26,27,28)         40.8299                                         !
 ! D88   D(23,26,27,32)        162.1047                                         !
 ! D89   D(23,26,27,33)        -76.6941                                         !
 ! D90   D(30,26,27,28)        -77.0308                                         !
 ! D91   D(30,26,27,32)         44.2439                                         !
 ! D92   D(30,26,27,33)        165.4451                                         !
 ! D93   D(31,26,27,28)        161.6087                                         !
 ! D94   D(31,26,27,32)        -77.1166                                         !
 ! D95   D(31,26,27,33)         44.0846                                         !
 ! D96   D(26,27,28,22)        -32.7198                                         !
 ! D97   D(26,27,28,34)       -152.2661                                         !
 ! D98   D(26,27,28,35)         85.6163                                         !
 ! D99   D(32,27,28,22)       -154.8                                            !
 ! D100  D(32,27,28,34)         85.6536                                         !
 ! D101  D(32,27,28,35)        -36.4639                                         !
 ! D102  D(33,27,28,22)         84.7687                                         !
 ! D103  D(33,27,28,34)        -34.7777                                         !
 ! D104  D(33,27,28,35)       -156.8952                                         !
 ! D105  D(24,36,37,38)       -105.5097                                         !
 ! D106  D(24,36,37,40)        121.1679                                         !
 ! D107  D(24,36,37,48)          7.4722                                         !
 ! D108  D(47,36,37,38)         34.8409                                         !
 ! D109  D(47,36,37,40)        -98.4815                                         !
 ! D110  D(47,36,37,48)        147.8228                                         !
 ! D111  D(36,37,38,39)        -55.6075                                         !
 ! D112  D(36,37,38,45)        118.6179                                         !
 ! D113  D(40,37,38,39)         80.7492                                         !
 ! D114  D(40,37,38,45)       -105.0254                                         !
 ! D115  D(48,37,38,39)       -163.8685                                         !
 ! D116  D(48,37,38,45)         10.3569                                         !
 ! D117  D(36,37,40,41)       -149.6895                                         !
 ! D118  D(36,37,40,49)         88.0076                                         !
 ! D119  D(36,37,40,50)        -31.0011                                         !
 ! D120  D(38,37,40,41)         80.8085                                         !
 ! D121  D(38,37,40,49)        -41.4945                                         !
 ! D122  D(38,37,40,50)       -160.5032                                         !
 ! D123  D(48,37,40,41)        -37.1391                                         !
 ! D124  D(48,37,40,49)       -159.442                                          !
 ! D125  D(48,37,40,50)         81.5492                                         !
 ! D126  D(37,38,45,46)       -138.0309                                         !
 ! D127  D(39,38,45,46)         36.023                                          !
 ! D128  D(37,40,41,42)         60.525                                          !
 ! D129  D(37,40,41,51)       -178.3755                                         !
 ! D130  D(37,40,41,52)        -63.0998                                         !
 ! D131  D(49,40,41,42)       -176.594                                          !
 ! D132  D(49,40,41,51)        -55.4945                                         !
 ! D133  D(49,40,41,52)         59.7812                                         !
 ! D134  D(50,40,41,42)        -57.3118                                         !
 ! D135  D(50,40,41,51)         63.7877                                         !
 ! D136  D(50,40,41,52)        179.0634                                         !
 ! D137  D(40,41,42,43)       -106.2482                                         !
 ! D138  D(40,41,42,53)        136.2604                                         !
 ! D139  D(40,41,42,54)         21.3443                                         !
 ! D140  D(51,41,42,43)        132.5854                                         !
 ! D141  D(51,41,42,53)         15.094                                          !
 ! D142  D(51,41,42,54)        -99.8221                                         !
 ! D143  D(52,41,42,43)         17.2531                                         !
 ! D144  D(52,41,42,53)       -100.2383                                         !
 ! D145  D(52,41,42,54)        144.8456                                         !
 ! D146  D(41,42,43,44)         77.8485                                         !
 ! D147  D(41,42,43,55)       -163.3071                                         !
 ! D148  D(41,42,43,56)        -43.7691                                         !
 ! D149  D(53,42,43,44)       -162.2612                                         !
 ! D150  D(53,42,43,55)        -43.4168                                         !
 ! D151  D(53,42,43,56)         76.1212                                         !
 ! D152  D(54,42,43,44)        -50.5447                                         !
 ! D153  D(54,42,43,55)         68.2997                                         !
 ! D154  D(54,42,43,56)       -172.1623                                         !
 ! D155  D(42,43,44,57)         43.1069                                         !
 ! D156  D(42,43,44,58)        -76.4016                                         !
 ! D157  D(42,43,44,59)        163.8337                                         !
 ! D158  D(55,43,44,57)        -77.7438                                         !
 ! D159  D(55,43,44,58)        162.7477                                         !
 ! D160  D(55,43,44,59)         42.983                                          !
 ! D161  D(56,43,44,57)        167.5967                                         !
 ! D162  D(56,43,44,58)         48.0882                                         !
 ! D163  D(56,43,44,59)        -71.6766                                         !
 --------------------------------------------------------------------------------
 Symmetry turned off by external request.
 Stoichiometry    C20H31N4O4(1+)
 Framework group  C1[X(C20H31N4O4)]
 Deg. of freedom   171
 Full point group                 C1      NOp   1
                          Input orientation:                          
 ---------------------------------------------------------------------
 Center     Atomic      Atomic             Coordinates (Angstroms)
 Number     Number       Type             X           Y           Z
 ---------------------------------------------------------------------
      1          7           0       -6.976857   17.720843   13.739525
      2          6           0       -7.645291   19.027962   13.492326
      3          6           0       -8.918097   18.690031   12.679752
      4          8           0       -9.344210   17.526453   12.717303
      5          6           0       -6.645667   20.019003   12.837188
      6          6           0       -5.276653   19.975496   13.484889
      7          6           0       -4.235880   19.245449   12.892600
      8          6           0       -5.042261   20.629631   14.702562
      9          6           0       -2.983034   19.178828   13.506063
     10          6           0       -3.791112   20.561059   15.316323
     11          6           0       -2.758354   19.834893   14.717958
     12          1           0       -7.975571   19.460369   14.449777
     13          1           0       -6.558774   19.792982   11.773164
     14          1           0       -7.049369   21.028290   12.937888
     15          1           0       -4.416692   18.735994   11.949616
     16          1           0       -5.840018   21.206996   15.166427
     17          1           0       -2.181073   18.618587   13.033517
     18          1           0       -3.620012   21.079922   16.255232
     19          1           0       -1.782434   19.785702   15.192167
     20          1           0       -7.577070   17.148791   14.331536
     21          1           0       -6.101029   17.889272   14.235012
     22          7           0       -9.536340   19.613894   11.896878
     23          6           0      -10.670315   19.165854   11.047037
     24          6           0      -10.263382   17.924906   10.245583
     25          8           0      -10.925788   16.886570   10.297577
     26          6           0      -11.020904   20.425293   10.238595
     27          6           0      -10.698117   21.558296   11.223627
     28          6           0       -9.392018   21.087817   11.877983
     29          1           0      -11.505775   18.844351   11.675756
     30          1           0      -10.385268   20.500039    9.347673
     31          1           0      -12.061271   20.414009    9.906670
     32          1           0      -10.587065   22.531759   10.739750
     33          1           0      -11.489762   21.640116   11.976491
     34          1           0       -9.260533   21.476783   12.890792
     35          1           0       -8.525431   21.380948   11.275967
     36          7           0       -9.081042   18.004409    9.548836
     37          6           0       -8.263059   16.786698    9.574464
     38          6           0       -7.098529   17.076051   10.525423
     39          8           0       -6.361732   18.029417   10.362525
     40          6           0       -7.879627   16.076105    8.279277
     41          6           0       -7.746661   14.570405    8.608031
     42          6           0       -9.061095   13.921635    9.146282
     43          6           0       -9.173873   13.570170   10.644369
     44          7           0       -9.455307   14.727240   11.596322
     45          8           0       -7.058928   16.264785   11.590601
     46          1           0       -6.820813   16.849183   12.463491
     47          1           0       -8.556099   18.869531    9.622936
     48          1           0       -8.923565   16.096457   10.055712
     49          1           0       -6.953155   16.471413    7.850179
     50          1           0       -8.679613   16.229043    7.546391
     51          1           0       -7.443204   14.039684    7.700752
     52          1           0       -6.932444   14.420110    9.330447
     53          1           0       -9.189401   12.953521    8.649155
     54          1           0       -9.935171   14.517933    8.853853
     55          1           0      -10.004531   12.874533   10.784511
     56          1           0       -8.260623   13.095289   11.012722
     57          1           0      -10.182168   15.381575   11.236459
     58          1           0       -8.602511   15.310403   11.767405
     59          1           0       -9.774646   14.380148   12.505205
 ---------------------------------------------------------------------
 Rotational constants (GHZ):           0.2527570           0.1312302           0.1020655
 Standard basis: 6-31G(d) (6D, 7F)
   482 basis functions,   908 primitive gaussians,   482 cartesian basis functions
   105 alpha electrons      105 beta electrons
       nuclear repulsion energy      2966.5462176377 Hartrees.
 NAtoms=   59 NActive=   59 NUniq=   59 SFac= 1.00D+00 NAtFMM=   60 NAOKFM=F Big=F
 Integral buffers will be    131072 words long.
 Raffenetti 2 integral format.
 Two-electron integral symmetry is turned off.
 Nuclear repulsion after empirical dispersion term =     2966.4620800893 Hartrees.
 One-electron integrals computed using PRISM.
 NBasis=   482 RedAO= T EigKep=  4.62D-04  NBF=   482
 NBsUse=   482 1.00D-06 EigRej= -1.00D+00 NBFU=   482
 Initial guess from the checkpoint file:  "conf-669.chk"
 B after Tr=     0.000000    0.000000    0.000000
         Rot=    1.000000    0.000000    0.000000    0.000000 Ang=   0.00 deg.
 Requested convergence on RMS density matrix=1.00D-08 within 128 cycles.
 Requested convergence on MAX density matrix=1.00D-06.
 Requested convergence on             energy=1.00D-06.
 No special actions if energy rises.
 SCF Done:  E(RB3LYP) =  -1300.61666156     A.U. after    1 cycles
            NFock=  1  Conv=0.97D-08     -V/T= 2.0095

 **********************************************************************

            Population analysis using the SCF Density.

 **********************************************************************

 Alpha  occ. eigenvalues --  -19.28521 -19.25054 -19.24394 -19.24068 -14.56547
 Alpha  occ. eigenvalues --  -14.49014 -14.47831 -14.46815 -10.42879 -10.41346
 Alpha  occ. eigenvalues --  -10.41214 -10.37768 -10.35438 -10.34923 -10.34416
 Alpha  occ. eigenvalues --  -10.34179 -10.31816 -10.30716 -10.30241 -10.30210
 Alpha  occ. eigenvalues --  -10.29735 -10.29391 -10.28431 -10.27424 -10.27098
 Alpha  occ. eigenvalues --  -10.27005 -10.26948 -10.26869  -1.20115  -1.16699
 Alpha  occ. eigenvalues --   -1.15450  -1.11949  -1.11020  -1.06505  -1.04225
 Alpha  occ. eigenvalues --   -1.02623  -0.93871  -0.92929  -0.91518  -0.89109
 Alpha  occ. eigenvalues --   -0.87687  -0.86497  -0.82544  -0.82297  -0.82078
 Alpha  occ. eigenvalues --   -0.77508  -0.76931  -0.74475  -0.72589  -0.71966
 Alpha  occ. eigenvalues --   -0.70906  -0.70281  -0.69377  -0.68804  -0.68752
 Alpha  occ. eigenvalues --   -0.67643  -0.66490  -0.64149  -0.63548  -0.62386
 Alpha  occ. eigenvalues --   -0.61395  -0.60964  -0.60183  -0.59407  -0.58735
 Alpha  occ. eigenvalues --   -0.58515  -0.57953  -0.57411  -0.55589  -0.55453
 Alpha  occ. eigenvalues --   -0.54948  -0.54318  -0.54124  -0.53517  -0.53222
 Alpha  occ. eigenvalues --   -0.52918  -0.52701  -0.52236  -0.51410  -0.50088
 Alpha  occ. eigenvalues --   -0.49940  -0.49899  -0.49179  -0.48802  -0.48523
 Alpha  occ. eigenvalues --   -0.48338  -0.46918  -0.46599  -0.46279  -0.45731
 Alpha  occ. eigenvalues --   -0.45437  -0.44902  -0.44639  -0.43992  -0.42868
 Alpha  occ. eigenvalues --   -0.42394  -0.41922  -0.40174  -0.39281  -0.38226
 Alpha  occ. eigenvalues --   -0.37634  -0.36687  -0.36427  -0.33225  -0.32804
 Alpha virt. eigenvalues --   -0.13144  -0.10910  -0.10062  -0.08627  -0.08407
 Alpha virt. eigenvalues --   -0.07659  -0.04221  -0.02759  -0.01759  -0.01383
 Alpha virt. eigenvalues --   -0.00331  -0.00064   0.00809   0.01231   0.01459
 Alpha virt. eigenvalues --    0.01667   0.02113   0.02814   0.03220   0.03508
 Alpha virt. eigenvalues --    0.04101   0.04550   0.04705   0.05026   0.05502
 Alpha virt. eigenvalues --    0.05548   0.05999   0.06364   0.06880   0.07136
 Alpha virt. eigenvalues --    0.07229   0.07555   0.07972   0.08681   0.08870
 Alpha virt. eigenvalues --    0.09251   0.09536   0.10305   0.10468   0.11075
 Alpha virt. eigenvalues --    0.11188   0.12159   0.12591   0.13710   0.14058
 Alpha virt. eigenvalues --    0.14408   0.14967   0.16060   0.16748   0.16924
 Alpha virt. eigenvalues --    0.17679   0.18056   0.18399   0.19053   0.22712
 Alpha virt. eigenvalues --    0.23059   0.24133   0.24811   0.25123   0.26129
 Alpha virt. eigenvalues --    0.26339   0.28293   0.29983   0.31402   0.35734
 Alpha virt. eigenvalues --    0.37597   0.38107   0.38441   0.38667   0.38927
 Alpha virt. eigenvalues --    0.40491   0.41649   0.41910   0.42414   0.43939
 Alpha virt. eigenvalues --    0.44410   0.44783   0.45515   0.45998   0.46678
 Alpha virt. eigenvalues --    0.46917   0.47455   0.47602   0.48734   0.49028
 Alpha virt. eigenvalues --    0.49305   0.50393   0.50944   0.51315   0.51454
 Alpha virt. eigenvalues --    0.51921   0.52176   0.52866   0.53375   0.53469
 Alpha virt. eigenvalues --    0.53756   0.53934   0.54415   0.55075   0.55670
 Alpha virt. eigenvalues --    0.56094   0.56592   0.57510   0.57613   0.58733
 Alpha virt. eigenvalues --    0.59152   0.59557   0.60699   0.61983   0.62618
 Alpha virt. eigenvalues --    0.62982   0.63964   0.64533   0.65073   0.66463
 Alpha virt. eigenvalues --    0.67307   0.68449   0.69426   0.70164   0.71030
 Alpha virt. eigenvalues --    0.71438   0.71808   0.72466   0.73273   0.73799
 Alpha virt. eigenvalues --    0.73979   0.74651   0.74853   0.75159   0.75736
 Alpha virt. eigenvalues --    0.76184   0.76443   0.76597   0.76753   0.77038
 Alpha virt. eigenvalues --    0.77683   0.77857   0.78529   0.79236   0.79371
 Alpha virt. eigenvalues --    0.79829   0.79974   0.81299   0.81585   0.82528
 Alpha virt. eigenvalues --    0.82701   0.82783   0.83459   0.83831   0.84372
 Alpha virt. eigenvalues --    0.84758   0.85714   0.86078   0.86480   0.87201
 Alpha virt. eigenvalues --    0.88008   0.89869   0.90699   0.90932   0.91364
 Alpha virt. eigenvalues --    0.91818   0.92333   0.94018   0.95278   0.95457
 Alpha virt. eigenvalues --    0.97008   0.97697   0.98322   1.00074   1.01320
 Alpha virt. eigenvalues --    1.02856   1.04597   1.04926   1.05276   1.06211
 Alpha virt. eigenvalues --    1.06458   1.08548   1.09440   1.10485   1.12302
 Alpha virt. eigenvalues --    1.12897   1.14662   1.15553   1.16716   1.18344
 Alpha virt. eigenvalues --    1.19299   1.20444   1.20893   1.22542   1.23628
 Alpha virt. eigenvalues --    1.25983   1.27868   1.28080   1.29643   1.30201
 Alpha virt. eigenvalues --    1.31625   1.33415   1.34123   1.34364   1.35043
 Alpha virt. eigenvalues --    1.35983   1.36093   1.37105   1.37980   1.39897
 Alpha virt. eigenvalues --    1.40248   1.41007   1.42221   1.42320   1.43147
 Alpha virt. eigenvalues --    1.44340   1.47030   1.48741   1.50176   1.51030
 Alpha virt. eigenvalues --    1.51326   1.52536   1.53577   1.55060   1.56339
 Alpha virt. eigenvalues --    1.58010   1.60810   1.61663   1.62517   1.64146
 Alpha virt. eigenvalues --    1.65420   1.65763   1.67073   1.68251   1.69126
 Alpha virt. eigenvalues --    1.69410   1.69804   1.71308   1.71581   1.72214
 Alpha virt. eigenvalues --    1.72424   1.73234   1.73725   1.73935   1.75159
 Alpha virt. eigenvalues --    1.75641   1.76060   1.78015   1.78416   1.79357
 Alpha virt. eigenvalues --    1.80414   1.81135   1.81665   1.82397   1.82595
 Alpha virt. eigenvalues --    1.83821   1.84469   1.85252   1.86103   1.86771
 Alpha virt. eigenvalues --    1.87506   1.88974   1.89195   1.89638   1.90111
 Alpha virt. eigenvalues --    1.91597   1.91911   1.92574   1.93776   1.94799
 Alpha virt. eigenvalues --    1.95347   1.97223   1.97710   1.98250   1.98567
 Alpha virt. eigenvalues --    1.99371   2.00521   2.02018   2.04011   2.04319
 Alpha virt. eigenvalues --    2.06190   2.06280   2.07155   2.07417   2.07987
 Alpha virt. eigenvalues --    2.10479   2.10961   2.11462   2.12798   2.14767
 Alpha virt. eigenvalues --    2.16062   2.16824   2.17335   2.18037   2.18890
 Alpha virt. eigenvalues --    2.20164   2.21018   2.21452   2.22864   2.23434
 Alpha virt. eigenvalues --    2.24551   2.25735   2.27945   2.28120   2.28767
 Alpha virt. eigenvalues --    2.30019   2.30993   2.31817   2.33772   2.35741
 Alpha virt. eigenvalues --    2.36898   2.39063   2.40410   2.41225   2.42334
 Alpha virt. eigenvalues --    2.43922   2.44638   2.46417   2.46886   2.48002
 Alpha virt. eigenvalues --    2.49191   2.50157   2.50827   2.51478   2.52689
 Alpha virt. eigenvalues --    2.53673   2.53902   2.55450   2.56697   2.57882
 Alpha virt. eigenvalues --    2.58141   2.59719   2.62771   2.64453   2.65934
 Alpha virt. eigenvalues --    2.66157   2.66831   2.67787   2.69106   2.69343
 Alpha virt. eigenvalues --    2.71551   2.74022   2.78358   2.83796   2.85441
 Alpha virt. eigenvalues --    2.90928   2.92556   2.94374   2.95661   2.96988
 Alpha virt. eigenvalues --    2.98452   3.01526   3.09568   3.32817   3.77214
 Alpha virt. eigenvalues --    3.83101   3.89431   3.93106   3.98817   4.00993
 Alpha virt. eigenvalues --    4.01842   4.03850   4.07108   4.09159   4.10780
 Alpha virt. eigenvalues --    4.13229   4.18044   4.19649   4.22173   4.26064
 Alpha virt. eigenvalues --    4.27891   4.31093   4.34212   4.39710   4.43061
 Alpha virt. eigenvalues --    4.44961   4.45897   4.48129   4.54843   4.62398
 Alpha virt. eigenvalues --    4.63177   4.72141
          Condensed to atoms (all electrons):
 Mulliken charges:
               1
     1  N   -0.786509
     2  C   -0.070882
     3  C    0.626342
     4  O   -0.578163
     5  C   -0.376771
     6  C    0.110091
     7  C   -0.195541
     8  C   -0.181161
     9  C   -0.129951
    10  C   -0.128557
    11  C   -0.126408
    12  H    0.179997
    13  H    0.195967
    14  H    0.163777
    15  H    0.164662
    16  H    0.127738
    17  H    0.149791
    18  H    0.151089
    19  H    0.152726
    20  H    0.344914
    21  H    0.362769
    22  N   -0.480312
    23  C   -0.019500
    24  C    0.623042
    25  O   -0.547431
    26  C   -0.317891
    27  C   -0.304795
    28  C   -0.138797
    29  H    0.194822
    30  H    0.166609
    31  H    0.193045
    32  H    0.183693
    33  H    0.175918
    34  H    0.180322
    35  H    0.179648
    36  N   -0.581754
    37  C   -0.014692
    38  C    0.609938
    39  O   -0.463560
    40  C   -0.285494
    41  C   -0.293479
    42  C   -0.312737
    43  C   -0.182727
    44  N   -0.811368
    45  O   -0.650554
    46  H    0.474513
    47  H    0.345079
    48  H    0.131722
    49  H    0.179463
    50  H    0.175873
    51  H    0.179702
    52  H    0.159946
    53  H    0.190498
    54  H    0.191637
    55  H    0.205580
    56  H    0.207415
    57  H    0.450353
    58  H    0.450324
    59  H    0.400027
 Sum of Mulliken charges =   1.00000
 Mulliken charges with hydrogens summed into heavy atoms:
               1
     1  N   -0.078826
     2  C    0.109115
     3  C    0.626342
     4  O   -0.578163
     5  C   -0.017027
     6  C    0.110091
     7  C   -0.030880
     8  C   -0.053423
     9  C    0.019840
    10  C    0.022532
    11  C    0.026318
    22  N   -0.480312
    23  C    0.175322
    24  C    0.623042
    25  O   -0.547431
    26  C    0.041763
    27  C    0.054816
    28  C    0.221173
    36  N   -0.236675
    37  C    0.117030
    38  C    0.609938
    39  O   -0.463560
    40  C    0.069842
    41  C    0.046169
    42  C    0.069399
    43  C    0.230268
    44  N    0.489336
    45  O   -0.176040
 Electronic spatial extent (au):  <R**2>=         402960.6151
 Charge=              1.0000 electrons
 Dipole moment (field-independent basis, Debye):
    X=            -41.7666    Y=             81.9470    Z=             57.4261  Tot=            108.4320
 Quadrupole moment (field-independent basis, Debye-Ang):
   XX=            216.5941   YY=           1293.5268   ZZ=            549.4775
   XY=           -713.9247   XZ=           -487.1256   YZ=            992.7546
 Traceless Quadrupole moment (field-independent basis, Debye-Ang):
   XX=           -469.9387   YY=            606.9940   ZZ=           -137.0553
   XY=           -713.9247   XZ=           -487.1256   YZ=            992.7546
 Octapole moment (field-independent basis, Debye-Ang**2):
  XXX=            315.5000  YYY=          18010.4438  ZZZ=           3437.6362  XYY=         -11496.0231
  XXY=           3587.2357  XXZ=           2489.6439  XZZ=          -4588.8059  YZZ=           9523.1578
  YYZ=          15939.0850  XYZ=          -8391.0039
 Hexadecapole moment (field-independent basis, Debye-Ang**3):
 XXXX=         -32528.1019 YYYY=         185411.3795 ZZZZ=         -16013.7295 XXXY=           7591.6041
 XXXZ=           2769.6108 YYYX=        -169269.2325 YYYZ=         227308.3822 ZZZX=         -29448.4490
 ZZZY=          57566.4544 XXYY=          52953.1195 XXZZ=          18473.4439 YYZZ=         149362.1230
 XXYZ=          41124.0130 YYXZ=        -136589.4863 ZZXY=         -78837.2615
 N-N= 2.966462080089D+03 E-N=-8.935364575948D+03  KE= 1.288382497448D+03
 Unable to Open any file for archive entry.
 1\1\GINC-SKL-153\SP\RB3LYP\6-31G(d)\C20H31N4O4(1+)\KENGMITH\25-May-202
 2\0\\# B3LYP/6-31G* empiricaldispersion=gd3 guess=read geom=check nosy
 mm integral(ultrafinegrid)\\Candidate Structure: Conf:669 Charge calc 
 in gas phase\\1,1\N,0,-6.9768570116,17.7208425933,13.7395249045\C,0,-7
 .6452910937,19.027962088,13.4923258041\C,0,-8.9180970264,18.6900305083
 ,12.6797522793\O,0,-9.3442103063,17.5264532644,12.7173030511\C,0,-6.64
 56672053,20.0190031686,12.8371879485\C,0,-5.2766530999,19.9754960969,1
 3.4848891361\C,0,-4.2358797233,19.2454486662,12.892599824\C,0,-5.04226
 11585,20.6296314989,14.7025618092\C,0,-2.9830344817,19.1788277562,13.5
 060627919\C,0,-3.7911116004,20.5610591632,15.3163231457\C,0,-2.7583538
 952,19.8348929974,14.7179578844\H,0,-7.9755705636,19.4603691896,14.449
 7766196\H,0,-6.5587744749,19.7929823501,11.7731641053\H,0,-7.049369214
 2,21.0282897239,12.9378875675\H,0,-4.4166918518,18.7359935065,11.94961
 58472\H,0,-5.8400180668,21.2069961502,15.1664268601\H,0,-2.1810732899,
 18.6185873363,13.0335174731\H,0,-3.6200115947,21.0799224771,16.2552317
 809\H,0,-1.7824343279,19.7857018403,15.1921673451\H,0,-7.5770695655,17
 .1487913196,14.3315357972\H,0,-6.1010286998,17.8892716852,14.235011645
 3\N,0,-9.5363403051,19.6138938064,11.89687758\C,0,-10.6703151257,19.16
 5853797,11.0470370538\C,0,-10.2633819369,17.9249055606,10.2455831992\O
 ,0,-10.9257878741,16.8865701775,10.2975773549\C,0,-11.0209042666,20.42
 52930269,10.238595061\C,0,-10.6981169292,21.5582957536,11.2236270353\C
 ,0,-9.3920175453,21.0878167645,11.8779831632\H,0,-11.5057746493,18.844
 3509236,11.6757557507\H,0,-10.3852681984,20.5000386655,9.3476731921\H,
 0,-12.0612706012,20.4140087516,9.9066695929\H,0,-10.5870646412,22.5317
 586851,10.7397495525\H,0,-11.4897615472,21.6401157855,11.9764914567\H,
 0,-9.2605330205,21.4767829925,12.8907918812\H,0,-8.5254307048,21.38094
 79988,11.2759673088\N,0,-9.0810419557,18.004409215,9.5488357448\C,0,-8
 .2630594908,16.7866978824,9.5744636548\C,0,-7.0985292935,17.0760506785
 ,10.5254234217\O,0,-6.361731964,18.0294173557,10.3625252664\C,0,-7.879
 6272542,16.076104918,8.2792765959\C,0,-7.7466612268,14.5704049126,8.60
 80308097\C,0,-9.0610949399,13.9216353908,9.1462816558\C,0,-9.173873417
 4,13.5701700409,10.6443692996\N,0,-9.4553074674,14.7272398826,11.59632
 18136\O,0,-7.0589284565,16.2647845086,11.5906013835\H,0,-6.8208133036,
 16.8491832281,12.4634913101\H,0,-8.556099109,18.8695314084,9.622935876
 9\H,0,-8.9235648274,16.0964569608,10.0557118508\H,0,-6.9531549253,16.4
 714129647,7.8501787077\H,0,-8.6796132186,16.2290425823,7.5463905321\H,
 0,-7.4432042499,14.039684313,7.7007517554\H,0,-6.9324438847,14.4201097
 39,9.3304470227\H,0,-9.1894014349,12.9535206485,8.6491548988\H,0,-9.93
 51712227,14.5179330428,8.8538526766\H,0,-10.0045305706,12.874533108,10
 .7845106631\H,0,-8.2606232651,13.095289263,11.0127218665\H,0,-10.18216
 78426,15.3815754092,11.2364589558\H,0,-8.6025110713,15.310403362,11.76
 74047741\H,0,-9.7746463913,14.3801475257,12.5052052617\\Version=ES64L-
 G16RevC.01\HF=-1300.6166616\RMSD=9.727e-09\Dipole=-1.6240362,-1.874056
 6,0.6152444\Quadrupole=-349.3878965,451.2851332,-101.8972367,-530.7855
 222,-362.1659551,738.0886975\PG=C01 [X(C20H31N4O4)]\\@
 The archive entry for this job was punched.


 THERE IS NO CURE FOR BIRTH AND DEATH SAVE TO ENJOY THE INTERVAL.

                               -- GEORGE SANTAYANA
 Job cpu time:       0 days  0 hours  1 minutes  5.3 seconds.
 Elapsed time:       0 days  0 hours  0 minutes 16.8 seconds.
 File lengths (MBytes):  RWF=    240 Int=      0 D2E=      0 Chk=     32 Scr=     16
 Normal termination of Gaussian 16 at Wed May 25 08:34:59 2022.
