 Entering Gaussian System, Link 0=/opt/software/Gaussian/g16-AVX2-C.01/g16/g16
 Input=charge-conf-879.com
 Output=charge-conf-879.log
 Initial command:
 /opt/software/Gaussian/g16-AVX2-C.01/g16/l1.exe "/mnt/gs18/scratch/users/kengmith/Gau-11479.inp" -scrdir="/mnt/gs18/scratch/users/kengmith/"
 Entering Link 1 = /opt/software/Gaussian/g16-AVX2-C.01/g16/l1.exe PID=     11489.
  
 Copyright (c) 1988-2019, Gaussian, Inc.  All Rights Reserved.
  
 This is part of the Gaussian(R) 16 program.  It is based on
 the Gaussian(R) 09 system (copyright 2009, Gaussian, Inc.),
 the Gaussian(R) 03 system (copyright 2003, Gaussian, Inc.),
 the Gaussian(R) 98 system (copyright 1998, Gaussian, Inc.),
 the Gaussian(R) 94 system (copyright 1995, Gaussian, Inc.),
 the Gaussian 92(TM) system (copyright 1992, Gaussian, Inc.),
 the Gaussian 90(TM) system (copyright 1990, Gaussian, Inc.),
 the Gaussian 88(TM) system (copyright 1988, Gaussian, Inc.),
 the Gaussian 86(TM) system (copyright 1986, Carnegie Mellon
 University), and the Gaussian 82(TM) system (copyright 1983,
 Carnegie Mellon University). Gaussian is a federally registered
 trademark of Gaussian, Inc.
  
 This software contains proprietary and confidential information,
 including trade secrets, belonging to Gaussian, Inc.
  
 This software is provided under written license and may be
 used, copied, transmitted, or stored only in accord with that
 written license.
  
 The following legend is applicable only to US Government
 contracts under FAR:
  
                    RESTRICTED RIGHTS LEGEND
  
 Use, reproduction and disclosure by the US Government is
 subject to restrictions as set forth in subparagraphs (a)
 and (c) of the Commercial Computer Software - Restricted
 Rights clause in FAR 52.227-19.
  
 Gaussian, Inc.
 340 Quinnipiac St., Bldg. 40, Wallingford CT 06492
  
  
 ---------------------------------------------------------------
 Warning -- This program may not be used in any manner that
 competes with the business of Gaussian, Inc. or will provide
 assistance to any competitor of Gaussian, Inc.  The licensee
 of this program is prohibited from giving any competitor of
 Gaussian, Inc. access to this program.  By using this program,
 the user acknowledges that Gaussian, Inc. is engaged in the
 business of creating and licensing software in the field of
 computational chemistry and represents and warrants to the
 licensee that it is not a competitor of Gaussian, Inc. and that
 it will not use this program in any manner prohibited above.
 ---------------------------------------------------------------
  

 Cite this work as:
 Gaussian 16, Revision C.01,
 M. J. Frisch, G. W. Trucks, H. B. Schlegel, G. E. Scuseria, 
 M. A. Robb, J. R. Cheeseman, G. Scalmani, V. Barone, 
 G. A. Petersson, H. Nakatsuji, X. Li, M. Caricato, A. V. Marenich, 
 J. Bloino, B. G. Janesko, R. Gomperts, B. Mennucci, H. P. Hratchian, 
 J. V. Ortiz, A. F. Izmaylov, J. L. Sonnenberg, D. Williams-Young, 
 F. Ding, F. Lipparini, F. Egidi, J. Goings, B. Peng, A. Petrone, 
 T. Henderson, D. Ranasinghe, V. G. Zakrzewski, J. Gao, N. Rega, 
 G. Zheng, W. Liang, M. Hada, M. Ehara, K. Toyota, R. Fukuda, 
 J. Hasegawa, M. Ishida, T. Nakajima, Y. Honda, O. Kitao, H. Nakai, 
 T. Vreven, K. Throssell, J. A. Montgomery, Jr., J. E. Peralta, 
 F. Ogliaro, M. J. Bearpark, J. J. Heyd, E. N. Brothers, K. N. Kudin, 
 V. N. Staroverov, T. A. Keith, R. Kobayashi, J. Normand, 
 K. Raghavachari, A. P. Rendell, J. C. Burant, S. S. Iyengar, 
 J. Tomasi, M. Cossi, J. M. Millam, M. Klene, C. Adamo, R. Cammi, 
 J. W. Ochterski, R. L. Martin, K. Morokuma, O. Farkas, 
 J. B. Foresman, and D. J. Fox, Gaussian, Inc., Wallingford CT, 2019.
 
 ******************************************
 Gaussian 16:  ES64L-G16RevC.01  3-Jul-2019
                25-May-2022 
 ******************************************
 %mem=8gb
 %nproc=4
 Will use up to    4 processors via shared memory.
 %chk=conf-879.chk
 ----------------------------------------------------------------------
 # B3LYP/6-31G* empiricaldispersion=gd3 guess=read geom=check nosymm in
 tegral(ultrafinegrid)
 ----------------------------------------------------------------------
 1/29=2,38=1,172=1/1;
 2/12=2,15=1,40=1/2;
 3/5=1,6=6,7=1,11=2,14=-4,25=1,30=1,74=-5,75=-5,116=-2,124=31/1,2,3;
 4/5=1/1;
 5/5=2,38=6/2;
 6/7=2,8=2,9=2,10=2,28=1/1;
 99/5=1,9=1/99;
 ------------------------------------------------------
 Candidate Structure: Conf:879 Charge calc in gas phase
 ------------------------------------------------------
 Structure from the checkpoint file:  "conf-879.chk"
 Charge =  1 Multiplicity = 1
 Redundant internal coordinates found in file.  (old form).
 N,0,-6.5798651132,16.1743311598,9.6802317935
 C,0,-7.2143151764,17.4864657253,9.6207493037
 C,0,-6.4035619318,18.4625809948,10.472429212
 O,0,-5.5680637302,18.0737219266,11.3013247974
 C,0,-8.6597830687,17.3655576465,10.1892404162
 C,0,-9.5379749428,16.5038366962,9.3116368569
 C,0,-9.6340666148,15.1225432633,9.529646645
 C,0,-10.2334554566,17.0639083941,8.2315367193
 C,0,-10.4062691082,14.3206232025,8.6870202628
 C,0,-11.0078024265,16.2661645886,7.3890760395
 C,0,-11.0954700616,14.8904992698,7.6150337322
 H,0,-7.2864569161,17.9022576701,8.6002212076
 H,0,-8.5715290146,16.9395478968,11.1924530107
 H,0,-9.1055208348,18.3624179724,10.2908258001
 H,0,-9.0933892888,14.6787811974,10.3617203377
 H,0,-10.1736117196,18.1361093154,8.0521204134
 H,0,-10.4721792514,13.2515318365,8.8697424876
 H,0,-11.5452221233,16.7174436715,6.5596914036
 H,0,-11.6995385927,14.2680566465,6.9612324066
 H,0,-5.588744699,16.2472221725,9.4624322457
 H,0,-7.0068811256,15.5679275213,8.9837340522
 N,0,-6.6529543693,19.7958297053,10.3358396685
 C,0,-5.8510420036,20.7609622249,11.1167283498
 C,0,-6.0835990064,20.6569508743,12.6309966031
 O,0,-5.2193964807,20.9827046365,13.4213438648
 C,0,-6.2328224384,22.1354196045,10.5162504974
 C,0,-7.5938423132,21.8887423867,9.8460886624
 C,0,-7.4533201373,20.4674708291,9.2916259972
 H,0,-4.7862069953,20.5454791448,11.0005822413
 H,0,-6.2538122649,22.921551184,11.2746322207
 H,0,-5.487532754,22.418843966,9.7661626419
 H,0,-8.3991192187,21.9194194423,10.5902291838
 H,0,-7.8270880187,22.6183575066,9.0667355128
 H,0,-6.9111870379,20.4618641771,8.3367603564
 H,0,-8.4128849191,19.9705517235,9.1415795785
 N,0,-7.3324964574,20.1950990591,13.0360297609
 C,0,-7.4285049324,19.464493636,14.3031296465
 C,0,-7.1446190674,18.0351694904,13.871830707
 O,0,-8.0111115814,17.2436694846,13.5188462376
 C,0,-8.7717623179,19.6395113685,15.0240715143
 C,0,-9.1056851811,18.5029916195,16.0171714843
 C,0,-7.9528099318,18.0585441862,16.9597163217
 C,0,-7.84848803,16.5426677507,17.1426642349
 N,0,-7.3071342979,15.855463914,15.8910217081
 O,0,-5.8350795286,17.7218246171,13.8750360767
 H,0,-5.6195935496,17.3275994141,12.9879098437
 H,0,-7.9272015108,19.8429201681,12.292788594
 H,0,-6.5934936601,19.8225276029,14.9084193011
 H,0,-9.5799818545,19.6847095884,14.2862486211
 H,0,-8.7527825199,20.6104645662,15.5301611594
 H,0,-9.9622630868,18.810586981,16.6248946488
 H,0,-9.4540411623,17.6470658913,15.429698832
 H,0,-8.0960729407,18.4791199545,17.9607604884
 H,0,-6.9759101605,18.4365245291,16.6337978258
 H,0,-7.1610147115,16.2738520602,17.948131974
 H,0,-8.821772771,16.0862664794,17.3402851054
 H,0,-6.3657211755,16.19864264,15.6503759088
 H,0,-7.873017727,16.0628992675,15.0445523622
 H,0,-7.2538269896,14.8384182477,16.008655611
 Recover connectivity data from disk.
                           ----------------------------
                           !    Current Parameters    !
                           ! (Angstroms and Degrees)  !
 --------------------------                            --------------------------
 ! Name  Definition              Value                                          !
 --------------------------------------------------------------------------------
 ! R1    R(1,2)                  1.4587                                         !
 ! R2    R(1,20)                 1.0174                                         !
 ! R3    R(1,21)                 1.0174                                         !
 ! R4    R(2,3)                  1.5282                                         !
 ! R5    R(2,5)                  1.5579                                         !
 ! R6    R(2,12)                 1.1043                                         !
 ! R7    R(3,4)                  1.2395                                         !
 ! R8    R(3,22)                 1.3632                                         !
 ! R9    R(5,6)                  1.5113                                         !
 ! R10   R(5,13)                 1.0935                                         !
 ! R11   R(5,14)                 1.0967                                         !
 ! R12   R(6,7)                  1.4017                                         !
 ! R13   R(6,8)                  1.4014                                         !
 ! R14   R(7,9)                  1.3962                                         !
 ! R15   R(7,15)                 1.087                                          !
 ! R16   R(8,10)                 1.3949                                         !
 ! R17   R(8,16)                 1.0888                                         !
 ! R18   R(9,11)                 1.396                                          !
 ! R19   R(9,17)                 1.0866                                         !
 ! R20   R(10,11)                1.3969                                         !
 ! R21   R(10,18)                1.0864                                         !
 ! R22   R(11,19)                1.0862                                         !
 ! R23   R(22,23)                1.4779                                         !
 ! R24   R(22,28)                1.4772                                         !
 ! R25   R(23,24)                1.5355                                         !
 ! R26   R(23,26)                1.5477                                         !
 ! R27   R(23,29)                1.0926                                         !
 ! R28   R(24,25)                1.2156                                         !
 ! R29   R(24,36)                1.3918                                         !
 ! R30   R(26,27)                1.537                                          !
 ! R31   R(26,30)                1.0925                                         !
 ! R32   R(26,31)                1.0947                                         !
 ! R33   R(27,28)                1.5321                                         !
 ! R34   R(27,32)                1.0969                                         !
 ! R35   R(27,33)                1.0928                                         !
 ! R36   R(28,34)                1.098                                          !
 ! R37   R(28,35)                1.091                                          !
 ! R38   R(36,37)                1.4658                                         !
 ! R39   R(36,47)                1.0149                                         !
 ! R40   R(37,38)                1.5197                                         !
 ! R41   R(37,40)                1.5345                                         !
 ! R42   R(37,48)                1.0917                                         !
 ! R43   R(38,39)                1.2255                                         !
 ! R44   R(38,45)                1.3465                                         !
 ! R45   R(40,41)                1.5458                                         !
 ! R46   R(40,49)                1.0953                                         !
 ! R47   R(40,50)                1.0951                                         !
 ! R48   R(41,42)                1.554                                          !
 ! R49   R(41,51)                1.0944                                         !
 ! R50   R(41,52)                1.095                                          !
 ! R51   R(42,43)                1.5304                                         !
 ! R52   R(42,53)                1.0952                                         !
 ! R53   R(42,54)                1.097                                          !
 ! R54   R(43,44)                1.5271                                         !
 ! R55   R(43,55)                1.0925                                         !
 ! R56   R(43,56)                1.093                                          !
 ! R57   R(44,57)                1.0305                                         !
 ! R58   R(44,58)                1.0391                                         !
 ! R59   R(44,59)                1.0252                                         !
 ! R60   R(45,46)                0.9944                                         !
 ! A1    A(2,1,20)             110.5204                                         !
 ! A2    A(2,1,21)             109.0062                                         !
 ! A3    A(20,1,21)            107.7591                                         !
 ! A4    A(1,2,3)              108.7282                                         !
 ! A5    A(1,2,5)              108.5938                                         !
 ! A6    A(1,2,12)             113.8772                                         !
 ! A7    A(3,2,5)              109.7813                                         !
 ! A8    A(3,2,12)             108.0096                                         !
 ! A9    A(5,2,12)             107.8073                                         !
 ! A10   A(2,3,4)              121.9993                                         !
 ! A11   A(2,3,22)             118.15                                           !
 ! A12   A(4,3,22)             119.8112                                         !
 ! A13   A(2,5,6)              111.8078                                         !
 ! A14   A(2,5,13)             106.8656                                         !
 ! A15   A(2,5,14)             109.8984                                         !
 ! A16   A(6,5,13)             110.948                                          !
 ! A17   A(6,5,14)             109.6273                                         !
 ! A18   A(13,5,14)            107.5745                                         !
 ! A19   A(5,6,7)              120.758                                          !
 ! A20   A(5,6,8)              120.5346                                         !
 ! A21   A(7,6,8)              118.6645                                         !
 ! A22   A(6,7,9)              120.667                                          !
 ! A23   A(6,7,15)             119.1604                                         !
 ! A24   A(9,7,15)             120.1714                                         !
 ! A25   A(6,8,10)             120.8248                                         !
 ! A26   A(6,8,16)             119.5576                                         !
 ! A27   A(10,8,16)            119.6164                                         !
 ! A28   A(7,9,11)             120.133                                          !
 ! A29   A(7,9,17)             119.8127                                         !
 ! A30   A(11,9,17)            120.054                                          !
 ! A31   A(8,10,11)            120.0244                                         !
 ! A32   A(8,10,18)            119.8748                                         !
 ! A33   A(11,10,18)           120.1004                                         !
 ! A34   A(9,11,10)            119.6861                                         !
 ! A35   A(9,11,19)            120.1879                                         !
 ! A36   A(10,11,19)           120.1257                                         !
 ! A37   A(3,22,23)            119.108                                          !
 ! A38   A(3,22,28)            127.9247                                         !
 ! A39   A(23,22,28)           111.7504                                         !
 ! A40   A(22,23,24)           113.243                                          !
 ! A41   A(22,23,26)           103.9506                                         !
 ! A42   A(22,23,29)           110.1109                                         !
 ! A43   A(24,23,26)           113.9157                                         !
 ! A44   A(24,23,29)           103.8316                                         !
 ! A45   A(26,23,29)           111.981                                          !
 ! A46   A(23,24,25)           121.021                                          !
 ! A47   A(23,24,36)           116.4462                                         !
 ! A48   A(25,24,36)           122.5247                                         !
 ! A49   A(23,26,27)           104.1859                                         !
 ! A50   A(23,26,30)           111.989                                          !
 ! A51   A(23,26,31)           109.1362                                         !
 ! A52   A(27,26,30)           113.6496                                         !
 ! A53   A(27,26,31)           110.2216                                         !
 ! A54   A(30,26,31)           107.6027                                         !
 ! A55   A(26,27,28)           103.0304                                         !
 ! A56   A(26,27,32)           110.4753                                         !
 ! A57   A(26,27,33)           113.13                                           !
 ! A58   A(28,27,32)           109.8041                                         !
 ! A59   A(28,27,33)           112.3873                                         !
 ! A60   A(32,27,33)           107.9668                                         !
 ! A61   A(22,28,27)           102.4545                                         !
 ! A62   A(22,28,34)           110.1749                                         !
 ! A63   A(22,28,35)           111.5113                                         !
 ! A64   A(27,28,34)           111.3915                                         !
 ! A65   A(27,28,35)           113.0572                                         !
 ! A66   A(34,28,35)           108.1998                                         !
 ! A67   A(24,36,37)           118.4076                                         !
 ! A68   A(24,36,47)           115.3295                                         !
 ! A69   A(37,36,47)           114.9419                                         !
 ! A70   A(36,37,38)           102.1939                                         !
 ! A71   A(36,37,40)           113.9927                                         !
 ! A72   A(36,37,48)           105.41                                           !
 ! A73   A(38,37,40)           113.8361                                         !
 ! A74   A(38,37,48)           108.8399                                         !
 ! A75   A(40,37,48)           111.8173                                         !
 ! A76   A(37,38,39)           123.8554                                         !
 ! A77   A(37,38,45)           113.5695                                         !
 ! A78   A(39,38,45)           122.5491                                         !
 ! A79   A(37,40,41)           114.0215                                         !
 ! A80   A(37,40,49)           109.5214                                         !
 ! A81   A(37,40,50)           107.6424                                         !
 ! A82   A(41,40,49)           107.6812                                         !
 ! A83   A(41,40,50)           111.0221                                         !
 ! A84   A(49,40,50)           106.7093                                         !
 ! A85   A(40,41,42)           116.0833                                         !
 ! A86   A(40,41,51)           108.6143                                         !
 ! A87   A(40,41,52)           107.3824                                         !
 ! A88   A(42,41,51)           108.9193                                         !
 ! A89   A(42,41,52)           109.7456                                         !
 ! A90   A(51,41,52)           105.582                                          !
 ! A91   A(41,42,43)           113.9754                                         !
 ! A92   A(41,42,53)           110.3342                                         !
 ! A93   A(41,42,54)           112.4513                                         !
 ! A94   A(43,42,53)           106.261                                          !
 ! A95   A(43,42,54)           108.4267                                         !
 ! A96   A(53,42,54)           104.8165                                         !
 ! A97   A(42,43,44)           111.8341                                         !
 ! A98   A(42,43,55)           112.0073                                         !
 ! A99   A(42,43,56)           111.9941                                         !
 ! A100  A(44,43,55)           105.6926                                         !
 ! A101  A(44,43,56)           106.0194                                         !
 ! A102  A(55,43,56)           108.9221                                         !
 ! A103  A(43,44,57)           111.432                                          !
 ! A104  A(43,44,58)           112.6307                                         !
 ! A105  A(43,44,59)           111.7661                                         !
 ! A106  A(57,44,58)           103.9333                                         !
 ! A107  A(57,44,59)           108.0388                                         !
 ! A108  A(58,44,59)           108.6521                                         !
 ! A109  A(38,45,46)           107.5105                                         !
 ! D1    D(20,1,2,3)           -51.1951                                         !
 ! D2    D(20,1,2,5)          -170.6071                                         !
 ! D3    D(20,1,2,12)           69.2753                                         !
 ! D4    D(21,1,2,3)          -169.4492                                         !
 ! D5    D(21,1,2,5)            71.1387                                         !
 ! D6    D(21,1,2,12)          -48.9788                                         !
 ! D7    D(1,2,3,4)            -15.8016                                         !
 ! D8    D(1,2,3,22)           166.4896                                         !
 ! D9    D(5,2,3,4)            102.8661                                         !
 ! D10   D(5,2,3,22)           -74.8427                                         !
 ! D11   D(12,2,3,4)          -139.8331                                         !
 ! D12   D(12,2,3,22)           42.4581                                         !
 ! D13   D(1,2,5,6)            -66.2123                                         !
 ! D14   D(1,2,5,13)            55.3679                                         !
 ! D15   D(1,2,5,14)           171.8096                                         !
 ! D16   D(3,2,5,6)            175.037                                          !
 ! D17   D(3,2,5,13)           -63.3827                                         !
 ! D18   D(3,2,5,14)            53.0589                                         !
 ! D19   D(12,2,5,6)            57.6099                                         !
 ! D20   D(12,2,5,13)          179.1901                                         !
 ! D21   D(12,2,5,14)          -64.3682                                         !
 ! D22   D(2,3,22,23)         -178.0329                                         !
 ! D23   D(2,3,22,28)          -11.7446                                         !
 ! D24   D(4,3,22,23)            4.2065                                         !
 ! D25   D(4,3,22,28)          170.4948                                         !
 ! D26   D(2,5,6,7)             90.492                                          !
 ! D27   D(2,5,6,8)            -87.0934                                         !
 ! D28   D(13,5,6,7)           -28.7032                                         !
 ! D29   D(13,5,6,8)           153.7114                                         !
 ! D30   D(14,5,6,7)          -147.3744                                         !
 ! D31   D(14,5,6,8)            35.0402                                         !
 ! D32   D(5,6,7,9)           -177.5784                                         !
 ! D33   D(5,6,7,15)             2.025                                          !
 ! D34   D(8,6,7,9)              0.0514                                         !
 ! D35   D(8,6,7,15)           179.6548                                         !
 ! D36   D(5,6,8,10)           177.6995                                         !
 ! D37   D(5,6,8,16)            -2.7108                                         !
 ! D38   D(7,6,8,10)             0.0642                                         !
 ! D39   D(7,6,8,16)           179.6539                                         !
 ! D40   D(6,7,9,11)            -0.1106                                         !
 ! D41   D(6,7,9,17)          -179.9093                                         !
 ! D42   D(15,7,9,11)         -179.71                                           !
 ! D43   D(15,7,9,17)            0.4913                                         !
 ! D44   D(6,8,10,11)           -0.1208                                         !
 ! D45   D(6,8,10,18)          179.6444                                         !
 ! D46   D(16,8,10,11)        -179.7103                                         !
 ! D47   D(16,8,10,18)           0.055                                          !
 ! D48   D(7,9,11,10)            0.0537                                         !
 ! D49   D(7,9,11,19)         -179.7639                                         !
 ! D50   D(17,9,11,10)         179.8519                                         !
 ! D51   D(17,9,11,19)           0.0343                                         !
 ! D52   D(8,10,11,9)            0.0609                                         !
 ! D53   D(8,10,11,19)         179.8787                                         !
 ! D54   D(18,10,11,9)        -179.7038                                         !
 ! D55   D(18,10,11,19)          0.1139                                         !
 ! D56   D(3,22,23,24)         -65.7817                                         !
 ! D57   D(3,22,23,26)         170.0726                                         !
 ! D58   D(3,22,23,29)          49.9617                                         !
 ! D59   D(28,22,23,24)        125.8319                                         !
 ! D60   D(28,22,23,26)          1.6863                                         !
 ! D61   D(28,22,23,29)       -118.4246                                         !
 ! D62   D(3,22,28,27)         168.672                                          !
 ! D63   D(3,22,28,34)         -72.7016                                         !
 ! D64   D(3,22,28,35)          47.4625                                         !
 ! D65   D(23,22,28,27)        -24.2118                                         !
 ! D66   D(23,22,28,34)         94.4147                                         !
 ! D67   D(23,22,28,35)       -145.4212                                         !
 ! D68   D(22,23,24,25)        152.8887                                         !
 ! D69   D(22,23,24,36)        -28.122                                          !
 ! D70   D(26,23,24,25)        -88.59                                           !
 ! D71   D(26,23,24,36)         90.3994                                         !
 ! D72   D(29,23,24,25)         33.474                                          !
 ! D73   D(29,23,24,36)       -147.5367                                         !
 ! D74   D(22,23,26,27)         21.6176                                         !
 ! D75   D(22,23,26,30)        144.8675                                         !
 ! D76   D(22,23,26,31)        -96.0984                                         !
 ! D77   D(24,23,26,27)       -102.0915                                         !
 ! D78   D(24,23,26,30)         21.1583                                         !
 ! D79   D(24,23,26,31)        140.1925                                         !
 ! D80   D(29,23,26,27)        140.4553                                         !
 ! D81   D(29,23,26,30)        -96.2948                                         !
 ! D82   D(29,23,26,31)         22.7393                                         !
 ! D83   D(23,24,36,37)        150.3284                                         !
 ! D84   D(23,24,36,47)          8.475                                          !
 ! D85   D(25,24,36,37)        -30.6988                                         !
 ! D86   D(25,24,36,47)       -172.5522                                         !
 ! D87   D(23,26,27,28)        -36.2928                                         !
 ! D88   D(23,26,27,32)         80.9412                                         !
 ! D89   D(23,26,27,33)       -157.8909                                         !
 ! D90   D(30,26,27,28)       -158.4545                                         !
 ! D91   D(30,26,27,32)        -41.2205                                         !
 ! D92   D(30,26,27,33)         79.9473                                         !
 ! D93   D(31,26,27,28)         80.6724                                         !
 ! D94   D(31,26,27,32)       -162.0936                                         !
 ! D95   D(31,26,27,33)        -40.9257                                         !
 ! D96   D(26,27,28,22)         36.608                                          !
 ! D97   D(26,27,28,34)        -81.1572                                         !
 ! D98   D(26,27,28,35)        156.7494                                         !
 ! D99   D(32,27,28,22)        -81.0995                                         !
 ! D100  D(32,27,28,34)        161.1354                                         !
 ! D101  D(32,27,28,35)         39.0419                                         !
 ! D102  D(33,27,28,22)        158.7077                                         !
 ! D103  D(33,27,28,34)         40.9426                                         !
 ! D104  D(33,27,28,35)        -81.1509                                         !
 ! D105  D(24,36,37,38)        -87.4267                                         !
 ! D106  D(24,36,37,40)        149.2932                                         !
 ! D107  D(24,36,37,48)         26.2929                                         !
 ! D108  D(47,36,37,38)         54.5691                                         !
 ! D109  D(47,36,37,40)        -68.7109                                         !
 ! D110  D(47,36,37,48)        168.2887                                         !
 ! D111  D(36,37,38,39)        -90.1108                                         !
 ! D112  D(36,37,38,45)         88.0739                                         !
 ! D113  D(40,37,38,39)         33.2748                                         !
 ! D114  D(40,37,38,45)       -148.5405                                         !
 ! D115  D(48,37,38,39)        158.7288                                         !
 ! D116  D(48,37,38,45)        -23.0865                                         !
 ! D117  D(36,37,40,41)        157.4131                                         !
 ! D118  D(36,37,40,49)         36.6953                                         !
 ! D119  D(36,37,40,50)        -78.9541                                         !
 ! D120  D(38,37,40,41)         40.7083                                         !
 ! D121  D(38,37,40,49)        -80.0095                                         !
 ! D122  D(38,37,40,50)        164.3411                                         !
 ! D123  D(48,37,40,41)        -83.1498                                         !
 ! D124  D(48,37,40,49)        156.1324                                         !
 ! D125  D(48,37,40,50)         40.483                                          !
 ! D126  D(37,38,45,46)       -128.6735                                         !
 ! D127  D(39,38,45,46)         49.5381                                         !
 ! D128  D(37,40,41,42)         45.3978                                         !
 ! D129  D(37,40,41,51)        168.4778                                         !
 ! D130  D(37,40,41,52)        -77.7909                                         !
 ! D131  D(49,40,41,42)        167.1372                                         !
 ! D132  D(49,40,41,51)        -69.7828                                         !
 ! D133  D(49,40,41,52)         43.9484                                         !
 ! D134  D(50,40,41,42)        -76.3883                                         !
 ! D135  D(50,40,41,51)         46.6917                                         !
 ! D136  D(50,40,41,52)        160.4229                                         !
 ! D137  D(40,41,42,43)       -138.187                                          !
 ! D138  D(40,41,42,53)        102.3653                                         !
 ! D139  D(40,41,42,54)        -14.2643                                         !
 ! D140  D(51,41,42,43)         98.8925                                         !
 ! D141  D(51,41,42,53)        -20.5551                                         !
 ! D142  D(51,41,42,54)       -137.1847                                         !
 ! D143  D(52,41,42,43)        -16.2409                                         !
 ! D144  D(52,41,42,53)       -135.6886                                         !
 ! D145  D(52,41,42,54)        107.6818                                         !
 ! D146  D(41,42,43,44)         72.3935                                         !
 ! D147  D(41,42,43,55)       -169.168                                          !
 ! D148  D(41,42,43,56)        -46.4523                                         !
 ! D149  D(53,42,43,44)       -165.8796                                         !
 ! D150  D(53,42,43,55)        -47.441                                          !
 ! D151  D(53,42,43,56)         75.2747                                         !
 ! D152  D(54,42,43,44)        -53.6724                                         !
 ! D153  D(54,42,43,55)         64.7662                                         !
 ! D154  D(54,42,43,56)       -172.5181                                         !
 ! D155  D(42,43,44,57)         60.0493                                         !
 ! D156  D(42,43,44,58)        -56.3039                                         !
 ! D157  D(42,43,44,59)       -178.9574                                         !
 ! D158  D(55,43,44,57)        -62.0832                                         !
 ! D159  D(55,43,44,58)       -178.4364                                         !
 ! D160  D(55,43,44,59)         58.9101                                         !
 ! D161  D(56,43,44,57)       -177.6212                                         !
 ! D162  D(56,43,44,58)         66.0256                                         !
 ! D163  D(56,43,44,59)        -56.6279                                         !
 --------------------------------------------------------------------------------
 Symmetry turned off by external request.
 Stoichiometry    C20H31N4O4(1+)
 Framework group  C1[X(C20H31N4O4)]
 Deg. of freedom   171
 Full point group                 C1      NOp   1
                          Input orientation:                          
 ---------------------------------------------------------------------
 Center     Atomic      Atomic             Coordinates (Angstroms)
 Number     Number       Type             X           Y           Z
 ---------------------------------------------------------------------
      1          7           0       -6.579865   16.174331    9.680232
      2          6           0       -7.214315   17.486466    9.620749
      3          6           0       -6.403562   18.462581   10.472429
      4          8           0       -5.568064   18.073722   11.301325
      5          6           0       -8.659783   17.365558   10.189240
      6          6           0       -9.537975   16.503837    9.311637
      7          6           0       -9.634067   15.122543    9.529647
      8          6           0      -10.233455   17.063908    8.231537
      9          6           0      -10.406269   14.320623    8.687020
     10          6           0      -11.007802   16.266165    7.389076
     11          6           0      -11.095470   14.890499    7.615034
     12          1           0       -7.286457   17.902258    8.600221
     13          1           0       -8.571529   16.939548   11.192453
     14          1           0       -9.105521   18.362418   10.290826
     15          1           0       -9.093389   14.678781   10.361720
     16          1           0      -10.173612   18.136109    8.052120
     17          1           0      -10.472179   13.251532    8.869742
     18          1           0      -11.545222   16.717444    6.559691
     19          1           0      -11.699539   14.268057    6.961232
     20          1           0       -5.588745   16.247222    9.462432
     21          1           0       -7.006881   15.567928    8.983734
     22          7           0       -6.652954   19.795830   10.335840
     23          6           0       -5.851042   20.760962   11.116728
     24          6           0       -6.083599   20.656951   12.630997
     25          8           0       -5.219396   20.982705   13.421344
     26          6           0       -6.232822   22.135420   10.516250
     27          6           0       -7.593842   21.888742    9.846089
     28          6           0       -7.453320   20.467471    9.291626
     29          1           0       -4.786207   20.545479   11.000582
     30          1           0       -6.253812   22.921551   11.274632
     31          1           0       -5.487533   22.418844    9.766163
     32          1           0       -8.399119   21.919419   10.590229
     33          1           0       -7.827088   22.618358    9.066736
     34          1           0       -6.911187   20.461864    8.336760
     35          1           0       -8.412885   19.970552    9.141580
     36          7           0       -7.332496   20.195099   13.036030
     37          6           0       -7.428505   19.464494   14.303130
     38          6           0       -7.144619   18.035169   13.871831
     39          8           0       -8.011112   17.243669   13.518846
     40          6           0       -8.771762   19.639511   15.024072
     41          6           0       -9.105685   18.502992   16.017171
     42          6           0       -7.952810   18.058544   16.959716
     43          6           0       -7.848488   16.542668   17.142664
     44          7           0       -7.307134   15.855464   15.891022
     45          8           0       -5.835080   17.721825   13.875036
     46          1           0       -5.619594   17.327599   12.987910
     47          1           0       -7.927202   19.842920   12.292789
     48          1           0       -6.593494   19.822528   14.908419
     49          1           0       -9.579982   19.684710   14.286249
     50          1           0       -8.752783   20.610465   15.530161
     51          1           0       -9.962263   18.810587   16.624895
     52          1           0       -9.454041   17.647066   15.429699
     53          1           0       -8.096073   18.479120   17.960760
     54          1           0       -6.975910   18.436525   16.633798
     55          1           0       -7.161015   16.273852   17.948132
     56          1           0       -8.821773   16.086266   17.340285
     57          1           0       -6.365721   16.198643   15.650376
     58          1           0       -7.873018   16.062899   15.044552
     59          1           0       -7.253827   14.838418   16.008656
 ---------------------------------------------------------------------
 Rotational constants (GHZ):           0.2067053           0.1270025           0.0930297
 Standard basis: 6-31G(d) (6D, 7F)
   482 basis functions,   908 primitive gaussians,   482 cartesian basis functions
   105 alpha electrons      105 beta electrons
       nuclear repulsion energy      2873.6723260129 Hartrees.
 NAtoms=   59 NActive=   59 NUniq=   59 SFac= 1.00D+00 NAtFMM=   60 NAOKFM=F Big=F
 Integral buffers will be    131072 words long.
 Raffenetti 2 integral format.
 Two-electron integral symmetry is turned off.
 Nuclear repulsion after empirical dispersion term =     2873.5950735154 Hartrees.
 One-electron integrals computed using PRISM.
 NBasis=   482 RedAO= T EigKep=  4.64D-04  NBF=   482
 NBsUse=   482 1.00D-06 EigRej= -1.00D+00 NBFU=   482
 Initial guess from the checkpoint file:  "conf-879.chk"
 B after Tr=     0.000000    0.000000    0.000000
         Rot=    1.000000    0.000000    0.000000    0.000000 Ang=   0.00 deg.
 Requested convergence on RMS density matrix=1.00D-08 within 128 cycles.
 Requested convergence on MAX density matrix=1.00D-06.
 Requested convergence on             energy=1.00D-06.
 No special actions if energy rises.
 SCF Done:  E(RB3LYP) =  -1300.58597256     A.U. after    1 cycles
            NFock=  1  Conv=0.56D-08     -V/T= 2.0095

 **********************************************************************

            Population analysis using the SCF Density.

 **********************************************************************

 Alpha  occ. eigenvalues --  -19.30593 -19.27830 -19.22555 -19.21702 -14.61351
 Alpha  occ. eigenvalues --  -14.47224 -14.46933 -14.39842 -10.45088 -10.40612
 Alpha  occ. eigenvalues --  -10.39152 -10.38749 -10.35136 -10.33992 -10.32898
 Alpha  occ. eigenvalues --  -10.32690 -10.31867 -10.31686 -10.30726 -10.28974
 Alpha  occ. eigenvalues --  -10.28884 -10.27955 -10.27315 -10.26386 -10.26215
 Alpha  occ. eigenvalues --  -10.26161 -10.26147 -10.25945  -1.22825  -1.15785
 Alpha  occ. eigenvalues --   -1.14656  -1.14057  -1.13527  -1.04978  -1.03237
 Alpha  occ. eigenvalues --   -0.97711  -0.94733  -0.92700  -0.90101  -0.89505
 Alpha  occ. eigenvalues --   -0.86082  -0.85405  -0.83449  -0.81619  -0.80235
 Alpha  occ. eigenvalues --   -0.79359  -0.75707  -0.74885  -0.74034  -0.73478
 Alpha  occ. eigenvalues --   -0.72140  -0.70891  -0.68983  -0.68555  -0.67815
 Alpha  occ. eigenvalues --   -0.66481  -0.65476  -0.65292  -0.63869  -0.62234
 Alpha  occ. eigenvalues --   -0.61059  -0.60302  -0.59938  -0.58722  -0.58553
 Alpha  occ. eigenvalues --   -0.58227  -0.57289  -0.57013  -0.55814  -0.54719
 Alpha  occ. eigenvalues --   -0.54320  -0.53956  -0.53430  -0.52935  -0.52435
 Alpha  occ. eigenvalues --   -0.51965  -0.51747  -0.50925  -0.50496  -0.49712
 Alpha  occ. eigenvalues --   -0.49374  -0.49169  -0.48859  -0.48150  -0.47726
 Alpha  occ. eigenvalues --   -0.47146  -0.46755  -0.46092  -0.45864  -0.45597
 Alpha  occ. eigenvalues --   -0.45221  -0.44331  -0.43799  -0.43560  -0.42687
 Alpha  occ. eigenvalues --   -0.41413  -0.41182  -0.41116  -0.37101  -0.36208
 Alpha  occ. eigenvalues --   -0.35733  -0.34014  -0.32678  -0.32267  -0.31348
 Alpha virt. eigenvalues --   -0.15270  -0.11491  -0.09676  -0.07677  -0.07445
 Alpha virt. eigenvalues --   -0.07245  -0.05599  -0.04386  -0.03724  -0.02793
 Alpha virt. eigenvalues --   -0.01594  -0.01447  -0.00242   0.00428   0.00980
 Alpha virt. eigenvalues --    0.01168   0.01369   0.01582   0.02883   0.03316
 Alpha virt. eigenvalues --    0.03573   0.03934   0.04765   0.04982   0.05518
 Alpha virt. eigenvalues --    0.05998   0.06338   0.06692   0.07133   0.07879
 Alpha virt. eigenvalues --    0.08085   0.08566   0.09216   0.09498   0.09961
 Alpha virt. eigenvalues --    0.10270   0.10833   0.11003   0.11235   0.11845
 Alpha virt. eigenvalues --    0.12148   0.12502   0.12629   0.13284   0.13751
 Alpha virt. eigenvalues --    0.13867   0.14936   0.15920   0.16832   0.17875
 Alpha virt. eigenvalues --    0.18129   0.18417   0.20612   0.21620   0.23014
 Alpha virt. eigenvalues --    0.23547   0.23902   0.26020   0.26325   0.26554
 Alpha virt. eigenvalues --    0.27882   0.28754   0.30168   0.30578   0.33861
 Alpha virt. eigenvalues --    0.36771   0.37658   0.37742   0.38745   0.39457
 Alpha virt. eigenvalues --    0.40579   0.41280   0.43319   0.43799   0.44436
 Alpha virt. eigenvalues --    0.44948   0.45564   0.45633   0.46261   0.46415
 Alpha virt. eigenvalues --    0.46530   0.47942   0.48372   0.48469   0.49116
 Alpha virt. eigenvalues --    0.50217   0.50629   0.51217   0.51957   0.52144
 Alpha virt. eigenvalues --    0.52219   0.52488   0.52769   0.53234   0.53524
 Alpha virt. eigenvalues --    0.54155   0.54355   0.54677   0.55024   0.55587
 Alpha virt. eigenvalues --    0.55717   0.57027   0.57322   0.58077   0.58653
 Alpha virt. eigenvalues --    0.58772   0.59966   0.61034   0.61208   0.62474
 Alpha virt. eigenvalues --    0.63442   0.63615   0.63989   0.64855   0.65810
 Alpha virt. eigenvalues --    0.65899   0.67445   0.68912   0.69001   0.69655
 Alpha virt. eigenvalues --    0.70096   0.71002   0.71698   0.72339   0.73290
 Alpha virt. eigenvalues --    0.73998   0.74325   0.75216   0.75387   0.75626
 Alpha virt. eigenvalues --    0.76193   0.76524   0.76779   0.77293   0.77405
 Alpha virt. eigenvalues --    0.77911   0.78370   0.78480   0.78871   0.79282
 Alpha virt. eigenvalues --    0.79746   0.80339   0.81099   0.81556   0.82147
 Alpha virt. eigenvalues --    0.82660   0.83218   0.83952   0.84668   0.84903
 Alpha virt. eigenvalues --    0.85171   0.85716   0.85871   0.86236   0.87251
 Alpha virt. eigenvalues --    0.87806   0.88762   0.89417   0.91120   0.91659
 Alpha virt. eigenvalues --    0.92376   0.92948   0.93284   0.93964   0.95339
 Alpha virt. eigenvalues --    0.95873   0.97458   0.97746   0.97918   1.00492
 Alpha virt. eigenvalues --    1.00665   1.01637   1.02836   1.03783   1.03930
 Alpha virt. eigenvalues --    1.04995   1.06960   1.07617   1.08800   1.10433
 Alpha virt. eigenvalues --    1.11032   1.11919   1.13173   1.14642   1.16603
 Alpha virt. eigenvalues --    1.17090   1.18258   1.18950   1.22476   1.22849
 Alpha virt. eigenvalues --    1.24151   1.26629   1.26914   1.28369   1.29020
 Alpha virt. eigenvalues --    1.29298   1.31716   1.32374   1.33029   1.34754
 Alpha virt. eigenvalues --    1.35006   1.35820   1.36474   1.37702   1.39253
 Alpha virt. eigenvalues --    1.41015   1.41229   1.41859   1.42149   1.43623
 Alpha virt. eigenvalues --    1.44110   1.45322   1.46436   1.47513   1.48806
 Alpha virt. eigenvalues --    1.50170   1.52382   1.53679   1.55084   1.56434
 Alpha virt. eigenvalues --    1.58557   1.60808   1.61908   1.62925   1.63548
 Alpha virt. eigenvalues --    1.65419   1.65614   1.67271   1.67798   1.68334
 Alpha virt. eigenvalues --    1.69320   1.70171   1.71125   1.72302   1.72595
 Alpha virt. eigenvalues --    1.73035   1.73605   1.74122   1.74990   1.75158
 Alpha virt. eigenvalues --    1.75658   1.76189   1.77103   1.77911   1.78946
 Alpha virt. eigenvalues --    1.79635   1.80030   1.81519   1.82129   1.83184
 Alpha virt. eigenvalues --    1.83765   1.84450   1.84690   1.85677   1.86002
 Alpha virt. eigenvalues --    1.87136   1.88065   1.89330   1.90092   1.90517
 Alpha virt. eigenvalues --    1.91270   1.92124   1.92458   1.93485   1.94285
 Alpha virt. eigenvalues --    1.94869   1.96007   1.96741   1.97841   1.97963
 Alpha virt. eigenvalues --    1.98650   1.99382   1.99950   2.01417   2.03009
 Alpha virt. eigenvalues --    2.05147   2.07018   2.07316   2.07906   2.08382
 Alpha virt. eigenvalues --    2.09263   2.09833   2.11214   2.12851   2.14038
 Alpha virt. eigenvalues --    2.14221   2.16952   2.17667   2.19248   2.20156
 Alpha virt. eigenvalues --    2.20248   2.21887   2.23053   2.23366   2.23667
 Alpha virt. eigenvalues --    2.23903   2.26528   2.26684   2.27759   2.28841
 Alpha virt. eigenvalues --    2.29226   2.29954   2.31107   2.34595   2.35750
 Alpha virt. eigenvalues --    2.36885   2.37251   2.39082   2.40301   2.41420
 Alpha virt. eigenvalues --    2.42609   2.43453   2.45703   2.46130   2.46994
 Alpha virt. eigenvalues --    2.48375   2.50431   2.50896   2.51635   2.53301
 Alpha virt. eigenvalues --    2.53705   2.55015   2.56330   2.57766   2.58865
 Alpha virt. eigenvalues --    2.59360   2.60031   2.63931   2.65485   2.66442
 Alpha virt. eigenvalues --    2.67209   2.68085   2.68493   2.69806   2.71685
 Alpha virt. eigenvalues --    2.74272   2.76577   2.80767   2.85133   2.86872
 Alpha virt. eigenvalues --    2.90185   2.92287   2.94700   2.95673   2.97215
 Alpha virt. eigenvalues --    2.98859   3.02013   3.11838   3.33731   3.63062
 Alpha virt. eigenvalues --    3.73214   3.85730   3.92754   3.97969   4.02033
 Alpha virt. eigenvalues --    4.03385   4.04171   4.05051   4.08726   4.10593
 Alpha virt. eigenvalues --    4.13583   4.14659   4.20630   4.22744   4.26577
 Alpha virt. eigenvalues --    4.27489   4.28258   4.33298   4.36280   4.37141
 Alpha virt. eigenvalues --    4.41872   4.46470   4.47711   4.55902   4.58075
 Alpha virt. eigenvalues --    4.64447   4.66913
          Condensed to atoms (all electrons):
 Mulliken charges:
               1
     1  N   -0.728123
     2  C   -0.049431
     3  C    0.595310
     4  O   -0.564965
     5  C   -0.376518
     6  C    0.155049
     7  C   -0.185421
     8  C   -0.183188
     9  C   -0.128540
    10  C   -0.126728
    11  C   -0.127623
    12  H    0.145165
    13  H    0.186010
    14  H    0.134337
    15  H    0.133272
    16  H    0.121560
    17  H    0.142166
    18  H    0.146023
    19  H    0.147950
    20  H    0.314722
    21  H    0.320207
    22  N   -0.483390
    23  C   -0.026287
    24  C    0.611689
    25  O   -0.479806
    26  C   -0.315043
    27  C   -0.299707
    28  C   -0.145287
    29  H    0.205026
    30  H    0.188971
    31  H    0.177548
    32  H    0.158742
    33  H    0.179666
    34  H    0.178027
    35  H    0.176532
    36  N   -0.615126
    37  C   -0.023403
    38  C    0.558791
    39  O   -0.495316
    40  C   -0.270992
    41  C   -0.310687
    42  C   -0.303937
    43  C   -0.201992
    44  N   -0.762561
    45  O   -0.590552
    46  H    0.464073
    47  H    0.341417
    48  H    0.213789
    49  H    0.167922
    50  H    0.181804
    51  H    0.181872
    52  H    0.157584
    53  H    0.207548
    54  H    0.179098
    55  H    0.219669
    56  H    0.222691
    57  H    0.420421
    58  H    0.440790
    59  H    0.419179
 Sum of Mulliken charges =   1.00000
 Mulliken charges with hydrogens summed into heavy atoms:
               1
     1  N   -0.093193
     2  C    0.095734
     3  C    0.595310
     4  O   -0.564965
     5  C   -0.056170
     6  C    0.155049
     7  C   -0.052149
     8  C   -0.061628
     9  C    0.013626
    10  C    0.019296
    11  C    0.020327
    22  N   -0.483390
    23  C    0.178739
    24  C    0.611689
    25  O   -0.479806
    26  C    0.051476
    27  C    0.038701
    28  C    0.209272
    36  N   -0.273709
    37  C    0.190386
    38  C    0.558791
    39  O   -0.495316
    40  C    0.078734
    41  C    0.028769
    42  C    0.082709
    43  C    0.240368
    44  N    0.517829
    45  O   -0.126479
 Electronic spatial extent (au):  <R**2>=         411091.3897
 Charge=              1.0000 electrons
 Dipole moment (field-independent basis, Debye):
    X=            -38.7230    Y=             82.4470    Z=             67.0212  Tot=            113.0877
 Quadrupole moment (field-independent basis, Debye-Ang):
   XX=            146.9588   YY=           1284.8174   ZZ=            851.1910
   XY=           -671.8661   XZ=           -538.3048   YZ=           1122.2492
 Traceless Quadrupole moment (field-independent basis, Debye-Ang):
   XX=           -614.0303   YY=            523.8283   ZZ=             90.2019
   XY=           -671.8661   XZ=           -538.3048   YZ=           1122.2492
 Octapole moment (field-independent basis, Debye-Ang**2):
  XXX=           1336.5476  YYY=          17109.9125  ZZZ=          10376.6415  XYY=         -10660.0343
  XXY=           2430.4456  XXZ=           2337.8400  XZZ=          -6848.3415  YZZ=          13722.9315
  YYZ=          17204.5886  XYZ=          -9165.8431
 Hexadecapole moment (field-independent basis, Debye-Ang**3):
 XXXX=         -42502.9829 YYYY=         149119.9443 ZZZZ=         120009.8963 XXXY=          25332.1463
 XXXZ=          10815.0734 YYYX=        -148235.6217 YYYZ=         226648.5799 ZZZX=         -84484.4475
 ZZZY=         157744.5087 XXYY=          31097.3883 XXZZ=          29601.2346 YYZZ=         199308.5344
 XXYZ=          38086.3620 YYXZ=        -144348.8469 ZZXY=        -113432.2298
 N-N= 2.873595073515D+03 E-N=-8.750643669679D+03  KE= 1.288374029130D+03
 Unable to Open any file for archive entry.
 1\1\GINC-SKL-144\SP\RB3LYP\6-31G(d)\C20H31N4O4(1+)\KENGMITH\25-May-202
 2\0\\# B3LYP/6-31G* empiricaldispersion=gd3 guess=read geom=check nosy
 mm integral(ultrafinegrid)\\Candidate Structure: Conf:879 Charge calc 
 in gas phase\\1,1\N,0,-6.5798651132,16.1743311598,9.6802317935\C,0,-7.
 2143151764,17.4864657253,9.6207493037\C,0,-6.4035619318,18.4625809948,
 10.472429212\O,0,-5.5680637302,18.0737219266,11.3013247974\C,0,-8.6597
 830687,17.3655576465,10.1892404162\C,0,-9.5379749428,16.5038366962,9.3
 116368569\C,0,-9.6340666148,15.1225432633,9.529646645\C,0,-10.23345545
 66,17.0639083941,8.2315367193\C,0,-10.4062691082,14.3206232025,8.68702
 02628\C,0,-11.0078024265,16.2661645886,7.3890760395\C,0,-11.0954700616
 ,14.8904992698,7.6150337322\H,0,-7.2864569161,17.9022576701,8.60022120
 76\H,0,-8.5715290146,16.9395478968,11.1924530107\H,0,-9.1055208348,18.
 3624179724,10.2908258001\H,0,-9.0933892888,14.6787811974,10.3617203377
 \H,0,-10.1736117196,18.1361093154,8.0521204134\H,0,-10.4721792514,13.2
 515318365,8.8697424876\H,0,-11.5452221233,16.7174436715,6.5596914036\H
 ,0,-11.6995385927,14.2680566465,6.9612324066\H,0,-5.588744699,16.24722
 21725,9.4624322457\H,0,-7.0068811256,15.5679275213,8.9837340522\N,0,-6
 .6529543693,19.7958297053,10.3358396685\C,0,-5.8510420036,20.760962224
 9,11.1167283498\C,0,-6.0835990064,20.6569508743,12.6309966031\O,0,-5.2
 193964807,20.9827046365,13.4213438648\C,0,-6.2328224384,22.1354196045,
 10.5162504974\C,0,-7.5938423132,21.8887423867,9.8460886624\C,0,-7.4533
 201373,20.4674708291,9.2916259972\H,0,-4.7862069953,20.5454791448,11.0
 005822413\H,0,-6.2538122649,22.921551184,11.2746322207\H,0,-5.48753275
 4,22.418843966,9.7661626419\H,0,-8.3991192187,21.9194194423,10.5902291
 838\H,0,-7.8270880187,22.6183575066,9.0667355128\H,0,-6.9111870379,20.
 4618641771,8.3367603564\H,0,-8.4128849191,19.9705517235,9.1415795785\N
 ,0,-7.3324964574,20.1950990591,13.0360297609\C,0,-7.4285049324,19.4644
 93636,14.3031296465\C,0,-7.1446190674,18.0351694904,13.871830707\O,0,-
 8.0111115814,17.2436694846,13.5188462376\C,0,-8.7717623179,19.63951136
 85,15.0240715143\C,0,-9.1056851811,18.5029916195,16.0171714843\C,0,-7.
 9528099318,18.0585441862,16.9597163217\C,0,-7.84848803,16.5426677507,1
 7.1426642349\N,0,-7.3071342979,15.855463914,15.8910217081\O,0,-5.83507
 95286,17.7218246171,13.8750360767\H,0,-5.6195935496,17.3275994141,12.9
 879098437\H,0,-7.9272015108,19.8429201681,12.292788594\H,0,-6.59349366
 01,19.8225276029,14.9084193011\H,0,-9.5799818545,19.6847095884,14.2862
 486211\H,0,-8.7527825199,20.6104645662,15.5301611594\H,0,-9.9622630868
 ,18.810586981,16.6248946488\H,0,-9.4540411623,17.6470658913,15.4296988
 32\H,0,-8.0960729407,18.4791199545,17.9607604884\H,0,-6.9759101605,18.
 4365245291,16.6337978258\H,0,-7.1610147115,16.2738520602,17.948131974\
 H,0,-8.821772771,16.0862664794,17.3402851054\H,0,-6.3657211755,16.1986
 4264,15.6503759088\H,0,-7.873017727,16.0628992675,15.0445523622\H,0,-7
 .2538269896,14.8384182477,16.008655611\\Version=ES64L-G16RevC.01\HF=-1
 300.5859726\RMSD=5.579e-09\Dipole=-0.5899598,-1.9646398,3.9485692\Quad
 rupole=-456.5164458,389.4535103,67.0629354,-499.5159515,-400.2164378,8
 34.3647514\PG=C01 [X(C20H31N4O4)]\\@
 The archive entry for this job was punched.


 SIGN SEEN IN A RESTAURANT-
 WE RESERVE THE RIGHT TO SERVE REFUSE TO ANYONE.
 Job cpu time:       0 days  0 hours  1 minutes  2.6 seconds.
 Elapsed time:       0 days  0 hours  0 minutes 16.1 seconds.
 File lengths (MBytes):  RWF=    240 Int=      0 D2E=      0 Chk=     32 Scr=     16
 Normal termination of Gaussian 16 at Wed May 25 08:34:58 2022.
