 Entering Gaussian System, Link 0=/opt/software/Gaussian/g16-AVX2-C.01/g16/g16
 Input=charge-conf-102.com
 Output=charge-conf-102.log
 Initial command:
 /opt/software/Gaussian/g16-AVX2-C.01/g16/l1.exe "/mnt/gs18/scratch/users/kengmith/Gau-56836.inp" -scrdir="/mnt/gs18/scratch/users/kengmith/"
 Entering Link 1 = /opt/software/Gaussian/g16-AVX2-C.01/g16/l1.exe PID=     56856.
  
 Copyright (c) 1988-2019, Gaussian, Inc.  All Rights Reserved.
  
 This is part of the Gaussian(R) 16 program.  It is based on
 the Gaussian(R) 09 system (copyright 2009, Gaussian, Inc.),
 the Gaussian(R) 03 system (copyright 2003, Gaussian, Inc.),
 the Gaussian(R) 98 system (copyright 1998, Gaussian, Inc.),
 the Gaussian(R) 94 system (copyright 1995, Gaussian, Inc.),
 the Gaussian 92(TM) system (copyright 1992, Gaussian, Inc.),
 the Gaussian 90(TM) system (copyright 1990, Gaussian, Inc.),
 the Gaussian 88(TM) system (copyright 1988, Gaussian, Inc.),
 the Gaussian 86(TM) system (copyright 1986, Carnegie Mellon
 University), and the Gaussian 82(TM) system (copyright 1983,
 Carnegie Mellon University). Gaussian is a federally registered
 trademark of Gaussian, Inc.
  
 This software contains proprietary and confidential information,
 including trade secrets, belonging to Gaussian, Inc.
  
 This software is provided under written license and may be
 used, copied, transmitted, or stored only in accord with that
 written license.
  
 The following legend is applicable only to US Government
 contracts under FAR:
  
                    RESTRICTED RIGHTS LEGEND
  
 Use, reproduction and disclosure by the US Government is
 subject to restrictions as set forth in subparagraphs (a)
 and (c) of the Commercial Computer Software - Restricted
 Rights clause in FAR 52.227-19.
  
 Gaussian, Inc.
 340 Quinnipiac St., Bldg. 40, Wallingford CT 06492
  
  
 ---------------------------------------------------------------
 Warning -- This program may not be used in any manner that
 competes with the business of Gaussian, Inc. or will provide
 assistance to any competitor of Gaussian, Inc.  The licensee
 of this program is prohibited from giving any competitor of
 Gaussian, Inc. access to this program.  By using this program,
 the user acknowledges that Gaussian, Inc. is engaged in the
 business of creating and licensing software in the field of
 computational chemistry and represents and warrants to the
 licensee that it is not a competitor of Gaussian, Inc. and that
 it will not use this program in any manner prohibited above.
 ---------------------------------------------------------------
  

 Cite this work as:
 Gaussian 16, Revision C.01,
 M. J. Frisch, G. W. Trucks, H. B. Schlegel, G. E. Scuseria, 
 M. A. Robb, J. R. Cheeseman, G. Scalmani, V. Barone, 
 G. A. Petersson, H. Nakatsuji, X. Li, M. Caricato, A. V. Marenich, 
 J. Bloino, B. G. Janesko, R. Gomperts, B. Mennucci, H. P. Hratchian, 
 J. V. Ortiz, A. F. Izmaylov, J. L. Sonnenberg, D. Williams-Young, 
 F. Ding, F. Lipparini, F. Egidi, J. Goings, B. Peng, A. Petrone, 
 T. Henderson, D. Ranasinghe, V. G. Zakrzewski, J. Gao, N. Rega, 
 G. Zheng, W. Liang, M. Hada, M. Ehara, K. Toyota, R. Fukuda, 
 J. Hasegawa, M. Ishida, T. Nakajima, Y. Honda, O. Kitao, H. Nakai, 
 T. Vreven, K. Throssell, J. A. Montgomery, Jr., J. E. Peralta, 
 F. Ogliaro, M. J. Bearpark, J. J. Heyd, E. N. Brothers, K. N. Kudin, 
 V. N. Staroverov, T. A. Keith, R. Kobayashi, J. Normand, 
 K. Raghavachari, A. P. Rendell, J. C. Burant, S. S. Iyengar, 
 J. Tomasi, M. Cossi, J. M. Millam, M. Klene, C. Adamo, R. Cammi, 
 J. W. Ochterski, R. L. Martin, K. Morokuma, O. Farkas, 
 J. B. Foresman, and D. J. Fox, Gaussian, Inc., Wallingford CT, 2019.
 
 ******************************************
 Gaussian 16:  ES64L-G16RevC.01  3-Jul-2019
                24-May-2022 
 ******************************************
 %mem=8gb
 %nproc=4
 Will use up to    4 processors via shared memory.
 %chk=conf-102.chk
 ----------------------------------------------------------------------
 # B3LYP/6-31G* empiricaldispersion=gd3 guess=read geom=check nosymm in
 tegral(ultrafinegrid)
 ----------------------------------------------------------------------
 1/29=2,38=1,172=1/1;
 2/12=2,15=1,40=1/2;
 3/5=1,6=6,7=1,11=2,14=-4,25=1,30=1,74=-5,75=-5,116=-2,124=31/1,2,3;
 4/5=1/1;
 5/5=2,38=6/2;
 6/7=2,8=2,9=2,10=2,28=1/1;
 99/5=1,9=1/99;
 ------------------------------------------------------
 Candidate Structure: Conf:102 Charge calc in gas phase
 ------------------------------------------------------
 Structure from the checkpoint file:  "conf-102.chk"
 Charge =  1 Multiplicity = 1
 Redundant internal coordinates found in file.  (old form).
 N,0,-4.7878623863,-90.335893992,127.0848025809
 C,0,-4.9516355493,-88.9640912153,127.5363671315
 C,0,-3.6936878334,-88.0650739503,127.6146008478
 O,0,-3.8007945474,-86.854130972,127.8830168166
 C,0,-6.039538982,-88.2624120401,126.6963546158
 C,0,-7.4024718159,-88.9474843872,126.7897013533
 C,0,-8.0877645217,-88.8014446366,128.1260314542
 O,0,-7.6884983594,-88.1517706694,129.0889013037
 O,0,-9.2356979683,-89.4773111481,128.1709229192
 H,0,-9.6429513806,-89.3423661721,129.048640068
 H,0,-4.2909543429,-90.9378269089,127.73328274
 H,0,-5.3061915221,-89.0196274869,128.5742716357
 H,0,-5.7214824899,-88.2628263007,125.6464407702
 H,0,-6.1097462268,-87.2133036875,126.9940761675
 H,0,-7.3077114721,-90.0196458335,126.5849386731
 H,0,-8.0927731781,-88.551889665,126.0343260492
 H,0,-4.3867494542,-90.4137832961,126.1542050133
 N,0,-2.5110266265,-88.674438461,127.41419568
 C,0,-1.1967775266,-88.0588716201,127.6619574232
 C,0,-1.0886437708,-87.8788891325,129.1926545637
 O,0,-0.8157006713,-88.8053426681,129.9448066515
 C,0,-0.0744332044,-88.9531979033,127.1197131121
 C,0,1.2747396881,-88.2750103492,127.2216212086
 C,0,2.0501491017,-88.3784155419,128.387069322
 C,0,1.7591099362,-87.4904588137,126.1692952988
 C,0,3.2703430595,-87.7214211409,128.498451911
 C,0,2.9811286551,-86.8266044646,126.2665068132
 C,0,3.7424347348,-86.9409766655,127.4357450855
 O,0,4.9452283138,-86.32337887,127.6039617316
 H,0,-2.5247437,-89.6786219731,127.2923326004
 H,0,-1.1791836929,-87.0900716769,127.1536452513
 H,0,-0.0785319964,-89.8873468029,127.6941053446
 H,0,-0.3042328561,-89.1959313263,126.0751676945
 H,0,1.6872901905,-88.9776372192,129.2170745512
 H,0,1.1816823417,-87.401218171,125.2512260168
 H,0,3.8764589517,-87.8054249994,129.3945531989
 H,0,3.3464617147,-86.228807828,125.4339829363
 H,0,5.1814850175,-85.8410127242,126.7962748284
 N,0,-1.4512920787,-86.6403030043,129.6215940444
 C,0,-1.8787930099,-86.3752892146,130.9909533194
 C,0,-2.5132969765,-87.5951548924,131.6585358285
 O,0,-2.2790914771,-87.9792680338,132.769849917
 C,0,-2.8802604007,-85.191138033,130.9105332671
 C,0,-3.9283818756,-85.0279957545,132.0330522524
 C,0,-5.2415472321,-84.4386760173,131.4728197851
 C,0,-6.2382994653,-85.4708868809,130.9319842586
 N,0,-5.6653186813,-86.4513844841,129.940025784
 O,0,-3.5338692248,-88.15950585,130.9018298373
 H,0,-3.8089148697,-88.9510627515,131.4047389954
 H,0,-1.865729164,-86.0488385486,128.9131454329
 H,0,-1.0255050052,-86.1294185932,131.6287024044
 H,0,-2.3015875066,-84.2663133794,130.8137753733
 H,0,-3.4017247786,-85.3056740761,129.9561560634
 H,0,-3.5366428931,-84.3731716309,132.8164847382
 H,0,-4.1411420506,-85.9815324926,132.5327878457
 H,0,-5.7801441781,-83.8981313664,132.2592629134
 H,0,-5.0154754751,-83.6963785031,130.6965151705
 H,0,-6.6355922832,-86.08546174,131.7450562775
 H,0,-7.0811290594,-84.9810019978,130.4383236006
 H,0,-4.9395445234,-87.0555965278,130.3650859408
 H,0,-5.1964967347,-86.051087779,129.1129561598
 H,0,-6.4120848864,-87.080422435,129.5703812865
 Recover connectivity data from disk.
                           ----------------------------
                           !    Current Parameters    !
                           ! (Angstroms and Degrees)  !
 --------------------------                            --------------------------
 ! Name  Definition              Value                                          !
 --------------------------------------------------------------------------------
 ! R1    R(1,2)                  1.4535                                         !
 ! R2    R(1,11)                 1.0148                                         !
 ! R3    R(1,17)                 1.0164                                         !
 ! R4    R(2,3)                  1.5482                                         !
 ! R5    R(2,5)                  1.5432                                         !
 ! R6    R(2,12)                 1.0982                                         !
 ! R7    R(3,4)                  1.245                                          !
 ! R8    R(3,18)                 1.3454                                         !
 ! R9    R(5,6)                  1.5283                                         !
 ! R10   R(5,13)                 1.097                                          !
 ! R11   R(5,14)                 1.0928                                         !
 ! R12   R(6,7)                  1.5089                                         !
 ! R13   R(6,15)                 1.0956                                         !
 ! R14   R(6,16)                 1.0971                                         !
 ! R15   R(7,8)                  1.2283                                         !
 ! R16   R(7,9)                  1.3329                                         !
 ! R17   R(9,10)                 0.977                                          !
 ! R18   R(18,19)                1.4723                                         !
 ! R19   R(18,30)                1.0116                                         !
 ! R20   R(19,20)                1.545                                          !
 ! R21   R(19,22)                1.5341                                         !
 ! R22   R(19,31)                1.0942                                         !
 ! R23   R(20,21)                1.2242                                         !
 ! R24   R(20,39)                1.36                                           !
 ! R25   R(22,23)                1.5135                                         !
 ! R26   R(22,32)                1.0966                                         !
 ! R27   R(22,33)                1.0967                                         !
 ! R28   R(23,24)                1.4036                                         !
 ! R29   R(23,25)                1.3991                                         !
 ! R30   R(24,26)                1.3903                                         !
 ! R31   R(24,34)                1.0861                                         !
 ! R32   R(25,27)                1.3941                                         !
 ! R33   R(25,35)                1.0882                                         !
 ! R34   R(26,28)                1.4005                                         !
 ! R35   R(26,36)                1.0851                                         !
 ! R36   R(27,28)                1.3999                                         !
 ! R37   R(27,37)                1.0881                                         !
 ! R38   R(28,29)                1.3625                                         !
 ! R39   R(29,38)                0.97                                           !
 ! R40   R(39,40)                1.4588                                         !
 ! R41   R(39,50)                1.0117                                         !
 ! R42   R(40,41)                1.5285                                         !
 ! R43   R(40,43)                1.5529                                         !
 ! R44   R(40,51)                1.0933                                         !
 ! R45   R(41,42)                1.1989                                         !
 ! R46   R(41,48)                1.3902                                         !
 ! R47   R(43,44)                1.5444                                         !
 ! R48   R(43,52)                1.0952                                         !
 ! R49   R(43,53)                1.0936                                         !
 ! R50   R(44,45)                1.5445                                         !
 ! R51   R(44,54)                1.0936                                         !
 ! R52   R(44,55)                1.0974                                         !
 ! R53   R(45,46)                1.5335                                         !
 ! R54   R(45,56)                1.0958                                         !
 ! R55   R(45,57)                1.0976                                         !
 ! R56   R(46,47)                1.5079                                         !
 ! R57   R(46,58)                1.0939                                         !
 ! R58   R(46,59)                1.0927                                         !
 ! R59   R(47,60)                1.0356                                         !
 ! R60   R(47,61)                1.0315                                         !
 ! R61   R(47,62)                1.044                                          !
 ! R62   R(48,49)                0.9773                                         !
 ! A1    A(2,1,11)             114.6125                                         !
 ! A2    A(2,1,17)             113.6574                                         !
 ! A3    A(11,1,17)            110.2678                                         !
 ! A4    A(1,2,3)              118.1784                                         !
 ! A5    A(1,2,5)              109.844                                          !
 ! A6    A(1,2,12)             106.3959                                         !
 ! A7    A(3,2,5)              109.6505                                         !
 ! A8    A(3,2,12)             104.1192                                         !
 ! A9    A(5,2,12)             108.0494                                         !
 ! A10   A(2,3,4)              120.3864                                         !
 ! A11   A(2,3,18)             116.3409                                         !
 ! A12   A(4,3,18)             123.2493                                         !
 ! A13   A(2,5,6)              113.0555                                         !
 ! A14   A(2,5,13)             108.4448                                         !
 ! A15   A(2,5,14)             109.4816                                         !
 ! A16   A(6,5,13)             108.4722                                         !
 ! A17   A(6,5,14)             110.8799                                         !
 ! A18   A(13,5,14)            106.244                                          !
 ! A19   A(5,6,7)              114.5662                                         !
 ! A20   A(5,6,15)             110.4941                                         !
 ! A21   A(5,6,16)             110.9434                                         !
 ! A22   A(7,6,15)             107.4281                                         !
 ! A23   A(7,6,16)             106.8051                                         !
 ! A24   A(15,6,16)            106.1766                                         !
 ! A25   A(6,7,8)              126.7155                                         !
 ! A26   A(6,7,9)              111.8331                                         !
 ! A27   A(8,7,9)              121.4512                                         !
 ! A28   A(7,9,10)             108.6166                                         !
 ! A29   A(3,18,19)            124.7673                                         !
 ! A30   A(3,18,30)            117.1035                                         !
 ! A31   A(19,18,30)           116.5771                                         !
 ! A32   A(18,19,20)           106.1354                                         !
 ! A33   A(18,19,22)           110.4781                                         !
 ! A34   A(18,19,31)           107.8406                                         !
 ! A35   A(20,19,22)           111.5237                                         !
 ! A36   A(20,19,31)           110.8533                                         !
 ! A37   A(22,19,31)           109.8884                                         !
 ! A38   A(19,20,21)           122.4233                                         !
 ! A39   A(19,20,39)           113.5719                                         !
 ! A40   A(21,20,39)           123.7048                                         !
 ! A41   A(19,22,23)           111.5398                                         !
 ! A42   A(19,22,32)           107.9821                                         !
 ! A43   A(19,22,33)           108.2023                                         !
 ! A44   A(23,22,32)           110.4736                                         !
 ! A45   A(23,22,33)           110.493                                          !
 ! A46   A(32,22,33)           108.0319                                         !
 ! A47   A(22,23,24)           121.021                                          !
 ! A48   A(22,23,25)           120.6134                                         !
 ! A49   A(24,23,25)           118.3308                                         !
 ! A50   A(23,24,26)           121.1006                                         !
 ! A51   A(23,24,34)           119.3799                                         !
 ! A52   A(26,24,34)           119.5186                                         !
 ! A53   A(23,25,27)           121.2011                                         !
 ! A54   A(23,25,35)           119.7897                                         !
 ! A55   A(27,25,35)           119.0058                                         !
 ! A56   A(24,26,28)           119.8945                                         !
 ! A57   A(24,26,36)           121.3201                                         !
 ! A58   A(28,26,36)           118.7836                                         !
 ! A59   A(25,27,28)           119.7379                                         !
 ! A60   A(25,27,37)           120.1712                                         !
 ! A61   A(28,27,37)           120.0888                                         !
 ! A62   A(26,28,27)           119.7351                                         !
 ! A63   A(26,28,29)           117.1612                                         !
 ! A64   A(27,28,29)           123.1037                                         !
 ! A65   A(28,29,38)           109.7324                                         !
 ! A66   A(20,39,40)           122.6595                                         !
 ! A67   A(20,39,50)           114.8862                                         !
 ! A68   A(40,39,50)           115.5359                                         !
 ! A69   A(39,40,41)           112.7455                                         !
 ! A70   A(39,40,43)           106.1942                                         !
 ! A71   A(39,40,51)           111.0818                                         !
 ! A72   A(41,40,43)           111.3134                                         !
 ! A73   A(41,40,51)           104.4003                                         !
 ! A74   A(43,40,51)           111.2257                                         !
 ! A75   A(40,41,42)           125.411                                          !
 ! A76   A(40,41,48)           113.016                                          !
 ! A77   A(42,41,48)           121.1907                                         !
 ! A78   A(40,43,44)           118.7221                                         !
 ! A79   A(40,43,52)           107.9224                                         !
 ! A80   A(40,43,53)           105.8335                                         !
 ! A81   A(44,43,52)           109.4865                                         !
 ! A82   A(44,43,53)           108.7697                                         !
 ! A83   A(52,43,53)           105.2652                                         !
 ! A84   A(43,44,45)           110.7116                                         !
 ! A85   A(43,44,54)           109.9271                                         !
 ! A86   A(43,44,55)           111.7637                                         !
 ! A87   A(45,44,54)           109.6287                                         !
 ! A88   A(45,44,55)           109.3831                                         !
 ! A89   A(54,44,55)           105.2781                                         !
 ! A90   A(44,45,46)           115.0704                                         !
 ! A91   A(44,45,56)           110.2295                                         !
 ! A92   A(44,45,57)           109.8442                                         !
 ! A93   A(46,45,56)           105.4077                                         !
 ! A94   A(46,45,57)           109.856                                          !
 ! A95   A(56,45,57)           105.9757                                         !
 ! A96   A(45,46,47)           115.0068                                         !
 ! A97   A(45,46,58)           110.616                                          !
 ! A98   A(45,46,59)           111.0337                                         !
 ! A99   A(47,46,58)           105.1681                                         !
 ! A100  A(47,46,59)           106.7031                                         !
 ! A101  A(58,46,59)           107.9104                                         !
 ! A102  A(46,47,60)           112.066                                          !
 ! A103  A(46,47,61)           116.6041                                         !
 ! A104  A(46,47,62)           110.6651                                         !
 ! A105  A(60,47,61)           103.7083                                         !
 ! A106  A(60,47,62)           107.1618                                         !
 ! A107  A(61,47,62)           105.963                                          !
 ! A108  A(41,48,49)           104.7914                                         !
 ! D1    D(11,1,2,3)            69.3675                                         !
 ! D2    D(11,1,2,5)          -163.8405                                         !
 ! D3    D(11,1,2,12)          -47.1259                                         !
 ! D4    D(17,1,2,3)           -58.7058                                         !
 ! D5    D(17,1,2,5)            68.0861                                         !
 ! D6    D(17,1,2,12)         -175.1992                                         !
 ! D7    D(1,2,3,4)            173.7296                                         !
 ! D8    D(1,2,3,18)            -7.975                                          !
 ! D9    D(5,2,3,4)             46.8449                                         !
 ! D10   D(5,2,3,18)          -134.8597                                         !
 ! D11   D(12,2,3,4)           -68.5633                                         !
 ! D12   D(12,2,3,18)          109.7321                                         !
 ! D13   D(1,2,5,6)             59.7082                                         !
 ! D14   D(1,2,5,13)           -60.6199                                         !
 ! D15   D(1,2,5,14)          -176.1364                                         !
 ! D16   D(3,2,5,6)           -168.8438                                         !
 ! D17   D(3,2,5,13)            70.828                                          !
 ! D18   D(3,2,5,14)           -44.6885                                         !
 ! D19   D(12,2,5,6)           -55.9644                                         !
 ! D20   D(12,2,5,13)         -176.2925                                         !
 ! D21   D(12,2,5,14)           68.191                                          !
 ! D22   D(2,3,18,19)         -169.3986                                         !
 ! D23   D(2,3,18,30)           -4.1368                                         !
 ! D24   D(4,3,18,19)            8.8431                                         !
 ! D25   D(4,3,18,30)          174.1049                                         !
 ! D26   D(2,5,6,7)             70.4004                                         !
 ! D27   D(2,5,6,15)           -51.0948                                         !
 ! D28   D(2,5,6,16)          -168.5797                                         !
 ! D29   D(13,5,6,7)          -169.2871                                         !
 ! D30   D(13,5,6,15)           69.2177                                         !
 ! D31   D(13,5,6,16)          -48.2672                                         !
 ! D32   D(14,5,6,7)           -52.9864                                         !
 ! D33   D(14,5,6,15)         -174.4816                                         !
 ! D34   D(14,5,6,16)           68.0335                                         !
 ! D35   D(5,6,7,8)              3.5275                                         !
 ! D36   D(5,6,7,9)           -176.6598                                         !
 ! D37   D(15,6,7,8)           126.6875                                         !
 ! D38   D(15,6,7,9)           -53.4999                                         !
 ! D39   D(16,6,7,8)          -119.7444                                         !
 ! D40   D(16,6,7,9)            60.0683                                         !
 ! D41   D(6,7,9,10)          -179.3477                                         !
 ! D42   D(8,7,9,10)             0.4762                                         !
 ! D43   D(3,18,19,20)          67.8685                                         !
 ! D44   D(3,18,19,22)        -171.0849                                         !
 ! D45   D(3,18,19,31)         -50.9741                                         !
 ! D46   D(30,18,19,20)        -97.4632                                         !
 ! D47   D(30,18,19,22)         23.5834                                         !
 ! D48   D(30,18,19,31)        143.6942                                         !
 ! D49   D(18,19,20,21)         78.4032                                         !
 ! D50   D(18,19,20,39)        -95.5198                                         !
 ! D51   D(22,19,20,21)        -41.9676                                         !
 ! D52   D(22,19,20,39)        144.1095                                         !
 ! D53   D(31,19,20,21)       -164.7573                                         !
 ! D54   D(31,19,20,39)         21.3197                                         !
 ! D55   D(18,19,22,23)        173.6331                                         !
 ! D56   D(18,19,22,32)        -64.8021                                         !
 ! D57   D(18,19,22,33)         51.8977                                         !
 ! D58   D(20,19,22,23)        -68.5806                                         !
 ! D59   D(20,19,22,32)         52.9842                                         !
 ! D60   D(20,19,22,33)        169.684                                          !
 ! D61   D(31,19,22,23)         54.7595                                         !
 ! D62   D(31,19,22,32)        176.3243                                         !
 ! D63   D(31,19,22,33)        -66.9759                                         !
 ! D64   D(19,20,39,40)        157.8744                                         !
 ! D65   D(19,20,39,50)          8.3559                                         !
 ! D66   D(21,20,39,40)        -15.9591                                         !
 ! D67   D(21,20,39,50)       -165.4776                                         !
 ! D68   D(19,22,23,24)         87.441                                          !
 ! D69   D(19,22,23,25)        -90.3767                                         !
 ! D70   D(32,22,23,24)        -32.6681                                         !
 ! D71   D(32,22,23,25)        149.5143                                         !
 ! D72   D(33,22,23,24)       -152.1588                                         !
 ! D73   D(33,22,23,25)         30.0236                                         !
 ! D74   D(22,23,24,26)       -177.9386                                         !
 ! D75   D(22,23,24,34)          1.7282                                         !
 ! D76   D(25,23,24,26)         -0.0724                                         !
 ! D77   D(25,23,24,34)        179.5944                                         !
 ! D78   D(22,23,25,27)        177.9845                                         !
 ! D79   D(22,23,25,35)         -2.6916                                         !
 ! D80   D(24,23,25,27)          0.1092                                         !
 ! D81   D(24,23,25,35)        179.4331                                         !
 ! D82   D(23,24,26,28)          0.0016                                         !
 ! D83   D(23,24,26,36)       -179.4929                                         !
 ! D84   D(34,24,26,28)       -179.6647                                         !
 ! D85   D(34,24,26,36)          0.8408                                         !
 ! D86   D(23,25,27,28)         -0.075                                          !
 ! D87   D(23,25,27,37)        179.3917                                         !
 ! D88   D(35,25,27,28)       -179.404                                          !
 ! D89   D(35,25,27,37)          0.0626                                         !
 ! D90   D(24,26,28,27)          0.0344                                         !
 ! D91   D(24,26,28,29)       -179.916                                          !
 ! D92   D(36,26,28,27)        179.5417                                         !
 ! D93   D(36,26,28,29)         -0.4087                                         !
 ! D94   D(25,27,28,26)          0.0016                                         !
 ! D95   D(25,27,28,29)        179.9489                                         !
 ! D96   D(37,27,28,26)       -179.4655                                         !
 ! D97   D(37,27,28,29)          0.4818                                         !
 ! D98   D(26,28,29,38)        178.0073                                         !
 ! D99   D(27,28,29,38)         -1.9413                                         !
 ! D100  D(20,39,40,41)        -27.7639                                         !
 ! D101  D(20,39,40,43)       -149.9153                                         !
 ! D102  D(20,39,40,51)         89.0202                                         !
 ! D103  D(50,39,40,41)        121.574                                          !
 ! D104  D(50,39,40,43)         -0.5774                                         !
 ! D105  D(50,39,40,51)       -121.6419                                         !
 ! D106  D(39,40,41,42)        134.9055                                         !
 ! D107  D(39,40,41,48)        -52.1592                                         !
 ! D108  D(43,40,41,42)       -105.8732                                         !
 ! D109  D(43,40,41,48)         67.062                                          !
 ! D110  D(51,40,41,42)         14.2198                                         !
 ! D111  D(51,40,41,48)       -172.845                                          !
 ! D112  D(39,40,43,44)        155.4933                                         !
 ! D113  D(39,40,43,52)        -79.2656                                         !
 ! D114  D(39,40,43,53)         33.0279                                         !
 ! D115  D(41,40,43,44)         32.4359                                         !
 ! D116  D(41,40,43,52)        157.6769                                         !
 ! D117  D(41,40,43,53)        -90.0295                                         !
 ! D118  D(51,40,43,44)        -83.5349                                         !
 ! D119  D(51,40,43,52)         41.7062                                         !
 ! D120  D(51,40,43,53)        153.9997                                         !
 ! D121  D(40,41,48,49)        176.4068                                         !
 ! D122  D(42,41,48,49)        -10.3224                                         !
 ! D123  D(40,43,44,45)       -147.0136                                         !
 ! D124  D(40,43,44,54)         91.7159                                         !
 ! D125  D(40,43,44,55)        -24.8055                                         !
 ! D126  D(52,43,44,45)         88.5056                                         !
 ! D127  D(52,43,44,54)        -32.7649                                         !
 ! D128  D(52,43,44,55)       -149.2863                                         !
 ! D129  D(53,43,44,45)        -26.0278                                         !
 ! D130  D(53,43,44,54)       -147.2983                                         !
 ! D131  D(53,43,44,55)         96.1803                                         !
 ! D132  D(43,44,45,46)         87.5525                                         !
 ! D133  D(43,44,45,56)       -153.4354                                         !
 ! D134  D(43,44,45,57)        -37.0226                                         !
 ! D135  D(54,44,45,46)       -151.001                                          !
 ! D136  D(54,44,45,56)        -31.9889                                         !
 ! D137  D(54,44,45,57)         84.4239                                         !
 ! D138  D(55,44,45,46)        -36.0371                                         !
 ! D139  D(55,44,45,56)         82.9751                                         !
 ! D140  D(55,44,45,57)       -160.6122                                         !
 ! D141  D(44,45,46,47)        -51.4396                                         !
 ! D142  D(44,45,46,58)         67.504                                          !
 ! D143  D(44,45,46,59)       -172.7149                                         !
 ! D144  D(56,45,46,47)       -173.1011                                         !
 ! D145  D(56,45,46,58)        -54.1576                                         !
 ! D146  D(56,45,46,59)         65.6235                                         !
 ! D147  D(57,45,46,47)         73.1294                                         !
 ! D148  D(57,45,46,58)       -167.9271                                         !
 ! D149  D(57,45,46,59)        -48.146                                          !
 ! D150  D(45,46,47,60)         64.1367                                         !
 ! D151  D(45,46,47,61)        -55.1393                                         !
 ! D152  D(45,46,47,62)       -176.3135                                         !
 ! D153  D(58,46,47,60)        -57.8013                                         !
 ! D154  D(58,46,47,61)       -177.0773                                         !
 ! D155  D(58,46,47,62)         61.7485                                         !
 ! D156  D(59,46,47,60)       -172.2586                                         !
 ! D157  D(59,46,47,61)         68.4654                                         !
 ! D158  D(59,46,47,62)        -52.7088                                         !
 --------------------------------------------------------------------------------
 Symmetry turned off by external request.
 Stoichiometry    C20H31N4O7(1+)
 Framework group  C1[X(C20H31N4O7)]
 Deg. of freedom   180
 Full point group                 C1      NOp   1
                          Input orientation:                          
 ---------------------------------------------------------------------
 Center     Atomic      Atomic             Coordinates (Angstroms)
 Number     Number       Type             X           Y           Z
 ---------------------------------------------------------------------
      1          7           0       -4.787862  -90.335894  127.084803
      2          6           0       -4.951636  -88.964091  127.536367
      3          6           0       -3.693688  -88.065074  127.614601
      4          8           0       -3.800795  -86.854131  127.883017
      5          6           0       -6.039539  -88.262412  126.696355
      6          6           0       -7.402472  -88.947484  126.789701
      7          6           0       -8.087765  -88.801445  128.126031
      8          8           0       -7.688498  -88.151771  129.088901
      9          8           0       -9.235698  -89.477311  128.170923
     10          1           0       -9.642951  -89.342366  129.048640
     11          1           0       -4.290954  -90.937827  127.733283
     12          1           0       -5.306192  -89.019627  128.574272
     13          1           0       -5.721482  -88.262826  125.646441
     14          1           0       -6.109746  -87.213304  126.994076
     15          1           0       -7.307711  -90.019646  126.584939
     16          1           0       -8.092773  -88.551890  126.034326
     17          1           0       -4.386749  -90.413783  126.154205
     18          7           0       -2.511027  -88.674438  127.414196
     19          6           0       -1.196778  -88.058872  127.661957
     20          6           0       -1.088644  -87.878889  129.192655
     21          8           0       -0.815701  -88.805343  129.944807
     22          6           0       -0.074433  -88.953198  127.119713
     23          6           0        1.274740  -88.275010  127.221621
     24          6           0        2.050149  -88.378416  128.387069
     25          6           0        1.759110  -87.490459  126.169295
     26          6           0        3.270343  -87.721421  128.498452
     27          6           0        2.981129  -86.826604  126.266507
     28          6           0        3.742435  -86.940977  127.435745
     29          8           0        4.945228  -86.323379  127.603962
     30          1           0       -2.524744  -89.678622  127.292333
     31          1           0       -1.179184  -87.090072  127.153645
     32          1           0       -0.078532  -89.887347  127.694105
     33          1           0       -0.304233  -89.195931  126.075168
     34          1           0        1.687290  -88.977637  129.217075
     35          1           0        1.181682  -87.401218  125.251226
     36          1           0        3.876459  -87.805425  129.394553
     37          1           0        3.346462  -86.228808  125.433983
     38          1           0        5.181485  -85.841013  126.796275
     39          7           0       -1.451292  -86.640303  129.621594
     40          6           0       -1.878793  -86.375289  130.990953
     41          6           0       -2.513297  -87.595155  131.658536
     42          8           0       -2.279091  -87.979268  132.769850
     43          6           0       -2.880260  -85.191138  130.910533
     44          6           0       -3.928382  -85.027996  132.033052
     45          6           0       -5.241547  -84.438676  131.472820
     46          6           0       -6.238299  -85.470887  130.931984
     47          7           0       -5.665319  -86.451384  129.940026
     48          8           0       -3.533869  -88.159506  130.901830
     49          1           0       -3.808915  -88.951063  131.404739
     50          1           0       -1.865729  -86.048839  128.913145
     51          1           0       -1.025505  -86.129419  131.628702
     52          1           0       -2.301588  -84.266313  130.813775
     53          1           0       -3.401725  -85.305674  129.956156
     54          1           0       -3.536643  -84.373172  132.816485
     55          1           0       -4.141142  -85.981532  132.532788
     56          1           0       -5.780144  -83.898131  132.259263
     57          1           0       -5.015475  -83.696379  130.696515
     58          1           0       -6.635592  -86.085462  131.745056
     59          1           0       -7.081129  -84.981002  130.438324
     60          1           0       -4.939545  -87.055597  130.365086
     61          1           0       -5.196497  -86.051088  129.112956
     62          1           0       -6.412085  -87.080422  129.570381
 ---------------------------------------------------------------------
 Rotational constants (GHZ):           0.2203885           0.0775018           0.0642624
 Standard basis: 6-31G(d) (6D, 7F)
   527 basis functions,   992 primitive gaussians,   527 cartesian basis functions
   117 alpha electrons      117 beta electrons
       nuclear repulsion energy      3348.3866932819 Hartrees.
 NAtoms=   62 NActive=   62 NUniq=   62 SFac= 1.00D+00 NAtFMM=   60 NAOKFM=T Big=T
 Integral buffers will be    131072 words long.
 Raffenetti 2 integral format.
 Two-electron integral symmetry is turned off.
 Nuclear repulsion after empirical dispersion term =     3348.3030988674 Hartrees.
 One-electron integrals computed using PRISM.
 NBasis=   527 RedAO= T EigKep=  4.33D-04  NBF=   527
 NBsUse=   527 1.00D-06 EigRej= -1.00D+00 NBFU=   527
 Initial guess from the checkpoint file:  "conf-102.chk"
 B after Tr=     0.000000    0.000000    0.000000
         Rot=    1.000000    0.000000    0.000000    0.000000 Ang=   0.00 deg.
 Requested convergence on RMS density matrix=1.00D-08 within 128 cycles.
 Requested convergence on MAX density matrix=1.00D-06.
 Requested convergence on             energy=1.00D-06.
 No special actions if energy rises.
 SCF Done:  E(RB3LYP) =  -1526.30923342     A.U. after    1 cycles
            NFock=  1  Conv=0.76D-08     -V/T= 2.0093

 **********************************************************************

            Population analysis using the SCF Density.

 **********************************************************************

 Alpha  occ. eigenvalues --  -19.32485 -19.32313 -19.28130 -19.25796 -19.24738
 Alpha  occ. eigenvalues --  -19.24193 -19.22237 -14.55517 -14.48776 -14.46767
 Alpha  occ. eigenvalues --  -14.44598 -10.45770 -10.43829 -10.41283 -10.39109
 Alpha  occ. eigenvalues --  -10.37667 -10.35616 -10.35310 -10.34279 -10.32326
 Alpha  occ. eigenvalues --  -10.31933 -10.31670 -10.31651 -10.31360 -10.31235
 Alpha  occ. eigenvalues --  -10.28577 -10.26449 -10.26335 -10.25775 -10.25698
 Alpha  occ. eigenvalues --  -10.25013  -1.23892  -1.22381  -1.16114  -1.14777
 Alpha  occ. eigenvalues --   -1.14148  -1.13697  -1.12326  -1.11023  -1.05187
 Alpha  occ. eigenvalues --   -1.03954  -1.01454  -0.93581  -0.92636  -0.91348
 Alpha  occ. eigenvalues --   -0.89694  -0.87942  -0.84108  -0.83805  -0.81556
 Alpha  occ. eigenvalues --   -0.80973  -0.77790  -0.76834  -0.75485  -0.73459
 Alpha  occ. eigenvalues --   -0.71690  -0.71448  -0.70577  -0.69960  -0.69156
 Alpha  occ. eigenvalues --   -0.69011  -0.67998  -0.65881  -0.64678  -0.63569
 Alpha  occ. eigenvalues --   -0.63143  -0.62384  -0.62117  -0.61230  -0.61048
 Alpha  occ. eigenvalues --   -0.60719  -0.60374  -0.59430  -0.59302  -0.58937
 Alpha  occ. eigenvalues --   -0.58089  -0.56777  -0.55826  -0.55412  -0.54737
 Alpha  occ. eigenvalues --   -0.54388  -0.54176  -0.53475  -0.53232  -0.52806
 Alpha  occ. eigenvalues --   -0.52449  -0.51648  -0.51180  -0.50761  -0.50012
 Alpha  occ. eigenvalues --   -0.49529  -0.49403  -0.48834  -0.48497  -0.47956
 Alpha  occ. eigenvalues --   -0.47429  -0.47061  -0.46865  -0.46719  -0.46467
 Alpha  occ. eigenvalues --   -0.46116  -0.45395  -0.45049  -0.44356  -0.44325
 Alpha  occ. eigenvalues --   -0.42854  -0.41749  -0.40984  -0.40387  -0.39869
 Alpha  occ. eigenvalues --   -0.39621  -0.39157  -0.36599  -0.35366  -0.34872
 Alpha  occ. eigenvalues --   -0.31960  -0.28612
 Alpha virt. eigenvalues --   -0.12332  -0.11460  -0.10874  -0.08235  -0.07216
 Alpha virt. eigenvalues --   -0.06806  -0.06078  -0.04683  -0.04490  -0.03593
 Alpha virt. eigenvalues --   -0.02598  -0.01036  -0.00711  -0.00020   0.00256
 Alpha virt. eigenvalues --    0.00873   0.01241   0.01694   0.02011   0.02383
 Alpha virt. eigenvalues --    0.02607   0.02724   0.03063   0.03715   0.04366
 Alpha virt. eigenvalues --    0.04820   0.05612   0.05685   0.05921   0.06329
 Alpha virt. eigenvalues --    0.06523   0.07094   0.07564   0.08391   0.08903
 Alpha virt. eigenvalues --    0.09279   0.09559   0.10193   0.10471   0.11165
 Alpha virt. eigenvalues --    0.11530   0.11908   0.12276   0.12870   0.13231
 Alpha virt. eigenvalues --    0.13712   0.13887   0.14039   0.14423   0.14644
 Alpha virt. eigenvalues --    0.15591   0.17024   0.17655   0.18143   0.18862
 Alpha virt. eigenvalues --    0.19963   0.21290   0.23350   0.24342   0.25316
 Alpha virt. eigenvalues --    0.26707   0.27016   0.27739   0.28034   0.29252
 Alpha virt. eigenvalues --    0.31067   0.33428   0.36655   0.37391   0.38423
 Alpha virt. eigenvalues --    0.38861   0.39764   0.40217   0.41094   0.41534
 Alpha virt. eigenvalues --    0.42024   0.42951   0.43320   0.43979   0.43997
 Alpha virt. eigenvalues --    0.44774   0.45426   0.46084   0.46875   0.47170
 Alpha virt. eigenvalues --    0.47741   0.48239   0.48282   0.49172   0.49560
 Alpha virt. eigenvalues --    0.50407   0.50808   0.51301   0.51891   0.52288
 Alpha virt. eigenvalues --    0.52601   0.52817   0.53276   0.53856   0.54383
 Alpha virt. eigenvalues --    0.54966   0.55033   0.55769   0.56472   0.56633
 Alpha virt. eigenvalues --    0.57421   0.58160   0.58336   0.58425   0.58952
 Alpha virt. eigenvalues --    0.59645   0.59837   0.60657   0.61348   0.62419
 Alpha virt. eigenvalues --    0.63489   0.63827   0.64710   0.66162   0.67014
 Alpha virt. eigenvalues --    0.67496   0.67924   0.68216   0.68958   0.69339
 Alpha virt. eigenvalues --    0.69830   0.70678   0.71980   0.72619   0.73060
 Alpha virt. eigenvalues --    0.73105   0.73714   0.74006   0.74393   0.75287
 Alpha virt. eigenvalues --    0.75468   0.76030   0.76507   0.76828   0.76910
 Alpha virt. eigenvalues --    0.77487   0.78246   0.78764   0.79149   0.79518
 Alpha virt. eigenvalues --    0.79807   0.80155   0.80798   0.81167   0.81365
 Alpha virt. eigenvalues --    0.81694   0.81995   0.82645   0.83021   0.83565
 Alpha virt. eigenvalues --    0.84155   0.84293   0.85206   0.85576   0.85916
 Alpha virt. eigenvalues --    0.86054   0.86489   0.86983   0.87908   0.88289
 Alpha virt. eigenvalues --    0.89382   0.90225   0.90391   0.90804   0.91411
 Alpha virt. eigenvalues --    0.92167   0.92755   0.93590   0.94166   0.94934
 Alpha virt. eigenvalues --    0.96213   0.96996   0.97935   0.98436   0.99009
 Alpha virt. eigenvalues --    0.99898   1.00847   1.02162   1.02688   1.04901
 Alpha virt. eigenvalues --    1.05914   1.07651   1.07882   1.08811   1.09012
 Alpha virt. eigenvalues --    1.10145   1.11548   1.12597   1.13119   1.14676
 Alpha virt. eigenvalues --    1.15704   1.16349   1.17450   1.18706   1.20320
 Alpha virt. eigenvalues --    1.21140   1.22902   1.23503   1.24060   1.25958
 Alpha virt. eigenvalues --    1.26231   1.26666   1.28563   1.28599   1.29377
 Alpha virt. eigenvalues --    1.30723   1.31152   1.32482   1.33366   1.33615
 Alpha virt. eigenvalues --    1.36241   1.37147   1.37997   1.38407   1.39361
 Alpha virt. eigenvalues --    1.39790   1.40698   1.41648   1.42386   1.43992
 Alpha virt. eigenvalues --    1.44617   1.44743   1.46090   1.48070   1.49198
 Alpha virt. eigenvalues --    1.51318   1.52176   1.52540   1.54421   1.55415
 Alpha virt. eigenvalues --    1.55960   1.56835   1.58332   1.59130   1.60094
 Alpha virt. eigenvalues --    1.61362   1.62322   1.63768   1.64486   1.65049
 Alpha virt. eigenvalues --    1.66300   1.67041   1.67105   1.68020   1.68338
 Alpha virt. eigenvalues --    1.68731   1.69562   1.70139   1.70484   1.71031
 Alpha virt. eigenvalues --    1.71845   1.72521   1.73176   1.73986   1.74916
 Alpha virt. eigenvalues --    1.75606   1.76579   1.76882   1.77678   1.78722
 Alpha virt. eigenvalues --    1.78928   1.80629   1.80802   1.81379   1.81993
 Alpha virt. eigenvalues --    1.82216   1.83452   1.83972   1.84448   1.85013
 Alpha virt. eigenvalues --    1.86424   1.86635   1.88443   1.88672   1.88904
 Alpha virt. eigenvalues --    1.89191   1.90145   1.90572   1.90928   1.91746
 Alpha virt. eigenvalues --    1.91886   1.93169   1.94630   1.95083   1.96270
 Alpha virt. eigenvalues --    1.96971   1.97473   1.98343   1.99528   2.00236
 Alpha virt. eigenvalues --    2.00990   2.01741   2.04016   2.05551   2.06085
 Alpha virt. eigenvalues --    2.07244   2.07729   2.08206   2.09916   2.11067
 Alpha virt. eigenvalues --    2.11637   2.13754   2.16232   2.17292   2.18206
 Alpha virt. eigenvalues --    2.19296   2.19811   2.20817   2.21030   2.22658
 Alpha virt. eigenvalues --    2.23367   2.24178   2.24914   2.25614   2.26333
 Alpha virt. eigenvalues --    2.27771   2.28742   2.29668   2.30260   2.30916
 Alpha virt. eigenvalues --    2.32476   2.33020   2.33577   2.33804   2.34665
 Alpha virt. eigenvalues --    2.35342   2.35913   2.36433   2.38581   2.39660
 Alpha virt. eigenvalues --    2.42280   2.43172   2.44620   2.46238   2.47326
 Alpha virt. eigenvalues --    2.48673   2.50166   2.51127   2.52360   2.52661
 Alpha virt. eigenvalues --    2.53414   2.53879   2.54932   2.55734   2.56522
 Alpha virt. eigenvalues --    2.58035   2.59099   2.60484   2.61491   2.62797
 Alpha virt. eigenvalues --    2.63530   2.66559   2.66876   2.67438   2.70881
 Alpha virt. eigenvalues --    2.72097   2.74870   2.76120   2.77485   2.80132
 Alpha virt. eigenvalues --    2.82240   2.82943   2.86793   2.87739   2.89234
 Alpha virt. eigenvalues --    2.90582   2.93038   2.94279   2.96768   2.97435
 Alpha virt. eigenvalues --    3.05088   3.05414   3.07909   3.34836   3.70212
 Alpha virt. eigenvalues --    3.72381   3.81388   3.87133   3.87727   3.90619
 Alpha virt. eigenvalues --    3.94375   4.02105   4.03309   4.03960   4.05916
 Alpha virt. eigenvalues --    4.08886   4.09424   4.13108   4.13723   4.15746
 Alpha virt. eigenvalues --    4.16994   4.21280   4.26087   4.28032   4.31291
 Alpha virt. eigenvalues --    4.32717   4.38385   4.40697   4.42621   4.44047
 Alpha virt. eigenvalues --    4.45879   4.54695   4.61668   4.63381   4.69415
          Condensed to atoms (all electrons):
 Mulliken charges:
               1
     1  N   -0.733874
     2  C   -0.077754
     3  C    0.649335
     4  O   -0.599794
     5  C   -0.269087
     6  C   -0.359622
     7  C    0.605559
     8  O   -0.522246
     9  O   -0.525567
    10  H    0.431078
    11  H    0.327653
    12  H    0.154819
    13  H    0.168373
    14  H    0.155579
    15  H    0.228367
    16  H    0.209654
    17  H    0.323752
    18  N   -0.597243
    19  C   -0.044909
    20  C    0.647128
    21  O   -0.520894
    22  C   -0.392633
    23  C    0.144396
    24  C   -0.191016
    25  C   -0.189842
    26  C   -0.160467
    27  C   -0.191433
    28  C    0.355695
    29  O   -0.631807
    30  H    0.329584
    31  H    0.177824
    32  H    0.176582
    33  H    0.158265
    34  H    0.161179
    35  H    0.127151
    36  H    0.155582
    37  H    0.132129
    38  H    0.414157
    39  N   -0.610120
    40  C    0.026126
    41  C    0.597493
    42  O   -0.419979
    43  C   -0.353102
    44  C   -0.296862
    45  C   -0.288216
    46  C   -0.183148
    47  N   -0.842730
    48  O   -0.621063
    49  H    0.427468
    50  H    0.356855
    51  H    0.211978
    52  H    0.198018
    53  H    0.141546
    54  H    0.190852
    55  H    0.162247
    56  H    0.191287
    57  H    0.171809
    58  H    0.200992
    59  H    0.205486
    60  H    0.433440
    61  H    0.423519
    62  H    0.450452
 Sum of Mulliken charges =   1.00000
 Mulliken charges with hydrogens summed into heavy atoms:
               1
     1  N   -0.082469
     2  C    0.077065
     3  C    0.649335
     4  O   -0.599794
     5  C    0.054865
     6  C    0.078399
     7  C    0.605559
     8  O   -0.522246
     9  O   -0.094489
    18  N   -0.267659
    19  C    0.132915
    20  C    0.647128
    21  O   -0.520894
    22  C   -0.057786
    23  C    0.144396
    24  C   -0.029837
    25  C   -0.062691
    26  C   -0.004885
    27  C   -0.059304
    28  C    0.355695
    29  O   -0.217650
    39  N   -0.253265
    40  C    0.238104
    41  C    0.597493
    42  O   -0.419979
    43  C   -0.013538
    44  C    0.056236
    45  C    0.074880
    46  C    0.223331
    47  N    0.464681
    48  O   -0.193595
 Electronic spatial extent (au):  <R**2>=       20305732.1853
 Charge=              1.0000 electrons
 Dipole moment (field-independent basis, Debye):
    X=            -24.7960    Y=           -417.7932    Z=            617.5241  Tot=            745.9907
 Quadrupole moment (field-independent basis, Debye-Ang):
   XX=             -8.0914   YY=          36187.0063   ZZ=          79235.9273
   XY=           2172.2066   XZ=          -3218.4114   YZ=         -53697.6134
 Traceless Quadrupole moment (field-independent basis, Debye-Ang):
   XX=         -38479.7055   YY=          -2284.6078   ZZ=          40764.3133
   XY=           2172.2066   XZ=          -3218.4114   YZ=         -53697.6134
 Octapole moment (field-independent basis, Debye-Ang**2):
  XXX=            216.7244  YYY=       -3120619.8248  ZZZ=       10146663.9115  XYY=        -189937.7777
  XXY=            747.3390  XXZ=           -960.0492  XZZ=        -417334.6536  YZZ=       -6887867.6012
  YYZ=        4649571.6741  XYZ=         281850.4437
 Hexadecapole moment (field-independent basis, Debye-Ang**3):
 XXXX=         -12017.0318 YYYY=      267874423.9735 ZZZZ=     1296695800.4778 XXXY=         -19003.6591
 XXXZ=          27605.9882 YYYX=       16576634.2590 YYYZ=     -400832312.3806 ZZZX=      -54064471.5801
 ZZZY=     -881734207.3474 XXYY=         -72208.2508 XXZZ=        -116480.1001 YYZZ=      596205215.3945
 XXYZ=          88898.7049 YYXZ=      -24637200.1940 ZZXY=       36535869.9857
 N-N= 3.348303098867D+03 E-N=-1.023016327689D+04  KE= 1.512252543862D+03
 Unable to Open any file for archive entry.
 1\1\GINC-VIM-000\SP\RB3LYP\6-31G(d)\C20H31N4O7(1+)\KENGMITH\24-May-202
 2\0\\# B3LYP/6-31G* empiricaldispersion=gd3 guess=read geom=check nosy
 mm integral(ultrafinegrid)\\Candidate Structure: Conf:102 Charge calc 
 in gas phase\\1,1\N,0,-4.7878623863,-90.335893992,127.0848025809\C,0,-
 4.9516355493,-88.9640912153,127.5363671315\C,0,-3.6936878334,-88.06507
 39503,127.6146008478\O,0,-3.8007945474,-86.854130972,127.8830168166\C,
 0,-6.039538982,-88.2624120401,126.6963546158\C,0,-7.4024718159,-88.947
 4843872,126.7897013533\C,0,-8.0877645217,-88.8014446366,128.1260314542
 \O,0,-7.6884983594,-88.1517706694,129.0889013037\O,0,-9.2356979683,-89
 .4773111481,128.1709229192\H,0,-9.6429513806,-89.3423661721,129.048640
 068\H,0,-4.2909543429,-90.9378269089,127.73328274\H,0,-5.3061915221,-8
 9.0196274869,128.5742716357\H,0,-5.7214824899,-88.2628263007,125.64644
 07702\H,0,-6.1097462268,-87.2133036875,126.9940761675\H,0,-7.307711472
 1,-90.0196458335,126.5849386731\H,0,-8.0927731781,-88.551889665,126.03
 43260492\H,0,-4.3867494542,-90.4137832961,126.1542050133\N,0,-2.511026
 6265,-88.674438461,127.41419568\C,0,-1.1967775266,-88.0588716201,127.6
 619574232\C,0,-1.0886437708,-87.8788891325,129.1926545637\O,0,-0.81570
 06713,-88.8053426681,129.9448066515\C,0,-0.0744332044,-88.9531979033,1
 27.1197131121\C,0,1.2747396881,-88.2750103492,127.2216212086\C,0,2.050
 1491017,-88.3784155419,128.387069322\C,0,1.7591099362,-87.4904588137,1
 26.1692952988\C,0,3.2703430595,-87.7214211409,128.498451911\C,0,2.9811
 286551,-86.8266044646,126.2665068132\C,0,3.7424347348,-86.9409766655,1
 27.4357450855\O,0,4.9452283138,-86.32337887,127.6039617316\H,0,-2.5247
 437,-89.6786219731,127.2923326004\H,0,-1.1791836929,-87.0900716769,127
 .1536452513\H,0,-0.0785319964,-89.8873468029,127.6941053446\H,0,-0.304
 2328561,-89.1959313263,126.0751676945\H,0,1.6872901905,-88.9776372192,
 129.2170745512\H,0,1.1816823417,-87.401218171,125.2512260168\H,0,3.876
 4589517,-87.8054249994,129.3945531989\H,0,3.3464617147,-86.228807828,1
 25.4339829363\H,0,5.1814850175,-85.8410127242,126.7962748284\N,0,-1.45
 12920787,-86.6403030043,129.6215940444\C,0,-1.8787930099,-86.375289214
 6,130.9909533194\C,0,-2.5132969765,-87.5951548924,131.6585358285\O,0,-
 2.2790914771,-87.9792680338,132.769849917\C,0,-2.8802604007,-85.191138
 033,130.9105332671\C,0,-3.9283818756,-85.0279957545,132.0330522524\C,0
 ,-5.2415472321,-84.4386760173,131.4728197851\C,0,-6.2382994653,-85.470
 8868809,130.9319842586\N,0,-5.6653186813,-86.4513844841,129.940025784\
 O,0,-3.5338692248,-88.15950585,130.9018298373\H,0,-3.8089148697,-88.95
 10627515,131.4047389954\H,0,-1.865729164,-86.0488385486,128.9131454329
 \H,0,-1.0255050052,-86.1294185932,131.6287024044\H,0,-2.3015875066,-84
 .2663133794,130.8137753733\H,0,-3.4017247786,-85.3056740761,129.956156
 0634\H,0,-3.5366428931,-84.3731716309,132.8164847382\H,0,-4.1411420506
 ,-85.9815324926,132.5327878457\H,0,-5.7801441781,-83.8981313664,132.25
 92629134\H,0,-5.0154754751,-83.6963785031,130.6965151705\H,0,-6.635592
 2832,-86.08546174,131.7450562775\H,0,-7.0811290594,-84.9810019978,130.
 4383236006\H,0,-4.9395445234,-87.0555965278,130.3650859408\H,0,-5.1964
 967347,-86.051087779,129.1129561598\H,0,-6.4120848864,-87.080422435,12
 9.5703812865\\Version=ES64L-G16RevC.01\HF=-1526.3092334\RMSD=7.647e-09
 \Dipole=-4.7552297,1.1391244,-0.5320628\Quadrupole=-28608.7179222,-169
 8.549875,30307.2677972,1614.9823397,-2392.8099798,-39922.8594344\PG=C0
 1 [X(C20H31N4O7)]\\@
 The archive entry for this job was punched.


 ON INDUCTION, OR "WHY DO YOU BELIEVE THE SUN WILL RISE TOMORROW?":

 ... THE FARMER WHO HAS FED THE CHICKEN EVERY DAY THROUGHOUT ITS
 LIFE AT LAST WRINGS ITS NECK INSTEAD, SHOWING THAT MORE REFINED VIEWS
 AS TO THE UNIFORMITY OF NATURE WOULD HAVE BEEN USEFUL TO THE CHICKEN.

                               -- BERTRAND RUSSELL
 Job cpu time:       0 days  0 hours  1 minutes 35.4 seconds.
 Elapsed time:       0 days  0 hours  0 minutes 24.4 seconds.
 File lengths (MBytes):  RWF=    264 Int=      0 D2E=      0 Chk=     40 Scr=     16
 Normal termination of Gaussian 16 at Tue May 24 19:13:22 2022.
