 Entering Gaussian System, Link 0=/opt/software/Gaussian/g16-AVX2-C.01/g16/g16
 Input=charge-conf-34.com
 Output=charge-conf-34.log
 Initial command:
 /opt/software/Gaussian/g16-AVX2-C.01/g16/l1.exe "/mnt/gs18/scratch/users/kengmith/Gau-56851.inp" -scrdir="/mnt/gs18/scratch/users/kengmith/"
 Entering Link 1 = /opt/software/Gaussian/g16-AVX2-C.01/g16/l1.exe PID=     56877.
  
 Copyright (c) 1988-2019, Gaussian, Inc.  All Rights Reserved.
  
 This is part of the Gaussian(R) 16 program.  It is based on
 the Gaussian(R) 09 system (copyright 2009, Gaussian, Inc.),
 the Gaussian(R) 03 system (copyright 2003, Gaussian, Inc.),
 the Gaussian(R) 98 system (copyright 1998, Gaussian, Inc.),
 the Gaussian(R) 94 system (copyright 1995, Gaussian, Inc.),
 the Gaussian 92(TM) system (copyright 1992, Gaussian, Inc.),
 the Gaussian 90(TM) system (copyright 1990, Gaussian, Inc.),
 the Gaussian 88(TM) system (copyright 1988, Gaussian, Inc.),
 the Gaussian 86(TM) system (copyright 1986, Carnegie Mellon
 University), and the Gaussian 82(TM) system (copyright 1983,
 Carnegie Mellon University). Gaussian is a federally registered
 trademark of Gaussian, Inc.
  
 This software contains proprietary and confidential information,
 including trade secrets, belonging to Gaussian, Inc.
  
 This software is provided under written license and may be
 used, copied, transmitted, or stored only in accord with that
 written license.
  
 The following legend is applicable only to US Government
 contracts under FAR:
  
                    RESTRICTED RIGHTS LEGEND
  
 Use, reproduction and disclosure by the US Government is
 subject to restrictions as set forth in subparagraphs (a)
 and (c) of the Commercial Computer Software - Restricted
 Rights clause in FAR 52.227-19.
  
 Gaussian, Inc.
 340 Quinnipiac St., Bldg. 40, Wallingford CT 06492
  
  
 ---------------------------------------------------------------
 Warning -- This program may not be used in any manner that
 competes with the business of Gaussian, Inc. or will provide
 assistance to any competitor of Gaussian, Inc.  The licensee
 of this program is prohibited from giving any competitor of
 Gaussian, Inc. access to this program.  By using this program,
 the user acknowledges that Gaussian, Inc. is engaged in the
 business of creating and licensing software in the field of
 computational chemistry and represents and warrants to the
 licensee that it is not a competitor of Gaussian, Inc. and that
 it will not use this program in any manner prohibited above.
 ---------------------------------------------------------------
  

 Cite this work as:
 Gaussian 16, Revision C.01,
 M. J. Frisch, G. W. Trucks, H. B. Schlegel, G. E. Scuseria, 
 M. A. Robb, J. R. Cheeseman, G. Scalmani, V. Barone, 
 G. A. Petersson, H. Nakatsuji, X. Li, M. Caricato, A. V. Marenich, 
 J. Bloino, B. G. Janesko, R. Gomperts, B. Mennucci, H. P. Hratchian, 
 J. V. Ortiz, A. F. Izmaylov, J. L. Sonnenberg, D. Williams-Young, 
 F. Ding, F. Lipparini, F. Egidi, J. Goings, B. Peng, A. Petrone, 
 T. Henderson, D. Ranasinghe, V. G. Zakrzewski, J. Gao, N. Rega, 
 G. Zheng, W. Liang, M. Hada, M. Ehara, K. Toyota, R. Fukuda, 
 J. Hasegawa, M. Ishida, T. Nakajima, Y. Honda, O. Kitao, H. Nakai, 
 T. Vreven, K. Throssell, J. A. Montgomery, Jr., J. E. Peralta, 
 F. Ogliaro, M. J. Bearpark, J. J. Heyd, E. N. Brothers, K. N. Kudin, 
 V. N. Staroverov, T. A. Keith, R. Kobayashi, J. Normand, 
 K. Raghavachari, A. P. Rendell, J. C. Burant, S. S. Iyengar, 
 J. Tomasi, M. Cossi, J. M. Millam, M. Klene, C. Adamo, R. Cammi, 
 J. W. Ochterski, R. L. Martin, K. Morokuma, O. Farkas, 
 J. B. Foresman, and D. J. Fox, Gaussian, Inc., Wallingford CT, 2019.
 
 ******************************************
 Gaussian 16:  ES64L-G16RevC.01  3-Jul-2019
                24-May-2022 
 ******************************************
 %mem=8gb
 %nproc=4
 Will use up to    4 processors via shared memory.
 %chk=conf-34.chk
 ----------------------------------------------------------------------
 # B3LYP/6-31G* empiricaldispersion=gd3 guess=read geom=check nosymm in
 tegral(ultrafinegrid)
 ----------------------------------------------------------------------
 1/29=2,38=1,172=1/1;
 2/12=2,15=1,40=1/2;
 3/5=1,6=6,7=1,11=2,14=-4,25=1,30=1,74=-5,75=-5,116=-2,124=31/1,2,3;
 4/5=1/1;
 5/5=2,38=6/2;
 6/7=2,8=2,9=2,10=2,28=1/1;
 99/5=1,9=1/99;
 -----------------------------------------------------
 Candidate Structure: Conf:34 Charge calc in gas phase
 -----------------------------------------------------
 Structure from the checkpoint file:  "conf-34.chk"
 Charge =  1 Multiplicity = 1
 Redundant internal coordinates found in file.  (old form).
 N,0,-0.7877304071,-92.0230228973,127.0912819914
 C,0,-2.1392712974,-91.5313936907,126.7902163992
 C,0,-2.30051611,-90.0766846107,127.2649366941
 O,0,-3.3337100591,-89.4246311623,127.066848657
 C,0,-2.5745528031,-91.6125383989,125.3116740848
 C,0,-2.6201879671,-93.0334894657,124.7389189896
 C,0,-1.2668621896,-93.5599002227,124.2655548073
 O,0,-0.2291162805,-92.9408869698,124.3145066461
 O,0,-1.2751645135,-94.8099093116,123.7476449289
 H,0,-2.1745844267,-95.1786365053,123.7469965094
 H,0,-0.2250189734,-92.0479792063,126.2424487907
 H,0,-2.8606895962,-92.103266938,127.3902806933
 H,0,-1.8908312625,-91.0094611686,124.7028862842
 H,0,-3.5633760767,-91.1524125407,125.2356450836
 H,0,-3.2958278383,-93.061485524,123.8725390487
 H,0,-3.0372945153,-93.7430834629,125.4688129467
 H,0,-0.8129918129,-92.9722456624,127.4508602751
 N,0,-1.2330777037,-89.5637311241,127.9173204919
 C,0,-1.3049078374,-88.2058383031,128.3994697669
 C,0,-2.3333521608,-88.0801782033,129.5466341394
 O,0,-2.1406250493,-88.559144186,130.6471839675
 C,0,0.0427854501,-87.6573637566,128.9104527362
 C,0,-0.1726277764,-86.2518507131,129.4374086935
 C,0,-0.2792629899,-86.0048987759,130.8128544893
 C,0,-0.4372346523,-85.1928594537,128.5578084771
 C,0,-0.679798686,-84.7612406159,131.2984172795
 C,0,-0.8459223531,-83.9423206519,129.0274018838
 C,0,-0.9937203418,-83.7339180425,130.4041123303
 O,0,-1.4729956629,-82.5627852698,130.9317204227
 H,0,-0.4637375956,-90.203731133,128.1008989045
 H,0,-1.6395995088,-87.5778688222,127.5659235009
 H,0,0.4133425948,-88.3113969252,129.7061463714
 H,0,0.7649903027,-87.6769487074,128.0863443911
 H,0,-0.0842961851,-86.8111418372,131.5134044794
 H,0,-0.3400812471,-85.3467596622,127.4854230189
 H,0,-0.7601924199,-84.5737376496,132.3646855106
 H,0,-1.0612816943,-83.1386774934,128.3262283015
 H,0,-1.4956506521,-81.8854760484,130.2371045755
 N,0,-3.4094397398,-87.2704830958,129.1918904259
 C,0,-4.4549814341,-86.7799461426,130.0856404407
 C,0,-4.8806076318,-85.4035974312,129.5704653045
 O,0,-5.9944877772,-84.9399644073,129.7918375894
 C,0,-3.9687009159,-86.6236568276,131.5635770856
 C,0,-4.8242751754,-85.6799059193,132.4345318579
 C,0,-4.3410628434,-84.2114696364,132.3553218882
 C,0,-5.3838859397,-83.1496328011,132.6895425296
 N,0,-6.5761059551,-83.2259142873,131.735510456
 O,0,-3.9517041423,-84.6762337343,128.965202602
 H,0,-3.1309465077,-85.2187838421,128.8805396329
 H,0,-3.7129798537,-87.4868634691,128.2413191404
 H,0,-5.3503752479,-87.4123734913,130.0698563374
 H,0,-3.9367865897,-87.6238452612,131.9933957012
 H,0,-2.9363205519,-86.265050861,131.5515067561
 H,0,-4.7664047258,-86.0139231957,133.4757114029
 H,0,-5.8772470302,-85.7764078015,132.1429504706
 H,0,-3.5104634198,-84.0633402034,133.054430695
 H,0,-3.9161400758,-83.9750487819,131.37489033
 H,0,-5.7876286096,-83.2488688099,133.7003215452
 H,0,-4.9643524411,-82.1477160217,132.576460155
 H,0,-7.0515800516,-82.3242000799,131.6397991992
 H,0,-7.2687161353,-83.906123511,132.0619484708
 H,0,-6.2896263471,-83.5872560451,130.7877902514
 Recover connectivity data from disk.
                           ----------------------------
                           !    Current Parameters    !
                           ! (Angstroms and Degrees)  !
 --------------------------                            --------------------------
 ! Name  Definition              Value                                          !
 --------------------------------------------------------------------------------
 ! R1    R(1,2)                  1.4694                                         !
 ! R2    R(1,11)                 1.0187                                         !
 ! R3    R(1,17)                 1.0154                                         !
 ! R4    R(2,3)                  1.5387                                         !
 ! R5    R(2,5)                  1.5434                                         !
 ! R6    R(2,12)                 1.0989                                         !
 ! R7    R(3,4)                  1.2377                                         !
 ! R8    R(3,18)                 1.3521                                         !
 ! R9    R(5,6)                  1.5327                                         !
 ! R10   R(5,13)                 1.0963                                         !
 ! R11   R(5,14)                 1.0933                                         !
 ! R12   R(6,7)                  1.5273                                         !
 ! R13   R(6,15)                 1.099                                          !
 ! R14   R(6,16)                 1.1001                                         !
 ! R15   R(7,8)                  1.2093                                         !
 ! R16   R(7,9)                  1.3531                                         !
 ! R17   R(9,10)                 0.9721                                         !
 ! R18   R(18,19)                1.4427                                         !
 ! R19   R(18,30)                1.0174                                         !
 ! R20   R(19,20)                1.5458                                         !
 ! R21   R(19,22)                1.5421                                         !
 ! R22   R(19,31)                1.096                                          !
 ! R23   R(20,21)                1.2156                                         !
 ! R24   R(20,39)                1.3926                                         !
 ! R25   R(22,23)                1.5164                                         !
 ! R26   R(22,32)                1.0946                                         !
 ! R27   R(22,33)                1.096                                          !
 ! R28   R(23,24)                1.4015                                         !
 ! R29   R(23,25)                1.4018                                         !
 ! R30   R(24,26)                1.3939                                         !
 ! R31   R(24,34)                1.0857                                         !
 ! R32   R(25,27)                1.3969                                         !
 ! R33   R(25,35)                1.0877                                         !
 ! R34   R(26,28)                1.3978                                         !
 ! R35   R(26,36)                1.0856                                         !
 ! R36   R(27,28)                1.4002                                         !
 ! R37   R(27,37)                1.0881                                         !
 ! R38   R(28,29)                1.371                                          !
 ! R39   R(29,38)                0.9704                                         !
 ! R40   R(39,40)                1.4603                                         !
 ! R41   R(39,50)                1.021                                          !
 ! R42   R(40,41)                1.53                                           !
 ! R43   R(40,43)                1.5637                                         !
 ! R44   R(40,51)                1.0963                                         !
 ! R45   R(41,42)                1.2267                                         !
 ! R46   R(41,48)                1.326                                          !
 ! R47   R(43,44)                1.5431                                         !
 ! R48   R(43,52)                1.0891                                         !
 ! R49   R(43,53)                1.093                                          !
 ! R50   R(44,45)                1.5479                                         !
 ! R51   R(44,54)                1.095                                          !
 ! R52   R(44,55)                1.0969                                         !
 ! R53   R(45,46)                1.5253                                         !
 ! R54   R(45,56)                1.0957                                         !
 ! R55   R(45,57)                1.0944                                         !
 ! R56   R(46,47)                1.5289                                         !
 ! R57   R(46,58)                1.0929                                         !
 ! R58   R(46,59)                1.0921                                         !
 ! R59   R(47,60)                1.0239                                         !
 ! R60   R(47,61)                1.0242                                         !
 ! R61   R(47,62)                1.054                                          !
 ! R62   R(48,49)                0.9875                                         !
 ! A1    A(2,1,11)             110.2155                                         !
 ! A2    A(2,1,17)             111.2521                                         !
 ! A3    A(11,1,17)            106.614                                          !
 ! A4    A(1,2,3)              110.457                                          !
 ! A5    A(1,2,5)              115.983                                          !
 ! A6    A(1,2,12)             108.5329                                         !
 ! A7    A(3,2,5)              108.4035                                         !
 ! A8    A(3,2,12)             104.7581                                         !
 ! A9    A(5,2,12)             108.0955                                         !
 ! A10   A(2,3,4)              122.4238                                         !
 ! A11   A(2,3,18)             115.1383                                         !
 ! A12   A(4,3,18)             122.4377                                         !
 ! A13   A(2,5,6)              114.5266                                         !
 ! A14   A(2,5,13)             109.0971                                         !
 ! A15   A(2,5,14)             107.4318                                         !
 ! A16   A(6,5,13)             108.7267                                         !
 ! A17   A(6,5,14)             109.71                                           !
 ! A18   A(13,5,14)            107.0943                                         !
 ! A19   A(5,6,7)              114.14                                           !
 ! A20   A(5,6,15)             109.6636                                         !
 ! A21   A(5,6,16)             111.1827                                         !
 ! A22   A(7,6,15)             106.9551                                         !
 ! A23   A(7,6,16)             108.6191                                         !
 ! A24   A(15,6,16)            105.8729                                         !
 ! A25   A(6,7,8)              124.8475                                         !
 ! A26   A(6,7,9)              115.5695                                         !
 ! A27   A(8,7,9)              119.5795                                         !
 ! A28   A(7,9,10)             110.8768                                         !
 ! A29   A(3,18,19)            118.6206                                         !
 ! A30   A(3,18,30)            116.4476                                         !
 ! A31   A(19,18,30)           124.7073                                         !
 ! A32   A(18,19,20)           110.9556                                         !
 ! A33   A(18,19,22)           113.701                                          !
 ! A34   A(18,19,31)           107.4766                                         !
 ! A35   A(20,19,22)           107.8555                                         !
 ! A36   A(20,19,31)           108.3407                                         !
 ! A37   A(22,19,31)           108.3668                                         !
 ! A38   A(19,20,21)           122.3002                                         !
 ! A39   A(19,20,39)           111.8586                                         !
 ! A40   A(21,20,39)           125.6054                                         !
 ! A41   A(19,22,23)           108.7019                                         !
 ! A42   A(19,22,32)           108.9168                                         !
 ! A43   A(19,22,33)           108.6853                                         !
 ! A44   A(23,22,32)           110.4434                                         !
 ! A45   A(23,22,33)           111.8066                                         !
 ! A46   A(32,22,33)           108.2309                                         !
 ! A47   A(22,23,24)           121.0084                                         !
 ! A48   A(22,23,25)           120.5936                                         !
 ! A49   A(24,23,25)           117.9254                                         !
 ! A50   A(23,24,26)           121.3965                                         !
 ! A51   A(23,24,34)           119.257                                          !
 ! A52   A(26,24,34)           119.3001                                         !
 ! A53   A(23,25,27)           121.3698                                         !
 ! A54   A(23,25,35)           119.6611                                         !
 ! A55   A(27,25,35)           118.9612                                         !
 ! A56   A(24,26,28)           119.8299                                         !
 ! A57   A(24,26,36)           121.1668                                         !
 ! A58   A(28,26,36)           119.002                                          !
 ! A59   A(25,27,28)           119.646                                          !
 ! A60   A(25,27,37)           120.1643                                         !
 ! A61   A(28,27,37)           120.1845                                         !
 ! A62   A(26,28,27)           119.7341                                         !
 ! A63   A(26,28,29)           117.3951                                         !
 ! A64   A(27,28,29)           122.8481                                         !
 ! A65   A(28,29,38)           109.2021                                         !
 ! A66   A(20,39,40)           126.3437                                         !
 ! A67   A(20,39,50)           110.0991                                         !
 ! A68   A(40,39,50)           115.348                                          !
 ! A69   A(39,40,41)           107.1737                                         !
 ! A70   A(39,40,43)           112.9154                                         !
 ! A71   A(39,40,51)           112.4673                                         !
 ! A72   A(41,40,43)           108.3515                                         !
 ! A73   A(41,40,51)           106.6712                                         !
 ! A74   A(43,40,51)           108.9804                                         !
 ! A75   A(40,41,42)           122.1306                                         !
 ! A76   A(40,41,48)           116.8895                                         !
 ! A77   A(42,41,48)           120.742                                          !
 ! A78   A(40,43,44)           114.9708                                         !
 ! A79   A(40,43,52)           106.8778                                         !
 ! A80   A(40,43,53)           108.4271                                         !
 ! A81   A(44,43,52)           110.803                                          !
 ! A82   A(44,43,53)           109.2252                                         !
 ! A83   A(52,43,53)           106.1409                                         !
 ! A84   A(43,44,45)           112.2233                                         !
 ! A85   A(43,44,54)           108.7123                                         !
 ! A86   A(43,44,55)           109.1726                                         !
 ! A87   A(45,44,54)           108.7561                                         !
 ! A88   A(45,44,55)           111.6872                                         !
 ! A89   A(54,44,55)           106.0617                                         !
 ! A90   A(44,45,46)           115.8331                                         !
 ! A91   A(44,45,56)           109.4045                                         !
 ! A92   A(44,45,57)           111.838                                          !
 ! A93   A(46,45,56)           106.5191                                         !
 ! A94   A(46,45,57)           108.1411                                         !
 ! A95   A(56,45,57)           104.3631                                         !
 ! A96   A(45,46,47)           111.2027                                         !
 ! A97   A(45,46,58)           113.0779                                         !
 ! A98   A(45,46,59)           110.6912                                         !
 ! A99   A(47,46,58)           106.5293                                         !
 ! A100  A(47,46,59)           106.304                                          !
 ! A101  A(58,46,59)           108.722                                          !
 ! A102  A(46,47,60)           112.1187                                         !
 ! A103  A(46,47,61)           111.1983                                         !
 ! A104  A(46,47,62)           111.4854                                         !
 ! A105  A(60,47,61)           107.497                                          !
 ! A106  A(60,47,62)           110.1274                                         !
 ! A107  A(61,47,62)           104.0472                                         !
 ! A108  A(41,48,49)           108.6629                                         !
 ! D1    D(11,1,2,3)          -104.3122                                         !
 ! D2    D(11,1,2,5)            19.512                                          !
 ! D3    D(11,1,2,12)          141.3693                                         !
 ! D4    D(17,1,2,3)           137.6445                                         !
 ! D5    D(17,1,2,5)           -98.5312                                         !
 ! D6    D(17,1,2,12)           23.3261                                         !
 ! D7    D(1,2,3,4)            176.6288                                         !
 ! D8    D(1,2,3,18)            -3.5444                                         !
 ! D9    D(5,2,3,4)             48.5378                                         !
 ! D10   D(5,2,3,18)          -131.6354                                         !
 ! D11   D(12,2,3,4)           -66.6862                                         !
 ! D12   D(12,2,3,18)          113.1405                                         !
 ! D13   D(1,2,5,6)             61.6694                                         !
 ! D14   D(1,2,5,13)           -60.4325                                         !
 ! D15   D(1,2,5,14)          -176.2019                                         !
 ! D16   D(3,2,5,6)           -173.4465                                         !
 ! D17   D(3,2,5,13)            64.4516                                         !
 ! D18   D(3,2,5,14)           -51.3178                                         !
 ! D19   D(12,2,5,6)           -60.4199                                         !
 ! D20   D(12,2,5,13)          177.4782                                         !
 ! D21   D(12,2,5,14)           61.7089                                         !
 ! D22   D(2,3,18,19)         -179.8004                                         !
 ! D23   D(2,3,18,30)           -4.9854                                         !
 ! D24   D(4,3,18,19)            0.0263                                         !
 ! D25   D(4,3,18,30)          174.8413                                         !
 ! D26   D(2,5,6,7)            -82.7592                                         !
 ! D27   D(2,5,6,15)           157.2737                                         !
 ! D28   D(2,5,6,16)            40.5322                                         !
 ! D29   D(13,5,6,7)            39.5442                                         !
 ! D30   D(13,5,6,15)          -80.4229                                         !
 ! D31   D(13,5,6,16)          162.8356                                         !
 ! D32   D(14,5,6,7)           156.3611                                         !
 ! D33   D(14,5,6,15)           36.394                                          !
 ! D34   D(14,5,6,16)          -80.3475                                         !
 ! D35   D(5,6,7,8)             -0.3443                                         !
 ! D36   D(5,6,7,9)           -179.6582                                         !
 ! D37   D(15,6,7,8)           121.1311                                         !
 ! D38   D(15,6,7,9)           -58.1827                                         !
 ! D39   D(16,6,7,8)          -125.0128                                         !
 ! D40   D(16,6,7,9)            55.6733                                         !
 ! D41   D(6,7,9,10)             0.9541                                         !
 ! D42   D(8,7,9,10)          -178.3984                                         !
 ! D43   D(3,18,19,20)          67.9572                                         !
 ! D44   D(3,18,19,22)        -170.26                                           !
 ! D45   D(3,18,19,31)         -50.3266                                         !
 ! D46   D(30,18,19,20)       -106.3942                                         !
 ! D47   D(30,18,19,22)         15.3886                                         !
 ! D48   D(30,18,19,31)        135.322                                          !
 ! D49   D(18,19,20,21)         70.2077                                         !
 ! D50   D(18,19,20,39)       -115.0815                                         !
 ! D51   D(22,19,20,21)        -54.9329                                         !
 ! D52   D(22,19,20,39)        119.7779                                         !
 ! D53   D(31,19,20,21)       -172.0332                                         !
 ! D54   D(31,19,20,39)          2.6776                                         !
 ! D55   D(18,19,22,23)       -177.7922                                         !
 ! D56   D(18,19,22,32)        -57.4066                                         !
 ! D57   D(18,19,22,33)         60.3044                                         !
 ! D58   D(20,19,22,23)        -54.3039                                         !
 ! D59   D(20,19,22,32)         66.0818                                         !
 ! D60   D(20,19,22,33)       -176.2073                                         !
 ! D61   D(31,19,22,23)         62.7795                                         !
 ! D62   D(31,19,22,32)       -176.8349                                         !
 ! D63   D(31,19,22,33)        -59.1239                                         !
 ! D64   D(19,20,39,40)       -170.4441                                         !
 ! D65   D(19,20,39,50)         42.9186                                         !
 ! D66   D(21,20,39,40)          4.0566                                         !
 ! D67   D(21,20,39,50)       -142.5807                                         !
 ! D68   D(19,22,23,24)        101.0914                                         !
 ! D69   D(19,22,23,25)        -70.8567                                         !
 ! D70   D(32,22,23,24)        -18.3451                                         !
 ! D71   D(32,22,23,25)        169.7068                                         !
 ! D72   D(33,22,23,24)       -138.9258                                         !
 ! D73   D(33,22,23,25)         49.1261                                         !
 ! D74   D(22,23,24,26)       -169.9917                                         !
 ! D75   D(22,23,24,34)          7.516                                          !
 ! D76   D(25,23,24,26)          2.1652                                         !
 ! D77   D(25,23,24,34)        179.6729                                         !
 ! D78   D(22,23,25,27)        169.7193                                         !
 ! D79   D(22,23,25,35)         -9.246                                          !
 ! D80   D(24,23,25,27)         -2.4716                                         !
 ! D81   D(24,23,25,35)        178.5631                                         !
 ! D82   D(23,24,26,28)          0.4736                                         !
 ! D83   D(23,24,26,36)       -179.9391                                         !
 ! D84   D(34,24,26,28)       -177.033                                          !
 ! D85   D(34,24,26,36)          2.5543                                         !
 ! D86   D(23,25,27,28)          0.1414                                         !
 ! D87   D(23,25,27,37)       -179.0281                                         !
 ! D88   D(35,25,27,28)        179.1137                                         !
 ! D89   D(35,25,27,37)         -0.0557                                         !
 ! D90   D(24,26,28,27)         -2.8642                                         !
 ! D91   D(24,26,28,29)        175.4558                                         !
 ! D92   D(36,26,28,27)        177.5395                                         !
 ! D93   D(36,26,28,29)         -4.1405                                         !
 ! D94   D(25,27,28,26)          2.5596                                         !
 ! D95   D(25,27,28,29)       -175.6649                                         !
 ! D96   D(37,27,28,26)       -178.2711                                         !
 ! D97   D(37,27,28,29)          3.5044                                         !
 ! D98   D(26,28,29,38)        169.6609                                         !
 ! D99   D(27,28,29,38)        -12.0755                                         !
 ! D100  D(20,39,40,41)        147.462                                          !
 ! D101  D(20,39,40,43)         28.2253                                         !
 ! D102  D(20,39,40,51)        -95.6188                                         !
 ! D103  D(50,39,40,41)        -67.3904                                         !
 ! D104  D(50,39,40,43)        173.3729                                         !
 ! D105  D(50,39,40,51)         49.5288                                         !
 ! D106  D(39,40,41,42)        154.54                                           !
 ! D107  D(39,40,41,48)        -31.027                                          !
 ! D108  D(43,40,41,42)        -83.3264                                         !
 ! D109  D(43,40,41,48)         91.1066                                         !
 ! D110  D(51,40,41,42)         33.8702                                         !
 ! D111  D(51,40,41,48)       -151.6968                                         !
 ! D112  D(39,40,43,44)        159.7651                                         !
 ! D113  D(39,40,43,52)        -76.8196                                         !
 ! D114  D(39,40,43,53)         37.2158                                         !
 ! D115  D(41,40,43,44)         41.2121                                         !
 ! D116  D(41,40,43,52)        164.6273                                         !
 ! D117  D(41,40,43,53)        -81.3373                                         !
 ! D118  D(51,40,43,44)        -74.4918                                         !
 ! D119  D(51,40,43,52)         48.9235                                         !
 ! D120  D(51,40,43,53)        162.9589                                         !
 ! D121  D(40,41,48,49)          5.3444                                         !
 ! D122  D(42,41,48,49)        179.8595                                         !
 ! D123  D(40,43,44,45)        -88.898                                          !
 ! D124  D(40,43,44,54)        150.7629                                         !
 ! D125  D(40,43,44,55)         35.483                                          !
 ! D126  D(52,43,44,45)        149.8012                                         !
 ! D127  D(52,43,44,54)         29.4621                                         !
 ! D128  D(52,43,44,55)        -85.8178                                         !
 ! D129  D(53,43,44,45)         33.2215                                         !
 ! D130  D(53,43,44,54)        -87.1176                                         !
 ! D131  D(53,43,44,55)        157.6025                                         !
 ! D132  D(43,44,45,46)        156.4228                                         !
 ! D133  D(43,44,45,56)        -83.2152                                         !
 ! D134  D(43,44,45,57)         31.9036                                         !
 ! D135  D(54,44,45,46)        -83.2635                                         !
 ! D136  D(54,44,45,56)         37.0985                                         !
 ! D137  D(54,44,45,57)        152.2173                                         !
 ! D138  D(55,44,45,46)         33.4476                                         !
 ! D139  D(55,44,45,56)        153.8096                                         !
 ! D140  D(55,44,45,57)        -91.0716                                         !
 ! D141  D(44,45,46,47)        -60.2472                                         !
 ! D142  D(44,45,46,58)         59.5544                                         !
 ! D143  D(44,45,46,59)       -178.1775                                         !
 ! D144  D(56,45,46,47)        177.8422                                         !
 ! D145  D(56,45,46,58)        -62.3562                                         !
 ! D146  D(56,45,46,59)         59.9119                                         !
 ! D147  D(57,45,46,47)         66.1604                                         !
 ! D148  D(57,45,46,58)       -174.038                                          !
 ! D149  D(57,45,46,59)        -51.7699                                         !
 ! D150  D(45,46,47,60)       -153.6407                                         !
 ! D151  D(45,46,47,61)         85.9797                                         !
 ! D152  D(45,46,47,62)        -29.6427                                         !
 ! D153  D(58,46,47,60)         82.7385                                         !
 ! D154  D(58,46,47,61)        -37.6411                                         !
 ! D155  D(58,46,47,62)       -153.2635                                         !
 ! D156  D(59,46,47,60)        -33.0878                                         !
 ! D157  D(59,46,47,61)       -153.4675                                         !
 ! D158  D(59,46,47,62)         90.9101                                         !
 --------------------------------------------------------------------------------
 Symmetry turned off by external request.
 Stoichiometry    C20H31N4O7(1+)
 Framework group  C1[X(C20H31N4O7)]
 Deg. of freedom   180
 Full point group                 C1      NOp   1
                          Input orientation:                          
 ---------------------------------------------------------------------
 Center     Atomic      Atomic             Coordinates (Angstroms)
 Number     Number       Type             X           Y           Z
 ---------------------------------------------------------------------
      1          7           0       -0.787730  -92.023023  127.091282
      2          6           0       -2.139271  -91.531394  126.790216
      3          6           0       -2.300516  -90.076685  127.264937
      4          8           0       -3.333710  -89.424631  127.066849
      5          6           0       -2.574553  -91.612538  125.311674
      6          6           0       -2.620188  -93.033489  124.738919
      7          6           0       -1.266862  -93.559900  124.265555
      8          8           0       -0.229116  -92.940887  124.314507
      9          8           0       -1.275165  -94.809909  123.747645
     10          1           0       -2.174584  -95.178637  123.746997
     11          1           0       -0.225019  -92.047979  126.242449
     12          1           0       -2.860690  -92.103267  127.390281
     13          1           0       -1.890831  -91.009461  124.702886
     14          1           0       -3.563376  -91.152413  125.235645
     15          1           0       -3.295828  -93.061486  123.872539
     16          1           0       -3.037295  -93.743083  125.468813
     17          1           0       -0.812992  -92.972246  127.450860
     18          7           0       -1.233078  -89.563731  127.917320
     19          6           0       -1.304908  -88.205838  128.399470
     20          6           0       -2.333352  -88.080178  129.546634
     21          8           0       -2.140625  -88.559144  130.647184
     22          6           0        0.042785  -87.657364  128.910453
     23          6           0       -0.172628  -86.251851  129.437409
     24          6           0       -0.279263  -86.004899  130.812854
     25          6           0       -0.437235  -85.192859  128.557808
     26          6           0       -0.679799  -84.761241  131.298417
     27          6           0       -0.845922  -83.942321  129.027402
     28          6           0       -0.993720  -83.733918  130.404112
     29          8           0       -1.472996  -82.562785  130.931720
     30          1           0       -0.463738  -90.203731  128.100899
     31          1           0       -1.639600  -87.577869  127.565924
     32          1           0        0.413343  -88.311397  129.706146
     33          1           0        0.764990  -87.676949  128.086344
     34          1           0       -0.084296  -86.811142  131.513404
     35          1           0       -0.340081  -85.346760  127.485423
     36          1           0       -0.760192  -84.573738  132.364686
     37          1           0       -1.061282  -83.138677  128.326228
     38          1           0       -1.495651  -81.885476  130.237105
     39          7           0       -3.409440  -87.270483  129.191890
     40          6           0       -4.454981  -86.779946  130.085640
     41          6           0       -4.880608  -85.403597  129.570465
     42          8           0       -5.994488  -84.939964  129.791838
     43          6           0       -3.968701  -86.623657  131.563577
     44          6           0       -4.824275  -85.679906  132.434532
     45          6           0       -4.341063  -84.211470  132.355322
     46          6           0       -5.383886  -83.149633  132.689543
     47          7           0       -6.576106  -83.225914  131.735510
     48          8           0       -3.951704  -84.676234  128.965203
     49          1           0       -3.130947  -85.218784  128.880540
     50          1           0       -3.712980  -87.486863  128.241319
     51          1           0       -5.350375  -87.412373  130.069856
     52          1           0       -3.936787  -87.623845  131.993396
     53          1           0       -2.936321  -86.265051  131.551507
     54          1           0       -4.766405  -86.013923  133.475711
     55          1           0       -5.877247  -85.776408  132.142950
     56          1           0       -3.510463  -84.063340  133.054431
     57          1           0       -3.916140  -83.975049  131.374890
     58          1           0       -5.787629  -83.248869  133.700322
     59          1           0       -4.964352  -82.147716  132.576460
     60          1           0       -7.051580  -82.324200  131.639799
     61          1           0       -7.268716  -83.906124  132.061948
     62          1           0       -6.289626  -83.587256  130.787790
 ---------------------------------------------------------------------
 Rotational constants (GHZ):           0.2971072           0.0598014           0.0543538
 Standard basis: 6-31G(d) (6D, 7F)
   527 basis functions,   992 primitive gaussians,   527 cartesian basis functions
   117 alpha electrons      117 beta electrons
       nuclear repulsion energy      3289.2672490182 Hartrees.
 NAtoms=   62 NActive=   62 NUniq=   62 SFac= 1.00D+00 NAtFMM=   60 NAOKFM=T Big=T
 Integral buffers will be    131072 words long.
 Raffenetti 2 integral format.
 Two-electron integral symmetry is turned off.
 Nuclear repulsion after empirical dispersion term =     3289.1828633177 Hartrees.
 One-electron integrals computed using PRISM.
 NBasis=   527 RedAO= T EigKep=  4.31D-04  NBF=   527
 NBsUse=   527 1.00D-06 EigRej= -1.00D+00 NBFU=   527
 Initial guess from the checkpoint file:  "conf-34.chk"
 B after Tr=     0.000000    0.000000    0.000000
         Rot=    1.000000    0.000000    0.000000    0.000000 Ang=   0.00 deg.
 Requested convergence on RMS density matrix=1.00D-08 within 128 cycles.
 Requested convergence on MAX density matrix=1.00D-06.
 Requested convergence on             energy=1.00D-06.
 No special actions if energy rises.
 SCF Done:  E(RB3LYP) =  -1526.28243863     A.U. after    1 cycles
            NFock=  1  Conv=0.71D-08     -V/T= 2.0093

 **********************************************************************

            Population analysis using the SCF Density.

 **********************************************************************

 Alpha  occ. eigenvalues --  -19.31959 -19.27775 -19.27182 -19.26389 -19.22009
 Alpha  occ. eigenvalues --  -19.20606 -19.19285 -14.59708 -14.46315 -14.43387
 Alpha  occ. eigenvalues --  -14.39104 -10.45010 -10.39387 -10.39129 -10.38641
 Alpha  occ. eigenvalues --  -10.35792 -10.35718 -10.34703 -10.32474 -10.32164
 Alpha  occ. eigenvalues --  -10.31264 -10.30223 -10.30124 -10.28872 -10.28792
 Alpha  occ. eigenvalues --  -10.28619 -10.28408 -10.28302 -10.28292 -10.28123
 Alpha  occ. eigenvalues --  -10.26355  -1.23359  -1.16950  -1.15606  -1.15196
 Alpha  occ. eigenvalues --   -1.13901  -1.13809  -1.10905  -1.08782  -1.03050
 Alpha  occ. eigenvalues --   -1.00506  -0.96286  -0.94996  -0.93816  -0.89563
 Alpha  occ. eigenvalues --   -0.87787  -0.86343  -0.84401  -0.84266  -0.81699
 Alpha  occ. eigenvalues --   -0.78467  -0.77489  -0.74913  -0.74054  -0.73383
 Alpha  occ. eigenvalues --   -0.72578  -0.71704  -0.71097  -0.70659  -0.68950
 Alpha  occ. eigenvalues --   -0.67738  -0.66079  -0.64854  -0.64591  -0.63903
 Alpha  occ. eigenvalues --   -0.63470  -0.62759  -0.60472  -0.59883  -0.59649
 Alpha  occ. eigenvalues --   -0.58829  -0.58248  -0.57676  -0.56890  -0.56289
 Alpha  occ. eigenvalues --   -0.56094  -0.55754  -0.54997  -0.54778  -0.54274
 Alpha  occ. eigenvalues --   -0.53203  -0.52174  -0.51692  -0.51598  -0.51218
 Alpha  occ. eigenvalues --   -0.50654  -0.50328  -0.50200  -0.49766  -0.49604
 Alpha  occ. eigenvalues --   -0.49412  -0.48463  -0.47811  -0.47160  -0.47099
 Alpha  occ. eigenvalues --   -0.46958  -0.45817  -0.45572  -0.45534  -0.44996
 Alpha  occ. eigenvalues --   -0.44530  -0.44358  -0.43745  -0.43077  -0.42465
 Alpha  occ. eigenvalues --   -0.42126  -0.41156  -0.40857  -0.38568  -0.37228
 Alpha  occ. eigenvalues --   -0.35915  -0.35048  -0.34826  -0.34193  -0.32637
 Alpha  occ. eigenvalues --   -0.31556  -0.30741
 Alpha virt. eigenvalues --   -0.13154  -0.10980  -0.10142  -0.09272  -0.08089
 Alpha virt. eigenvalues --   -0.06130  -0.06116  -0.05347  -0.03831  -0.02489
 Alpha virt. eigenvalues --   -0.01987  -0.01285  -0.01156   0.00086   0.00574
 Alpha virt. eigenvalues --    0.00932   0.01390   0.01638   0.02495   0.02934
 Alpha virt. eigenvalues --    0.03569   0.03952   0.04702   0.05360   0.05538
 Alpha virt. eigenvalues --    0.05566   0.05902   0.06145   0.06967   0.07344
 Alpha virt. eigenvalues --    0.07957   0.08176   0.08334   0.08471   0.09646
 Alpha virt. eigenvalues --    0.10196   0.10424   0.11407   0.11606   0.11803
 Alpha virt. eigenvalues --    0.12257   0.12825   0.13430   0.13850   0.14160
 Alpha virt. eigenvalues --    0.14663   0.15173   0.15325   0.16281   0.16754
 Alpha virt. eigenvalues --    0.17550   0.18482   0.19456   0.20932   0.20992
 Alpha virt. eigenvalues --    0.22242   0.22609   0.23914   0.25140   0.25352
 Alpha virt. eigenvalues --    0.26097   0.26822   0.28347   0.28512   0.30664
 Alpha virt. eigenvalues --    0.31494   0.35169   0.35808   0.36591   0.37681
 Alpha virt. eigenvalues --    0.39309   0.40542   0.41407   0.41695   0.42668
 Alpha virt. eigenvalues --    0.43359   0.43887   0.44323   0.44687   0.45237
 Alpha virt. eigenvalues --    0.45895   0.46305   0.46439   0.46844   0.47779
 Alpha virt. eigenvalues --    0.48238   0.48471   0.49122   0.49491   0.49901
 Alpha virt. eigenvalues --    0.50775   0.51277   0.51708   0.51978   0.52407
 Alpha virt. eigenvalues --    0.52558   0.52929   0.53703   0.54363   0.55334
 Alpha virt. eigenvalues --    0.55762   0.56004   0.56495   0.56846   0.57436
 Alpha virt. eigenvalues --    0.58898   0.59032   0.59252   0.59518   0.60522
 Alpha virt. eigenvalues --    0.61555   0.62028   0.63062   0.64255   0.64794
 Alpha virt. eigenvalues --    0.65280   0.66642   0.66871   0.66936   0.67476
 Alpha virt. eigenvalues --    0.67729   0.68600   0.69058   0.69482   0.69990
 Alpha virt. eigenvalues --    0.70724   0.71235   0.71988   0.72687   0.72946
 Alpha virt. eigenvalues --    0.73427   0.73671   0.73990   0.74703   0.75323
 Alpha virt. eigenvalues --    0.76034   0.76264   0.76379   0.76752   0.77199
 Alpha virt. eigenvalues --    0.77530   0.77999   0.78284   0.78783   0.79758
 Alpha virt. eigenvalues --    0.80200   0.80842   0.81107   0.81705   0.82211
 Alpha virt. eigenvalues --    0.83010   0.83476   0.83708   0.83939   0.84275
 Alpha virt. eigenvalues --    0.84749   0.85448   0.85603   0.86209   0.86833
 Alpha virt. eigenvalues --    0.87215   0.87666   0.87836   0.88494   0.89078
 Alpha virt. eigenvalues --    0.89974   0.90604   0.91174   0.91869   0.92926
 Alpha virt. eigenvalues --    0.94217   0.94659   0.94793   0.95545   0.95966
 Alpha virt. eigenvalues --    0.96946   0.97326   0.99211   0.99420   1.01066
 Alpha virt. eigenvalues --    1.01421   1.02407   1.03104   1.03537   1.04185
 Alpha virt. eigenvalues --    1.05885   1.08000   1.08540   1.09372   1.09878
 Alpha virt. eigenvalues --    1.12531   1.13767   1.14382   1.14940   1.15608
 Alpha virt. eigenvalues --    1.16224   1.17106   1.18525   1.19831   1.20699
 Alpha virt. eigenvalues --    1.21193   1.22006   1.23748   1.25541   1.26123
 Alpha virt. eigenvalues --    1.26638   1.27245   1.29192   1.29796   1.31689
 Alpha virt. eigenvalues --    1.31980   1.32501   1.33966   1.34529   1.34679
 Alpha virt. eigenvalues --    1.35347   1.36333   1.37143   1.37794   1.39265
 Alpha virt. eigenvalues --    1.40543   1.41640   1.42443   1.43765   1.44482
 Alpha virt. eigenvalues --    1.45915   1.46538   1.49064   1.50850   1.51402
 Alpha virt. eigenvalues --    1.52984   1.53817   1.54394   1.55729   1.57663
 Alpha virt. eigenvalues --    1.58426   1.59461   1.60211   1.61736   1.62334
 Alpha virt. eigenvalues --    1.63341   1.63830   1.64081   1.65216   1.65444
 Alpha virt. eigenvalues --    1.66071   1.66741   1.67279   1.68023   1.68745
 Alpha virt. eigenvalues --    1.69396   1.70072   1.70291   1.71573   1.71907
 Alpha virt. eigenvalues --    1.72196   1.73989   1.74174   1.75213   1.75894
 Alpha virt. eigenvalues --    1.76931   1.77172   1.77543   1.77918   1.79323
 Alpha virt. eigenvalues --    1.79641   1.80672   1.80799   1.81834   1.82501
 Alpha virt. eigenvalues --    1.83771   1.84089   1.84826   1.85372   1.85417
 Alpha virt. eigenvalues --    1.86085   1.86437   1.87404   1.87874   1.88591
 Alpha virt. eigenvalues --    1.89000   1.90070   1.90326   1.91894   1.92059
 Alpha virt. eigenvalues --    1.94604   1.95464   1.95681   1.96597   1.97137
 Alpha virt. eigenvalues --    1.97858   1.98714   1.98899   2.00394   2.00938
 Alpha virt. eigenvalues --    2.01486   2.03124   2.04232   2.04530   2.05758
 Alpha virt. eigenvalues --    2.06740   2.07404   2.08384   2.11900   2.12903
 Alpha virt. eigenvalues --    2.15363   2.16178   2.16598   2.18249   2.18733
 Alpha virt. eigenvalues --    2.19485   2.20596   2.21599   2.22516   2.23468
 Alpha virt. eigenvalues --    2.23782   2.24149   2.25338   2.25574   2.27025
 Alpha virt. eigenvalues --    2.27598   2.28514   2.30031   2.31177   2.31713
 Alpha virt. eigenvalues --    2.32123   2.33425   2.34389   2.35601   2.36250
 Alpha virt. eigenvalues --    2.37220   2.38400   2.39989   2.41185   2.43439
 Alpha virt. eigenvalues --    2.43811   2.44414   2.44616   2.45684   2.47134
 Alpha virt. eigenvalues --    2.47921   2.50840   2.51121   2.51681   2.53373
 Alpha virt. eigenvalues --    2.55449   2.56254   2.57105   2.58075   2.58906
 Alpha virt. eigenvalues --    2.59502   2.60289   2.61286   2.63434   2.64511
 Alpha virt. eigenvalues --    2.66534   2.67308   2.68120   2.69060   2.70538
 Alpha virt. eigenvalues --    2.72498   2.75824   2.77074   2.79086   2.79325
 Alpha virt. eigenvalues --    2.80830   2.81874   2.87697   2.88638   2.89881
 Alpha virt. eigenvalues --    2.93450   2.93998   2.97070   2.98026   3.02192
 Alpha virt. eigenvalues --    3.02680   3.06421   3.11161   3.31868   3.62829
 Alpha virt. eigenvalues --    3.76742   3.81975   3.83807   3.86564   3.91390
 Alpha virt. eigenvalues --    3.98226   4.04042   4.06483   4.07212   4.08797
 Alpha virt. eigenvalues --    4.10148   4.11248   4.11489   4.15087   4.18213
 Alpha virt. eigenvalues --    4.19401   4.23947   4.25816   4.27999   4.32629
 Alpha virt. eigenvalues --    4.35882   4.36723   4.43895   4.44326   4.47746
 Alpha virt. eigenvalues --    4.48921   4.55644   4.60542   4.66486   4.69222
          Condensed to atoms (all electrons):
 Mulliken charges:
               1
     1  N   -0.776965
     2  C   -0.067906
     3  C    0.626394
     4  O   -0.572123
     5  C   -0.275612
     6  C   -0.415640
     7  C    0.614077
     8  O   -0.447086
     9  O   -0.550935
    10  H    0.418924
    11  H    0.354813
    12  H    0.164282
    13  H    0.170639
    14  H    0.177486
    15  H    0.186422
    16  H    0.168733
    17  H    0.317944
    18  N   -0.600827
    19  C   -0.008015
    20  C    0.623288
    21  O   -0.491222
    22  C   -0.379618
    23  C    0.144319
    24  C   -0.177017
    25  C   -0.210078
    26  C   -0.176214
    27  C   -0.213172
    28  C    0.354311
    29  O   -0.654463
    30  H    0.371247
    31  H    0.154314
    32  H    0.180371
    33  H    0.175876
    34  H    0.165421
    35  H    0.152825
    36  H    0.150162
    37  H    0.144109
    38  H    0.416710
    39  N   -0.685049
    40  C   -0.021555
    41  C    0.622599
    42  O   -0.536864
    43  C   -0.304122
    44  C   -0.297314
    45  C   -0.315588
    46  C   -0.196945
    47  N   -0.752452
    48  O   -0.557726
    49  H    0.453902
    50  H    0.375703
    51  H    0.195178
    52  H    0.212129
    53  H    0.184959
    54  H    0.176396
    55  H    0.137162
    56  H    0.198558
    57  H    0.195159
    58  H    0.211756
    59  H    0.217858
    60  H    0.411934
    61  H    0.414298
    62  H    0.444250
 Sum of Mulliken charges =   1.00000
 Mulliken charges with hydrogens summed into heavy atoms:
               1
     1  N   -0.104208
     2  C    0.096376
     3  C    0.626394
     4  O   -0.572123
     5  C    0.072513
     6  C   -0.060486
     7  C    0.614077
     8  O   -0.447086
     9  O   -0.132010
    18  N   -0.229580
    19  C    0.146299
    20  C    0.623288
    21  O   -0.491222
    22  C   -0.023371
    23  C    0.144319
    24  C   -0.011596
    25  C   -0.057253
    26  C   -0.026052
    27  C   -0.069063
    28  C    0.354311
    29  O   -0.237753
    39  N   -0.309346
    40  C    0.173623
    41  C    0.622599
    42  O   -0.536864
    43  C    0.092966
    44  C    0.016243
    45  C    0.078129
    46  C    0.232669
    47  N    0.518030
    48  O   -0.103824
 Electronic spatial extent (au):  <R**2>=       20315542.6504
 Charge=              1.0000 electrons
 Dipole moment (field-independent basis, Debye):
    X=            -24.6927    Y=           -409.3239    Z=            627.1871  Tot=            749.3460
 Quadrupole moment (field-independent basis, Debye-Ang):
   XX=            -39.5105   YY=          34795.7166   ZZ=          81747.8134
   XY=           2098.6522   XZ=          -3233.7955   YZ=         -53404.8452
 Traceless Quadrupole moment (field-independent basis, Debye-Ang):
   XX=         -38874.1836   YY=          -4038.9566   ZZ=          42913.1402
   XY=           2098.6522   XZ=          -3233.7955   YZ=         -53404.8452
 Octapole moment (field-independent basis, Debye-Ang**2):
  XXX=            444.9805  YYY=       -2949863.9432  ZZZ=       10636486.7295  XYY=        -178408.1132
  XXY=           3974.5736  XXZ=          -4677.8358  XZZ=        -423281.6346  YZZ=       -6954867.2104
  YYZ=        4536075.9730  XYZ=         274533.9961
 Hexadecapole moment (field-independent basis, Debye-Ang**3):
 XXXX=          -4653.3670 YYYY=      249320759.1353 ZZZZ=     1381613739.2156 XXXY=         -41564.4605
 XXXZ=          55479.1493 YYYX=       15171439.0218 YYYZ=     -384229699.3148 ZZZX=      -55375955.1380
 ZZZY=     -904111677.9553 XXYY=        -393701.9261 XXZZ=        -550678.5783 YYZZ=      590209408.4173
 XXYZ=         476933.2406 YYXZ=      -23310042.3958 ZZXY=       35895162.8677
 N-N= 3.289182863318D+03 E-N=-1.011449771593D+04  KE= 1.512273312648D+03
 Unable to Open any file for archive entry.
 1\1\GINC-VIM-000\SP\RB3LYP\6-31G(d)\C20H31N4O7(1+)\KENGMITH\24-May-202
 2\0\\# B3LYP/6-31G* empiricaldispersion=gd3 guess=read geom=check nosy
 mm integral(ultrafinegrid)\\Candidate Structure: Conf:34 Charge calc i
 n gas phase\\1,1\N,0,-0.7877304071,-92.0230228973,127.0912819914\C,0,-
 2.1392712974,-91.5313936907,126.7902163992\C,0,-2.30051611,-90.0766846
 107,127.2649366941\O,0,-3.3337100591,-89.4246311623,127.066848657\C,0,
 -2.5745528031,-91.6125383989,125.3116740848\C,0,-2.6201879671,-93.0334
 894657,124.7389189896\C,0,-1.2668621896,-93.5599002227,124.2655548073\
 O,0,-0.2291162805,-92.9408869698,124.3145066461\O,0,-1.2751645135,-94.
 8099093116,123.7476449289\H,0,-2.1745844267,-95.1786365053,123.7469965
 094\H,0,-0.2250189734,-92.0479792063,126.2424487907\H,0,-2.8606895962,
 -92.103266938,127.3902806933\H,0,-1.8908312625,-91.0094611686,124.7028
 862842\H,0,-3.5633760767,-91.1524125407,125.2356450836\H,0,-3.29582783
 83,-93.061485524,123.8725390487\H,0,-3.0372945153,-93.7430834629,125.4
 688129467\H,0,-0.8129918129,-92.9722456624,127.4508602751\N,0,-1.23307
 77037,-89.5637311241,127.9173204919\C,0,-1.3049078374,-88.2058383031,1
 28.3994697669\C,0,-2.3333521608,-88.0801782033,129.5466341394\O,0,-2.1
 406250493,-88.559144186,130.6471839675\C,0,0.0427854501,-87.6573637566
 ,128.9104527362\C,0,-0.1726277764,-86.2518507131,129.4374086935\C,0,-0
 .2792629899,-86.0048987759,130.8128544893\C,0,-0.4372346523,-85.192859
 4537,128.5578084771\C,0,-0.679798686,-84.7612406159,131.2984172795\C,0
 ,-0.8459223531,-83.9423206519,129.0274018838\C,0,-0.9937203418,-83.733
 9180425,130.4041123303\O,0,-1.4729956629,-82.5627852698,130.9317204227
 \H,0,-0.4637375956,-90.203731133,128.1008989045\H,0,-1.6395995088,-87.
 5778688222,127.5659235009\H,0,0.4133425948,-88.3113969252,129.70614637
 14\H,0,0.7649903027,-87.6769487074,128.0863443911\H,0,-0.0842961851,-8
 6.8111418372,131.5134044794\H,0,-0.3400812471,-85.3467596622,127.48542
 30189\H,0,-0.7601924199,-84.5737376496,132.3646855106\H,0,-1.061281694
 3,-83.1386774934,128.3262283015\H,0,-1.4956506521,-81.8854760484,130.2
 371045755\N,0,-3.4094397398,-87.2704830958,129.1918904259\C,0,-4.45498
 14341,-86.7799461426,130.0856404407\C,0,-4.8806076318,-85.4035974312,1
 29.5704653045\O,0,-5.9944877772,-84.9399644073,129.7918375894\C,0,-3.9
 687009159,-86.6236568276,131.5635770856\C,0,-4.8242751754,-85.67990591
 93,132.4345318579\C,0,-4.3410628434,-84.2114696364,132.3553218882\C,0,
 -5.3838859397,-83.1496328011,132.6895425296\N,0,-6.5761059551,-83.2259
 142873,131.735510456\O,0,-3.9517041423,-84.6762337343,128.965202602\H,
 0,-3.1309465077,-85.2187838421,128.8805396329\H,0,-3.7129798537,-87.48
 68634691,128.2413191404\H,0,-5.3503752479,-87.4123734913,130.069856337
 4\H,0,-3.9367865897,-87.6238452612,131.9933957012\H,0,-2.9363205519,-8
 6.265050861,131.5515067561\H,0,-4.7664047258,-86.0139231957,133.475711
 4029\H,0,-5.8772470302,-85.7764078015,132.1429504706\H,0,-3.5104634198
 ,-84.0633402034,133.054430695\H,0,-3.9161400758,-83.9750487819,131.374
 89033\H,0,-5.7876286096,-83.2488688099,133.7003215452\H,0,-4.964352441
 1,-82.1477160217,132.576460155\H,0,-7.0515800516,-82.3242000799,131.63
 97991992\H,0,-7.2687161353,-83.906123511,132.0619484708\H,0,-6.2896263
 471,-83.5872560451,130.7877902514\\Version=ES64L-G16RevC.01\HF=-1526.2
 824386\RMSD=7.143e-09\Dipole=-4.9156803,4.5051488,3.2200883\Quadrupole
 =-28902.0027477,-3002.8652376,31904.8679852,1560.2964644,-2404.2477225
 ,-39705.1935076\PG=C01 [X(C20H31N4O7)]\\@
 The archive entry for this job was punched.


 YOU KNOW YOU'RE A TEACHER WHEN YOU SAY 2, WRITE 3, AND MEAN 4.
 -- RONALD ANSTROM, HIGH SCHOOL TEACHER, UNDERWOOD, N.D. 1974
 Job cpu time:       0 days  0 hours  1 minutes 33.2 seconds.
 Elapsed time:       0 days  0 hours  0 minutes 23.8 seconds.
 File lengths (MBytes):  RWF=    264 Int=      0 D2E=      0 Chk=     40 Scr=     16
 Normal termination of Gaussian 16 at Tue May 24 19:13:21 2022.
