 Entering Gaussian System, Link 0=/opt/software/Gaussian/g16-AVX2-C.01/g16/g16
 Input=charge-conf-884.com
 Output=charge-conf-884.log
 Initial command:
 /opt/software/Gaussian/g16-AVX2-C.01/g16/l1.exe "/mnt/gs18/scratch/users/kengmith/Gau-11536.inp" -scrdir="/mnt/gs18/scratch/users/kengmith/"
 Entering Link 1 = /opt/software/Gaussian/g16-AVX2-C.01/g16/l1.exe PID=     11558.
  
 Copyright (c) 1988-2019, Gaussian, Inc.  All Rights Reserved.
  
 This is part of the Gaussian(R) 16 program.  It is based on
 the Gaussian(R) 09 system (copyright 2009, Gaussian, Inc.),
 the Gaussian(R) 03 system (copyright 2003, Gaussian, Inc.),
 the Gaussian(R) 98 system (copyright 1998, Gaussian, Inc.),
 the Gaussian(R) 94 system (copyright 1995, Gaussian, Inc.),
 the Gaussian 92(TM) system (copyright 1992, Gaussian, Inc.),
 the Gaussian 90(TM) system (copyright 1990, Gaussian, Inc.),
 the Gaussian 88(TM) system (copyright 1988, Gaussian, Inc.),
 the Gaussian 86(TM) system (copyright 1986, Carnegie Mellon
 University), and the Gaussian 82(TM) system (copyright 1983,
 Carnegie Mellon University). Gaussian is a federally registered
 trademark of Gaussian, Inc.
  
 This software contains proprietary and confidential information,
 including trade secrets, belonging to Gaussian, Inc.
  
 This software is provided under written license and may be
 used, copied, transmitted, or stored only in accord with that
 written license.
  
 The following legend is applicable only to US Government
 contracts under FAR:
  
                    RESTRICTED RIGHTS LEGEND
  
 Use, reproduction and disclosure by the US Government is
 subject to restrictions as set forth in subparagraphs (a)
 and (c) of the Commercial Computer Software - Restricted
 Rights clause in FAR 52.227-19.
  
 Gaussian, Inc.
 340 Quinnipiac St., Bldg. 40, Wallingford CT 06492
  
  
 ---------------------------------------------------------------
 Warning -- This program may not be used in any manner that
 competes with the business of Gaussian, Inc. or will provide
 assistance to any competitor of Gaussian, Inc.  The licensee
 of this program is prohibited from giving any competitor of
 Gaussian, Inc. access to this program.  By using this program,
 the user acknowledges that Gaussian, Inc. is engaged in the
 business of creating and licensing software in the field of
 computational chemistry and represents and warrants to the
 licensee that it is not a competitor of Gaussian, Inc. and that
 it will not use this program in any manner prohibited above.
 ---------------------------------------------------------------
  

 Cite this work as:
 Gaussian 16, Revision C.01,
 M. J. Frisch, G. W. Trucks, H. B. Schlegel, G. E. Scuseria, 
 M. A. Robb, J. R. Cheeseman, G. Scalmani, V. Barone, 
 G. A. Petersson, H. Nakatsuji, X. Li, M. Caricato, A. V. Marenich, 
 J. Bloino, B. G. Janesko, R. Gomperts, B. Mennucci, H. P. Hratchian, 
 J. V. Ortiz, A. F. Izmaylov, J. L. Sonnenberg, D. Williams-Young, 
 F. Ding, F. Lipparini, F. Egidi, J. Goings, B. Peng, A. Petrone, 
 T. Henderson, D. Ranasinghe, V. G. Zakrzewski, J. Gao, N. Rega, 
 G. Zheng, W. Liang, M. Hada, M. Ehara, K. Toyota, R. Fukuda, 
 J. Hasegawa, M. Ishida, T. Nakajima, Y. Honda, O. Kitao, H. Nakai, 
 T. Vreven, K. Throssell, J. A. Montgomery, Jr., J. E. Peralta, 
 F. Ogliaro, M. J. Bearpark, J. J. Heyd, E. N. Brothers, K. N. Kudin, 
 V. N. Staroverov, T. A. Keith, R. Kobayashi, J. Normand, 
 K. Raghavachari, A. P. Rendell, J. C. Burant, S. S. Iyengar, 
 J. Tomasi, M. Cossi, J. M. Millam, M. Klene, C. Adamo, R. Cammi, 
 J. W. Ochterski, R. L. Martin, K. Morokuma, O. Farkas, 
 J. B. Foresman, and D. J. Fox, Gaussian, Inc., Wallingford CT, 2019.
 
 ******************************************
 Gaussian 16:  ES64L-G16RevC.01  3-Jul-2019
                24-May-2022 
 ******************************************
 %mem=8gb
 %nproc=4
 Will use up to    4 processors via shared memory.
 %chk=conf-884.chk
 ----------------------------------------------------------------------
 # B3LYP/6-31G* empiricaldispersion=gd3 guess=read geom=check nosymm in
 tegral(ultrafinegrid)
 ----------------------------------------------------------------------
 1/29=2,38=1,172=1/1;
 2/12=2,15=1,40=1/2;
 3/5=1,6=6,7=1,11=2,14=-4,25=1,30=1,74=-5,75=-5,116=-2,124=31/1,2,3;
 4/5=1/1;
 5/5=2,38=6/2;
 6/7=2,8=2,9=2,10=2,28=1/1;
 99/5=1,9=1/99;
 ------------------------------------------------------
 Candidate Structure: Conf:884 Charge calc in gas phase
 ------------------------------------------------------
 Structure from the checkpoint file:  "conf-884.chk"
 Charge =  1 Multiplicity = 1
 Redundant internal coordinates found in file.  (old form).
 N,0,1.3014057969,-87.3095322281,130.8483980537
 C,0,1.0996934526,-87.8842478424,129.5109451367
 C,0,-0.3864159823,-87.7170788281,129.1552089
 O,0,-0.8398544765,-86.6232769969,128.7362080568
 C,0,2.0713753114,-87.2054565476,128.536909024
 C,0,2.3948752211,-88.0124404347,127.2613803228
 C,0,1.1987732766,-88.1552645794,126.3604897422
 O,0,0.4568721727,-89.1307036472,126.3608459991
 O,0,0.9907545876,-87.0780844934,125.5921111765
 H,0,0.1504359227,-87.2334096208,125.0900902017
 H,0,0.7369814378,-87.7861959324,131.5492557106
 H,0,1.3420866148,-88.9521716145,129.5722176154
 H,0,3.0039697319,-87.0585285283,129.088505255
 H,0,1.6913308658,-86.2119725825,128.2715567999
 H,0,2.7393185942,-89.0154791345,127.5264474726
 H,0,3.1902791009,-87.5014591114,126.7111522449
 H,0,1.0269698041,-86.3279835252,130.8548112873
 N,0,-1.2013626322,-88.7279410238,129.5058315074
 C,0,-2.6576738345,-88.6047002748,129.7190806005
 C,0,-3.4057944238,-88.7538368291,128.3718086135
 O,0,-4.0044076348,-89.7565372127,128.0337765863
 C,0,-3.1450292363,-89.6307698362,130.7524444949
 C,0,-4.5323986756,-89.2930772532,131.2570509773
 C,0,-4.6983060358,-88.348621426,132.2814041489
 C,0,-5.6757561389,-89.87662953,130.7008403923
 C,0,-5.9606185849,-87.9935806644,132.7425535288
 C,0,-6.9482428947,-89.5336474527,131.1555437593
 C,0,-7.0958109209,-88.5901237236,132.1787045106
 O,0,-8.3070466385,-88.2064505427,132.6702821966
 H,0,-0.7805730928,-89.6150954711,129.7547221799
 H,0,-2.8287606627,-87.5929105193,130.1025605169
 H,0,-3.1303413717,-90.6243863034,130.2923010132
 H,0,-2.4339239596,-89.6332746486,131.5884193057
 H,0,-3.8223251994,-87.8910438205,132.7382929127
 H,0,-5.5701358683,-90.5963063503,129.8955577083
 H,0,-6.0907364251,-87.2727368244,133.5430894352
 H,0,-7.8267984925,-90.0022801837,130.7168013443
 H,0,-9.0110581618,-88.7155910511,132.238820612
 N,0,-3.309104972,-87.6106393741,127.6123986576
 C,0,-3.671694458,-87.5753181971,126.1985015546
 C,0,-2.3827621151,-87.9925268407,125.4879042432
 O,0,-1.5943548041,-87.158275838,125.0112657756
 C,0,-4.1944370761,-86.1922011932,125.7252124545
 C,0,-4.5209714347,-85.1399238847,126.8044948461
 C,0,-3.3800599121,-84.4589637783,127.6009733016
 C,0,-2.191417011,-83.8886969795,126.815719735
 N,0,-1.1162610189,-84.921873655,126.5493846189
 O,0,-2.1110601204,-89.2688857683,125.573278115
 H,0,-1.1252928505,-89.3945432897,125.5186291885
 H,0,-2.5837409642,-86.9739231958,127.9277311441
 H,0,-4.4144515745,-88.3638549275,126.0586797748
 H,0,-3.4941093005,-85.7693795893,124.996545582
 H,0,-5.1154501313,-86.3663690525,125.1601746974
 H,0,-5.210354294,-85.5739260796,127.5365208192
 H,0,-5.0785360358,-84.3452604011,126.2937134215
 H,0,-3.8299389051,-83.6069420476,128.1236903507
 H,0,-2.9942978605,-85.1011168934,128.3994611968
 H,0,-2.489311414,-83.4843791563,125.8442283053
 H,0,-1.7051451579,-83.0930103137,127.3845613131
 H,0,-1.4322611826,-85.66726287,125.8889417574
 H,0,-0.8238556226,-85.4224470143,127.4176075232
 H,0,-0.2778654314,-84.5035435611,126.1349785801
 Recover connectivity data from disk.
                           ----------------------------
                           !    Current Parameters    !
                           ! (Angstroms and Degrees)  !
 --------------------------                            --------------------------
 ! Name  Definition              Value                                          !
 --------------------------------------------------------------------------------
 ! R1    R(1,2)                  1.4696                                         !
 ! R2    R(1,11)                 1.0183                                         !
 ! R3    R(1,17)                 1.0192                                         !
 ! R4    R(2,3)                  1.5372                                         !
 ! R5    R(2,5)                  1.5342                                         !
 ! R6    R(2,12)                 1.0968                                         !
 ! R7    R(3,4)                  1.256                                          !
 ! R8    R(3,18)                 1.345                                          !
 ! R9    R(5,6)                  1.5436                                         !
 ! R10   R(5,13)                 1.0934                                         !
 ! R11   R(5,14)                 1.0963                                         !
 ! R12   R(6,7)                  1.5042                                         !
 ! R13   R(6,15)                 1.0932                                         !
 ! R14   R(6,16)                 1.0939                                         !
 ! R15   R(7,8)                  1.2255                                         !
 ! R16   R(7,9)                  1.3394                                         !
 ! R17   R(9,10)                 0.9911                                         !
 ! R18   R(18,19)                1.477                                          !
 ! R19   R(18,30)                1.0129                                         !
 ! R20   R(19,20)                1.5482                                         !
 ! R21   R(19,22)                1.5356                                         !
 ! R22   R(19,31)                1.0955                                         !
 ! R23   R(20,21)                1.2157                                         !
 ! R24   R(20,39)                1.3758                                         !
 ! R25   R(22,23)                1.5144                                         !
 ! R26   R(22,32)                1.0951                                         !
 ! R27   R(22,33)                1.0975                                         !
 ! R28   R(23,24)                1.4031                                         !
 ! R29   R(23,25)                1.399                                          !
 ! R30   R(24,26)                1.39                                           !
 ! R31   R(24,34)                1.0888                                         !
 ! R32   R(25,27)                1.3941                                         !
 ! R33   R(25,35)                1.0852                                         !
 ! R34   R(26,28)                1.4009                                         !
 ! R35   R(26,36)                1.0851                                         !
 ! R36   R(27,28)                1.3996                                         !
 ! R37   R(27,37)                1.0881                                         !
 ! R38   R(28,29)                1.3623                                         !
 ! R39   R(29,38)                0.9701                                         !
 ! R40   R(39,40)                1.4601                                         !
 ! R41   R(39,50)                1.0154                                         !
 ! R42   R(40,41)                1.5298                                         !
 ! R43   R(40,43)                1.5525                                         !
 ! R44   R(40,51)                1.0923                                         !
 ! R45   R(41,42)                1.2429                                         !
 ! R46   R(41,48)                1.3077                                         !
 ! R47   R(43,44)                1.5423                                         !
 ! R48   R(43,52)                1.0955                                         !
 ! R49   R(43,53)                1.0945                                         !
 ! R50   R(44,45)                1.5491                                         !
 ! R51   R(44,54)                1.0952                                         !
 ! R52   R(44,55)                1.0969                                         !
 ! R53   R(45,46)                1.5345                                         !
 ! R54   R(45,56)                1.0962                                         !
 ! R55   R(45,57)                1.0949                                         !
 ! R56   R(46,47)                1.5147                                         !
 ! R57   R(46,58)                1.0936                                         !
 ! R58   R(46,59)                1.0923                                         !
 ! R59   R(47,60)                1.0448                                         !
 ! R60   R(47,61)                1.044                                          !
 ! R61   R(47,62)                1.0245                                         !
 ! R62   R(48,49)                0.9952                                         !
 ! A1    A(2,1,11)             111.5445                                         !
 ! A2    A(2,1,17)             110.2052                                         !
 ! A3    A(11,1,17)            107.2904                                         !
 ! A4    A(1,2,3)              107.5039                                         !
 ! A5    A(1,2,5)              108.5324                                         !
 ! A6    A(1,2,12)             107.4333                                         !
 ! A7    A(3,2,5)              114.6621                                         !
 ! A8    A(3,2,12)             109.4186                                         !
 ! A9    A(5,2,12)             109.0441                                         !
 ! A10   A(2,3,4)              121.3937                                         !
 ! A11   A(2,3,18)             116.3415                                         !
 ! A12   A(4,3,18)             121.5165                                         !
 ! A13   A(2,5,6)              115.2171                                         !
 ! A14   A(2,5,13)             106.2227                                         !
 ! A15   A(2,5,14)             109.5766                                         !
 ! A16   A(6,5,13)             107.9598                                         !
 ! A17   A(6,5,14)             110.2672                                         !
 ! A18   A(13,5,14)            107.2178                                         !
 ! A19   A(5,6,7)              112.2024                                         !
 ! A20   A(5,6,15)             110.2033                                         !
 ! A21   A(5,6,16)             108.8945                                         !
 ! A22   A(7,6,15)             107.978                                          !
 ! A23   A(7,6,16)             108.7417                                         !
 ! A24   A(15,6,16)            108.7524                                         !
 ! A25   A(6,7,8)              123.8331                                         !
 ! A26   A(6,7,9)              112.9989                                         !
 ! A27   A(8,7,9)              123.1109                                         !
 ! A28   A(7,9,10)             107.2309                                         !
 ! A29   A(3,18,19)            124.9155                                         !
 ! A30   A(3,18,30)            118.0736                                         !
 ! A31   A(19,18,30)           116.5641                                         !
 ! A32   A(18,19,20)           110.0453                                         !
 ! A33   A(18,19,22)           110.7521                                         !
 ! A34   A(18,19,31)           106.3557                                         !
 ! A35   A(20,19,22)           111.5836                                         !
 ! A36   A(20,19,31)           108.5494                                         !
 ! A37   A(22,19,31)           109.3906                                         !
 ! A38   A(19,20,21)           124.0092                                         !
 ! A39   A(19,20,39)           111.4885                                         !
 ! A40   A(21,20,39)           124.5021                                         !
 ! A41   A(19,22,23)           111.4671                                         !
 ! A42   A(19,22,32)           108.6174                                         !
 ! A43   A(19,22,33)           107.9666                                         !
 ! A44   A(23,22,32)           110.77                                           !
 ! A45   A(23,22,33)           109.8938                                         !
 ! A46   A(32,22,33)           108.0168                                         !
 ! A47   A(22,23,24)           120.11                                           !
 ! A48   A(22,23,25)           121.5488                                         !
 ! A49   A(24,23,25)           118.3191                                         !
 ! A50   A(23,24,26)           121.4327                                         !
 ! A51   A(23,24,34)           119.6101                                         !
 ! A52   A(26,24,34)           118.9515                                         !
 ! A53   A(23,25,27)           120.9085                                         !
 ! A54   A(23,25,35)           119.4806                                         !
 ! A55   A(27,25,35)           119.606                                          !
 ! A56   A(24,26,28)           119.5773                                         !
 ! A57   A(24,26,36)           121.5566                                         !
 ! A58   A(28,26,36)           118.8598                                         !
 ! A59   A(25,27,28)           120.0343                                         !
 ! A60   A(25,27,37)           119.9667                                         !
 ! A61   A(28,27,37)           119.9987                                         !
 ! A62   A(26,28,27)           119.7275                                         !
 ! A63   A(26,28,29)           117.0847                                         !
 ! A64   A(27,28,29)           123.1878                                         !
 ! A65   A(28,29,38)           109.6907                                         !
 ! A66   A(20,39,40)           122.4898                                         !
 ! A67   A(20,39,50)           113.5674                                         !
 ! A68   A(40,39,50)           117.5789                                         !
 ! A69   A(39,40,41)           103.5313                                         !
 ! A70   A(39,40,43)           113.602                                          !
 ! A71   A(39,40,51)           105.9842                                         !
 ! A72   A(41,40,43)           112.6467                                         !
 ! A73   A(41,40,51)           108.4573                                         !
 ! A74   A(43,40,51)           112.0349                                         !
 ! A75   A(40,41,42)           121.9739                                         !
 ! A76   A(40,41,48)           114.2611                                         !
 ! A77   A(42,41,48)           123.2544                                         !
 ! A78   A(40,43,44)           117.7609                                         !
 ! A79   A(40,43,52)           109.3516                                         !
 ! A80   A(40,43,53)           107.3951                                         !
 ! A81   A(44,43,52)           109.7221                                         !
 ! A82   A(44,43,53)           106.9586                                         !
 ! A83   A(52,43,53)           104.8317                                         !
 ! A84   A(43,44,45)           120.25                                           !
 ! A85   A(43,44,54)           109.3068                                         !
 ! A86   A(43,44,55)           106.0233                                         !
 ! A87   A(45,44,54)           107.1054                                         !
 ! A88   A(45,44,55)           107.1765                                         !
 ! A89   A(54,44,55)           106.1625                                         !
 ! A90   A(44,45,46)           118.0829                                         !
 ! A91   A(44,45,56)           106.5342                                         !
 ! A92   A(44,45,57)           112.1258                                         !
 ! A93   A(46,45,56)           105.8474                                         !
 ! A94   A(46,45,57)           108.5568                                         !
 ! A95   A(56,45,57)           104.6379                                         !
 ! A96   A(45,46,47)           112.7256                                         !
 ! A97   A(45,46,58)           112.3943                                         !
 ! A98   A(45,46,59)           110.4295                                         !
 ! A99   A(47,46,58)           106.8175                                         !
 ! A100  A(47,46,59)           105.8097                                         !
 ! A101  A(58,46,59)           108.3345                                         !
 ! A102  A(46,47,60)           112.5249                                         !
 ! A103  A(46,47,61)           112.311                                          !
 ! A104  A(46,47,62)           111.9297                                         !
 ! A105  A(60,47,61)           105.5652                                         !
 ! A106  A(60,47,62)           106.4464                                         !
 ! A107  A(61,47,62)           107.6362                                         !
 ! A108  A(41,48,49)           108.9915                                         !
 ! D1    D(11,1,2,3)            60.5515                                         !
 ! D2    D(11,1,2,5)          -174.8951                                         !
 ! D3    D(11,1,2,12)          -57.1216                                         !
 ! D4    D(17,1,2,3)           -58.5131                                         !
 ! D5    D(17,1,2,5)            66.0404                                         !
 ! D6    D(17,1,2,12)         -176.1861                                         !
 ! D7    D(1,2,3,4)             79.8051                                         !
 ! D8    D(1,2,3,18)           -90.4278                                         !
 ! D9    D(5,2,3,4)            -40.9604                                         !
 ! D10   D(5,2,3,18)           148.8067                                         !
 ! D11   D(12,2,3,4)          -163.8186                                         !
 ! D12   D(12,2,3,18)           25.9485                                         !
 ! D13   D(1,2,5,6)            157.4595                                         !
 ! D14   D(1,2,5,13)            37.9885                                         !
 ! D15   D(1,2,5,14)           -77.5212                                         !
 ! D16   D(3,2,5,6)            -82.3433                                         !
 ! D17   D(3,2,5,13)           158.1857                                         !
 ! D18   D(3,2,5,14)            42.676                                          !
 ! D19   D(12,2,5,6)            40.7163                                         !
 ! D20   D(12,2,5,13)          -78.7547                                         !
 ! D21   D(12,2,5,14)          165.7356                                         !
 ! D22   D(2,3,18,19)          156.6978                                         !
 ! D23   D(2,3,18,30)          -15.348                                          !
 ! D24   D(4,3,18,19)          -13.5222                                         !
 ! D25   D(4,3,18,30)          174.4321                                         !
 ! D26   D(2,5,6,7)             67.0666                                         !
 ! D27   D(2,5,6,15)           -53.2925                                         !
 ! D28   D(2,5,6,16)          -172.5029                                         !
 ! D29   D(13,5,6,7)          -174.4264                                         !
 ! D30   D(13,5,6,15)           65.2144                                         !
 ! D31   D(13,5,6,16)          -53.9959                                         !
 ! D32   D(14,5,6,7)           -57.5931                                         !
 ! D33   D(14,5,6,15)         -177.9523                                         !
 ! D34   D(14,5,6,16)           62.8373                                         !
 ! D35   D(5,6,7,8)            -95.8656                                         !
 ! D36   D(5,6,7,9)             81.458                                          !
 ! D37   D(15,6,7,8)            25.7754                                         !
 ! D38   D(15,6,7,9)          -156.901                                          !
 ! D39   D(16,6,7,8)           143.6154                                         !
 ! D40   D(16,6,7,9)           -39.061                                          !
 ! D41   D(6,7,9,10)          -175.6778                                         !
 ! D42   D(8,7,9,10)             1.668                                          !
 ! D43   D(3,18,19,20)          85.6927                                         !
 ! D44   D(3,18,19,22)        -150.459                                          !
 ! D45   D(3,18,19,31)         -31.6943                                         !
 ! D46   D(30,18,19,20)       -102.1534                                         !
 ! D47   D(30,18,19,22)         21.695                                          !
 ! D48   D(30,18,19,31)        140.4597                                         !
 ! D49   D(18,19,20,21)        103.7288                                         !
 ! D50   D(18,19,20,39)        -76.4223                                         !
 ! D51   D(22,19,20,21)        -19.635                                          !
 ! D52   D(22,19,20,39)        160.2139                                         !
 ! D53   D(31,19,20,21)       -140.2556                                         !
 ! D54   D(31,19,20,39)         39.5933                                         !
 ! D55   D(18,19,22,23)        164.9303                                         !
 ! D56   D(18,19,22,32)        -72.755                                          !
 ! D57   D(18,19,22,33)         44.1393                                         !
 ! D58   D(20,19,22,23)        -72.1081                                         !
 ! D59   D(20,19,22,32)         50.2066                                         !
 ! D60   D(20,19,22,33)        167.1009                                         !
 ! D61   D(31,19,22,23)         48.0192                                         !
 ! D62   D(31,19,22,32)        170.3338                                         !
 ! D63   D(31,19,22,33)        -72.7719                                         !
 ! D64   D(19,20,39,40)        166.6254                                         !
 ! D65   D(19,20,39,50)         15.3891                                         !
 ! D66   D(21,20,39,40)        -13.5266                                         !
 ! D67   D(21,20,39,50)       -164.7629                                         !
 ! D68   D(19,22,23,24)        -82.5379                                         !
 ! D69   D(19,22,23,25)         95.7213                                         !
 ! D70   D(32,22,23,24)        156.3955                                         !
 ! D71   D(32,22,23,25)        -25.3453                                         !
 ! D72   D(33,22,23,24)         37.1184                                         !
 ! D73   D(33,22,23,25)       -144.6224                                         !
 ! D74   D(22,23,24,26)        178.387                                          !
 ! D75   D(22,23,24,34)         -2.4882                                         !
 ! D76   D(25,23,24,26)          0.0721                                         !
 ! D77   D(25,23,24,34)        179.1969                                         !
 ! D78   D(22,23,25,27)       -178.5526                                         !
 ! D79   D(22,23,25,35)          0.6366                                         !
 ! D80   D(24,23,25,27)         -0.2632                                         !
 ! D81   D(24,23,25,35)        178.926                                          !
 ! D82   D(23,24,26,28)          0.1456                                         !
 ! D83   D(23,24,26,36)        179.2197                                         !
 ! D84   D(34,24,26,28)       -178.9848                                         !
 ! D85   D(34,24,26,36)          0.0893                                         !
 ! D86   D(23,25,27,28)          0.2355                                         !
 ! D87   D(23,25,27,37)       -179.5657                                         !
 ! D88   D(35,25,27,28)       -178.9526                                         !
 ! D89   D(35,25,27,37)          1.2462                                         !
 ! D90   D(24,26,28,27)         -0.1754                                         !
 ! D91   D(24,26,28,29)        179.8986                                         !
 ! D92   D(36,26,28,27)       -179.2745                                         !
 ! D93   D(36,26,28,29)          0.7995                                         !
 ! D94   D(25,27,28,26)         -0.0123                                         !
 ! D95   D(25,27,28,29)        179.909                                          !
 ! D96   D(37,27,28,26)        179.7889                                         !
 ! D97   D(37,27,28,29)         -0.2898                                         !
 ! D98   D(26,28,29,38)       -177.1185                                         !
 ! D99   D(27,28,29,38)          2.9583                                         !
 ! D100  D(20,39,40,41)        -87.4358                                         !
 ! D101  D(20,39,40,43)        150.0611                                         !
 ! D102  D(20,39,40,51)         26.6226                                         !
 ! D103  D(50,39,40,41)         62.7227                                         !
 ! D104  D(50,39,40,43)        -59.7804                                         !
 ! D105  D(50,39,40,51)        176.7811                                         !
 ! D106  D(39,40,41,42)        -97.3968                                         !
 ! D107  D(39,40,41,48)         74.6549                                         !
 ! D108  D(43,40,41,42)         25.7389                                         !
 ! D109  D(43,40,41,48)       -162.2095                                         !
 ! D110  D(51,40,41,42)        150.3367                                         !
 ! D111  D(51,40,41,48)        -37.6117                                         !
 ! D112  D(39,40,43,44)        -11.337                                          !
 ! D113  D(39,40,43,52)        114.7528                                         !
 ! D114  D(39,40,43,53)       -132.0223                                         !
 ! D115  D(41,40,43,44)       -128.6571                                         !
 ! D116  D(41,40,43,52)         -2.5673                                         !
 ! D117  D(41,40,43,53)        110.6576                                         !
 ! D118  D(51,40,43,44)        108.7313                                         !
 ! D119  D(51,40,43,52)       -125.1789                                         !
 ! D120  D(51,40,43,53)        -11.9541                                         !
 ! D121  D(40,41,48,49)       -151.9411                                         !
 ! D122  D(42,41,48,49)         19.9953                                         !
 ! D123  D(40,43,44,45)         71.088                                          !
 ! D124  D(40,43,44,54)        -53.3204                                         !
 ! D125  D(40,43,44,55)       -167.3671                                         !
 ! D126  D(52,43,44,45)        -54.8208                                         !
 ! D127  D(52,43,44,54)       -179.2292                                         !
 ! D128  D(52,43,44,55)         66.7241                                         !
 ! D129  D(53,43,44,45)       -168.0002                                         !
 ! D130  D(53,43,44,54)         67.5914                                         !
 ! D131  D(53,43,44,55)        -46.4554                                         !
 ! D132  D(43,44,45,46)         48.4307                                         !
 ! D133  D(43,44,45,56)        167.1987                                         !
 ! D134  D(43,44,45,57)        -78.8936                                         !
 ! D135  D(54,44,45,46)        173.8761                                         !
 ! D136  D(54,44,45,56)        -67.356                                          !
 ! D137  D(54,44,45,57)         46.5517                                         !
 ! D138  D(55,44,45,46)        -72.5479                                         !
 ! D139  D(55,44,45,56)         46.2201                                         !
 ! D140  D(55,44,45,57)        160.1278                                         !
 ! D141  D(44,45,46,47)        -86.5247                                         !
 ! D142  D(44,45,46,58)         34.2621                                         !
 ! D143  D(44,45,46,59)        155.3626                                         !
 ! D144  D(56,45,46,47)        154.3468                                         !
 ! D145  D(56,45,46,58)        -84.8664                                         !
 ! D146  D(56,45,46,59)         36.234                                          !
 ! D147  D(57,45,46,47)         42.4834                                         !
 ! D148  D(57,45,46,58)        163.2703                                         !
 ! D149  D(57,45,46,59)        -75.6293                                         !
 ! D150  D(45,46,47,60)         67.6544                                         !
 ! D151  D(45,46,47,61)        -51.3047                                         !
 ! D152  D(45,46,47,62)       -172.5191                                         !
 ! D153  D(58,46,47,60)        -56.2696                                         !
 ! D154  D(58,46,47,61)       -175.2288                                         !
 ! D155  D(58,46,47,62)         63.5568                                         !
 ! D156  D(59,46,47,60)       -171.5547                                         !
 ! D157  D(59,46,47,61)         69.4862                                         !
 ! D158  D(59,46,47,62)        -51.7282                                         !
 --------------------------------------------------------------------------------
 Symmetry turned off by external request.
 Stoichiometry    C20H31N4O7(1+)
 Framework group  C1[X(C20H31N4O7)]
 Deg. of freedom   180
 Full point group                 C1      NOp   1
                          Input orientation:                          
 ---------------------------------------------------------------------
 Center     Atomic      Atomic             Coordinates (Angstroms)
 Number     Number       Type             X           Y           Z
 ---------------------------------------------------------------------
      1          7           0        1.301406  -87.309532  130.848398
      2          6           0        1.099693  -87.884248  129.510945
      3          6           0       -0.386416  -87.717079  129.155209
      4          8           0       -0.839854  -86.623277  128.736208
      5          6           0        2.071375  -87.205457  128.536909
      6          6           0        2.394875  -88.012440  127.261380
      7          6           0        1.198773  -88.155265  126.360490
      8          8           0        0.456872  -89.130704  126.360846
      9          8           0        0.990755  -87.078084  125.592111
     10          1           0        0.150436  -87.233410  125.090090
     11          1           0        0.736981  -87.786196  131.549256
     12          1           0        1.342087  -88.952172  129.572218
     13          1           0        3.003970  -87.058529  129.088505
     14          1           0        1.691331  -86.211973  128.271557
     15          1           0        2.739319  -89.015479  127.526447
     16          1           0        3.190279  -87.501459  126.711152
     17          1           0        1.026970  -86.327984  130.854811
     18          7           0       -1.201363  -88.727941  129.505832
     19          6           0       -2.657674  -88.604700  129.719081
     20          6           0       -3.405794  -88.753837  128.371809
     21          8           0       -4.004408  -89.756537  128.033777
     22          6           0       -3.145029  -89.630770  130.752444
     23          6           0       -4.532399  -89.293077  131.257051
     24          6           0       -4.698306  -88.348621  132.281404
     25          6           0       -5.675756  -89.876630  130.700840
     26          6           0       -5.960619  -87.993581  132.742554
     27          6           0       -6.948243  -89.533647  131.155544
     28          6           0       -7.095811  -88.590124  132.178705
     29          8           0       -8.307047  -88.206451  132.670282
     30          1           0       -0.780573  -89.615095  129.754722
     31          1           0       -2.828761  -87.592911  130.102561
     32          1           0       -3.130341  -90.624386  130.292301
     33          1           0       -2.433924  -89.633275  131.588419
     34          1           0       -3.822325  -87.891044  132.738293
     35          1           0       -5.570136  -90.596306  129.895558
     36          1           0       -6.090736  -87.272737  133.543089
     37          1           0       -7.826798  -90.002280  130.716801
     38          1           0       -9.011058  -88.715591  132.238821
     39          7           0       -3.309105  -87.610639  127.612399
     40          6           0       -3.671694  -87.575318  126.198502
     41          6           0       -2.382762  -87.992527  125.487904
     42          8           0       -1.594355  -87.158276  125.011266
     43          6           0       -4.194437  -86.192201  125.725212
     44          6           0       -4.520971  -85.139924  126.804495
     45          6           0       -3.380060  -84.458964  127.600973
     46          6           0       -2.191417  -83.888697  126.815720
     47          7           0       -1.116261  -84.921874  126.549385
     48          8           0       -2.111060  -89.268886  125.573278
     49          1           0       -1.125293  -89.394543  125.518629
     50          1           0       -2.583741  -86.973923  127.927731
     51          1           0       -4.414452  -88.363855  126.058680
     52          1           0       -3.494109  -85.769380  124.996546
     53          1           0       -5.115450  -86.366369  125.160175
     54          1           0       -5.210354  -85.573926  127.536521
     55          1           0       -5.078536  -84.345260  126.293713
     56          1           0       -3.829939  -83.606942  128.123690
     57          1           0       -2.994298  -85.101117  128.399461
     58          1           0       -2.489311  -83.484379  125.844228
     59          1           0       -1.705145  -83.093010  127.384561
     60          1           0       -1.432261  -85.667263  125.888942
     61          1           0       -0.823856  -85.422447  127.417608
     62          1           0       -0.277865  -84.503544  126.134979
 ---------------------------------------------------------------------
 Rotational constants (GHZ):           0.2102664           0.0941544           0.0824682
 Standard basis: 6-31G(d) (6D, 7F)
   527 basis functions,   992 primitive gaussians,   527 cartesian basis functions
   117 alpha electrons      117 beta electrons
       nuclear repulsion energy      3471.5440203797 Hartrees.
 NAtoms=   62 NActive=   62 NUniq=   62 SFac= 1.00D+00 NAtFMM=   60 NAOKFM=T Big=T
 Integral buffers will be    131072 words long.
 Raffenetti 2 integral format.
 Two-electron integral symmetry is turned off.
 Nuclear repulsion after empirical dispersion term =     3471.4571554664 Hartrees.
 One-electron integrals computed using PRISM.
 NBasis=   527 RedAO= T EigKep=  4.34D-04  NBF=   527
 NBsUse=   527 1.00D-06 EigRej= -1.00D+00 NBFU=   527
 Initial guess from the checkpoint file:  "conf-884.chk"
 B after Tr=     0.000000    0.000000    0.000000
         Rot=    1.000000    0.000000    0.000000    0.000000 Ang=   0.00 deg.
 Requested convergence on RMS density matrix=1.00D-08 within 128 cycles.
 Requested convergence on MAX density matrix=1.00D-06.
 Requested convergence on             energy=1.00D-06.
 No special actions if energy rises.
 SCF Done:  E(RB3LYP) =  -1526.31975998     A.U. after    1 cycles
            NFock=  1  Conv=0.54D-08     -V/T= 2.0093

 **********************************************************************

            Population analysis using the SCF Density.

 **********************************************************************

 Alpha  occ. eigenvalues --  -19.31920 -19.31299 -19.29422 -19.27034 -19.27000
 Alpha  occ. eigenvalues --  -19.24716 -19.23110 -14.57447 -14.50243 -14.47433
 Alpha  occ. eigenvalues --  -14.44058 -10.46390 -10.44729 -10.42951 -10.39952
 Alpha  occ. eigenvalues --  -10.38642 -10.36088 -10.35253 -10.35179 -10.32603
 Alpha  occ. eigenvalues --  -10.32188 -10.31478 -10.31273 -10.31213 -10.31012
 Alpha  occ. eigenvalues --  -10.29218 -10.26972 -10.26776 -10.26340 -10.26082
 Alpha  occ. eigenvalues --  -10.25760  -1.24658  -1.22667  -1.17861  -1.15806
 Alpha  occ. eigenvalues --   -1.14980  -1.13637  -1.12852  -1.12499  -1.06212
 Alpha  occ. eigenvalues --   -1.04695  -1.01306  -0.93426  -0.93131  -0.91387
 Alpha  occ. eigenvalues --   -0.90290  -0.88482  -0.84738  -0.83483  -0.82078
 Alpha  occ. eigenvalues --   -0.81313  -0.78928  -0.76817  -0.76040  -0.73613
 Alpha  occ. eigenvalues --   -0.73126  -0.71700  -0.71276  -0.70902  -0.69922
 Alpha  occ. eigenvalues --   -0.69427  -0.68759  -0.66413  -0.66208  -0.64556
 Alpha  occ. eigenvalues --   -0.64190  -0.63170  -0.62462  -0.61763  -0.61261
 Alpha  occ. eigenvalues --   -0.60903  -0.60794  -0.60367  -0.59287  -0.58864
 Alpha  occ. eigenvalues --   -0.58161  -0.57488  -0.56554  -0.55945  -0.55684
 Alpha  occ. eigenvalues --   -0.55363  -0.54370  -0.54203  -0.53536  -0.53415
 Alpha  occ. eigenvalues --   -0.52374  -0.51842  -0.51394  -0.51276  -0.50790
 Alpha  occ. eigenvalues --   -0.49983  -0.49694  -0.49131  -0.49087  -0.48324
 Alpha  occ. eigenvalues --   -0.47800  -0.47404  -0.47296  -0.46701  -0.46269
 Alpha  occ. eigenvalues --   -0.46058  -0.45563  -0.45085  -0.44820  -0.44061
 Alpha  occ. eigenvalues --   -0.43624  -0.43485  -0.42194  -0.41074  -0.40704
 Alpha  occ. eigenvalues --   -0.40281  -0.40118  -0.37391  -0.35749  -0.35578
 Alpha  occ. eigenvalues --   -0.32497  -0.29119
 Alpha virt. eigenvalues --   -0.14478  -0.12685  -0.11779  -0.09221  -0.08780
 Alpha virt. eigenvalues --   -0.07570  -0.06530  -0.04285  -0.03646  -0.02899
 Alpha virt. eigenvalues --   -0.02120  -0.01499  -0.01266  -0.00248   0.00380
 Alpha virt. eigenvalues --    0.01063   0.01152   0.01437   0.01654   0.02197
 Alpha virt. eigenvalues --    0.03114   0.03269   0.03896   0.04090   0.04595
 Alpha virt. eigenvalues --    0.05157   0.05218   0.05628   0.05764   0.06324
 Alpha virt. eigenvalues --    0.06710   0.07298   0.08006   0.08086   0.08380
 Alpha virt. eigenvalues --    0.08660   0.08910   0.09326   0.09804   0.10404
 Alpha virt. eigenvalues --    0.10882   0.10990   0.11720   0.12418   0.12900
 Alpha virt. eigenvalues --    0.13289   0.13663   0.13746   0.14797   0.15304
 Alpha virt. eigenvalues --    0.16131   0.16828   0.17289   0.18506   0.19411
 Alpha virt. eigenvalues --    0.19914   0.21442   0.22653   0.23780   0.25030
 Alpha virt. eigenvalues --    0.25492   0.26484   0.27166   0.27331   0.28677
 Alpha virt. eigenvalues --    0.29430   0.30529   0.33856   0.35077   0.37610
 Alpha virt. eigenvalues --    0.38672   0.38825   0.39740   0.39959   0.40248
 Alpha virt. eigenvalues --    0.41564   0.41929   0.42344   0.42783   0.43975
 Alpha virt. eigenvalues --    0.44516   0.44966   0.45397   0.45953   0.46448
 Alpha virt. eigenvalues --    0.46659   0.46941   0.47752   0.48380   0.49095
 Alpha virt. eigenvalues --    0.49495   0.50011   0.50267   0.50926   0.51755
 Alpha virt. eigenvalues --    0.51780   0.52078   0.52927   0.53528   0.53972
 Alpha virt. eigenvalues --    0.54273   0.54778   0.55056   0.55948   0.56374
 Alpha virt. eigenvalues --    0.56429   0.57046   0.57654   0.57695   0.58229
 Alpha virt. eigenvalues --    0.58564   0.59722   0.60570   0.60988   0.62416
 Alpha virt. eigenvalues --    0.62759   0.63188   0.63865   0.64839   0.65256
 Alpha virt. eigenvalues --    0.66612   0.67066   0.67823   0.68480   0.68672
 Alpha virt. eigenvalues --    0.69204   0.69887   0.70312   0.70670   0.71468
 Alpha virt. eigenvalues --    0.72417   0.73590   0.74311   0.74395   0.74568
 Alpha virt. eigenvalues --    0.75252   0.75972   0.76089   0.76562   0.76752
 Alpha virt. eigenvalues --    0.77099   0.77901   0.78174   0.78494   0.78927
 Alpha virt. eigenvalues --    0.79492   0.79799   0.80276   0.80859   0.81517
 Alpha virt. eigenvalues --    0.81840   0.82334   0.82772   0.83148   0.83761
 Alpha virt. eigenvalues --    0.84385   0.84872   0.85326   0.85918   0.86181
 Alpha virt. eigenvalues --    0.87142   0.87293   0.87897   0.88398   0.88903
 Alpha virt. eigenvalues --    0.89544   0.90049   0.91019   0.91239   0.91527
 Alpha virt. eigenvalues --    0.92032   0.92487   0.93304   0.93727   0.95185
 Alpha virt. eigenvalues --    0.95497   0.97240   0.97548   0.97923   0.98541
 Alpha virt. eigenvalues --    1.00501   1.02545   1.02922   1.03891   1.05076
 Alpha virt. eigenvalues --    1.06551   1.06885   1.07149   1.08603   1.09090
 Alpha virt. eigenvalues --    1.10502   1.10908   1.12230   1.13577   1.14407
 Alpha virt. eigenvalues --    1.15378   1.16775   1.16908   1.17507   1.19479
 Alpha virt. eigenvalues --    1.20151   1.21091   1.22986   1.24667   1.25300
 Alpha virt. eigenvalues --    1.25821   1.27545   1.28435   1.29591   1.30263
 Alpha virt. eigenvalues --    1.31212   1.32204   1.32892   1.34213   1.35118
 Alpha virt. eigenvalues --    1.36000   1.36757   1.38038   1.38779   1.39212
 Alpha virt. eigenvalues --    1.40051   1.40509   1.42213   1.43103   1.43961
 Alpha virt. eigenvalues --    1.45227   1.46525   1.47288   1.47834   1.49347
 Alpha virt. eigenvalues --    1.50991   1.51707   1.52434   1.53741   1.54974
 Alpha virt. eigenvalues --    1.56327   1.56779   1.57527   1.59440   1.60532
 Alpha virt. eigenvalues --    1.62126   1.62865   1.63261   1.64464   1.64988
 Alpha virt. eigenvalues --    1.65506   1.66285   1.66488   1.66690   1.67755
 Alpha virt. eigenvalues --    1.68526   1.69032   1.69778   1.70823   1.71311
 Alpha virt. eigenvalues --    1.71568   1.72106   1.72637   1.72883   1.73830
 Alpha virt. eigenvalues --    1.75844   1.76459   1.77153   1.77346   1.77598
 Alpha virt. eigenvalues --    1.78407   1.79368   1.79680   1.80449   1.81385
 Alpha virt. eigenvalues --    1.82756   1.83417   1.83856   1.84473   1.85281
 Alpha virt. eigenvalues --    1.85839   1.86342   1.87103   1.87427   1.87997
 Alpha virt. eigenvalues --    1.88522   1.89101   1.90119   1.90448   1.91137
 Alpha virt. eigenvalues --    1.92091   1.93056   1.94277   1.94963   1.96314
 Alpha virt. eigenvalues --    1.97448   1.97554   1.98788   1.99135   1.99418
 Alpha virt. eigenvalues --    2.00476   2.02189   2.02420   2.05753   2.06111
 Alpha virt. eigenvalues --    2.06547   2.07121   2.07994   2.08229   2.08858
 Alpha virt. eigenvalues --    2.10810   2.12316   2.13565   2.16774   2.18010
 Alpha virt. eigenvalues --    2.18258   2.18849   2.19795   2.20128   2.21440
 Alpha virt. eigenvalues --    2.22088   2.23295   2.23607   2.24110   2.24625
 Alpha virt. eigenvalues --    2.26157   2.27110   2.27724   2.28174   2.29776
 Alpha virt. eigenvalues --    2.30953   2.31206   2.32837   2.33632   2.34620
 Alpha virt. eigenvalues --    2.35051   2.36623   2.38690   2.40297   2.41028
 Alpha virt. eigenvalues --    2.41515   2.42807   2.43382   2.44155   2.46219
 Alpha virt. eigenvalues --    2.47119   2.49195   2.50519   2.51917   2.52471
 Alpha virt. eigenvalues --    2.53839   2.54503   2.54774   2.56061   2.56812
 Alpha virt. eigenvalues --    2.57782   2.59081   2.59131   2.60200   2.62456
 Alpha virt. eigenvalues --    2.63821   2.65636   2.67635   2.69643   2.70442
 Alpha virt. eigenvalues --    2.71658   2.73623   2.73913   2.76851   2.79327
 Alpha virt. eigenvalues --    2.81618   2.83901   2.86488   2.86734   2.89280
 Alpha virt. eigenvalues --    2.89606   2.91900   2.92660   2.95476   2.96810
 Alpha virt. eigenvalues --    3.03189   3.05045   3.05683   3.34311   3.69866
 Alpha virt. eigenvalues --    3.78727   3.82840   3.86603   3.87639   3.90722
 Alpha virt. eigenvalues --    3.95769   4.00146   4.02793   4.03757   4.04788
 Alpha virt. eigenvalues --    4.05255   4.09062   4.15198   4.15783   4.18686
 Alpha virt. eigenvalues --    4.22142   4.23131   4.23927   4.27182   4.27923
 Alpha virt. eigenvalues --    4.29890   4.34321   4.39429   4.42796   4.46086
 Alpha virt. eigenvalues --    4.48486   4.51471   4.53465   4.60229   4.68787
          Condensed to atoms (all electrons):
 Mulliken charges:
               1
     1  N   -0.687667
     2  C   -0.059378
     3  C    0.626179
     4  O   -0.613777
     5  C   -0.287784
     6  C   -0.339511
     7  C    0.589436
     8  O   -0.505672
     9  O   -0.595979
    10  H    0.445317
    11  H    0.317213
    12  H    0.164259
    13  H    0.202886
    14  H    0.144554
    15  H    0.195054
    16  H    0.196992
    17  H    0.317375
    18  N   -0.587027
    19  C   -0.077442
    20  C    0.648872
    21  O   -0.478304
    22  C   -0.384962
    23  C    0.143273
    24  C   -0.189353
    25  C   -0.181630
    26  C   -0.157642
    27  C   -0.196095
    28  C    0.354995
    29  O   -0.632445
    30  H    0.360925
    31  H    0.185108
    32  H    0.185526
    33  H    0.151838
    34  H    0.119313
    35  H    0.163249
    36  H    0.152612
    37  H    0.135220
    38  H    0.415487
    39  N   -0.655279
    40  C   -0.021359
    41  C    0.611422
    42  O   -0.553134
    43  C   -0.332575
    44  C   -0.266717
    45  C   -0.317860
    46  C   -0.188001
    47  N   -0.815784
    48  O   -0.521981
    49  H    0.456543
    50  H    0.372292
    51  H    0.227219
    52  H    0.156234
    53  H    0.191027
    54  H    0.182704
    55  H    0.166425
    56  H    0.193338
    57  H    0.175108
    58  H    0.209242
    59  H    0.207248
    60  H    0.439193
    61  H    0.440013
    62  H    0.403666
 Sum of Mulliken charges =   1.00000
 Mulliken charges with hydrogens summed into heavy atoms:
               1
     1  N   -0.053078
     2  C    0.104880
     3  C    0.626179
     4  O   -0.613777
     5  C    0.059656
     6  C    0.052535
     7  C    0.589436
     8  O   -0.505672
     9  O   -0.150662
    18  N   -0.226102
    19  C    0.107667
    20  C    0.648872
    21  O   -0.478304
    22  C   -0.047598
    23  C    0.143273
    24  C   -0.070040
    25  C   -0.018381
    26  C   -0.005030
    27  C   -0.060875
    28  C    0.354995
    29  O   -0.216958
    39  N   -0.282987
    40  C    0.205860
    41  C    0.611422
    42  O   -0.553134
    43  C    0.014687
    44  C    0.082412
    45  C    0.050585
    46  C    0.228488
    47  N    0.467088
    48  O   -0.065438
 Electronic spatial extent (au):  <R**2>=       20238261.2919
 Charge=              1.0000 electrons
 Dipole moment (field-independent basis, Debye):
    X=             -7.1669    Y=           -413.4924    Z=            613.0584  Tot=            739.5052
 Quadrupole moment (field-independent basis, Debye-Ang):
   XX=           -126.6999   YY=          35438.3919   ZZ=          78086.1382
   XY=            616.2689   XZ=           -915.6036   YZ=         -52791.8957
 Traceless Quadrupole moment (field-independent basis, Debye-Ang):
   XX=         -37925.9767   YY=          -2360.8848   ZZ=          40286.8615
   XY=            616.2689   XZ=           -915.6036   YZ=         -52791.8957
 Octapole moment (field-independent basis, Debye-Ang**2):
  XXX=            932.3275  YYY=       -3022733.8472  ZZZ=        9924761.7886  XYY=         -52583.8961
  XXY=          11078.9643  XXZ=         -16304.8046  XZZ=        -116556.8092  YZZ=       -6725925.4116
  YYZ=        4525760.4167  XYZ=          78785.3695
 Hexadecapole moment (field-independent basis, Debye-Ang**3):
 XXXX=         -11203.6919 YYYY=      256478506.3132 ZZZZ=     1258647943.1318 XXXY=         -81453.3096
 XXXZ=         121023.2426 YYYX=        4448715.9862 YYYZ=     -386121584.7553 ZZZX=      -14781561.1576
 ZZZY=     -855055652.8989 XXYY=        -971527.2925 XXZZ=       -2101737.5084 YYZZ=      576729470.8533
 XXYZ=        1425620.4353 YYXZ=       -6726441.7861 ZZXY=       10035570.9949
 N-N= 3.471457155466D+03 E-N=-1.047522816477D+04  KE= 1.512255649068D+03
 Unable to Open any file for archive entry.
 1\1\GINC-VIM-002\SP\RB3LYP\6-31G(d)\C20H31N4O7(1+)\KENGMITH\24-May-202
 2\0\\# B3LYP/6-31G* empiricaldispersion=gd3 guess=read geom=check nosy
 mm integral(ultrafinegrid)\\Candidate Structure: Conf:884 Charge calc 
 in gas phase\\1,1\N,0,1.3014057969,-87.3095322281,130.8483980537\C,0,1
 .0996934526,-87.8842478424,129.5109451367\C,0,-0.3864159823,-87.717078
 8281,129.1552089\O,0,-0.8398544765,-86.6232769969,128.7362080568\C,0,2
 .0713753114,-87.2054565476,128.536909024\C,0,2.3948752211,-88.01244043
 47,127.2613803228\C,0,1.1987732766,-88.1552645794,126.3604897422\O,0,0
 .4568721727,-89.1307036472,126.3608459991\O,0,0.9907545876,-87.0780844
 934,125.5921111765\H,0,0.1504359227,-87.2334096208,125.0900902017\H,0,
 0.7369814378,-87.7861959324,131.5492557106\H,0,1.3420866148,-88.952171
 6145,129.5722176154\H,0,3.0039697319,-87.0585285283,129.088505255\H,0,
 1.6913308658,-86.2119725825,128.2715567999\H,0,2.7393185942,-89.015479
 1345,127.5264474726\H,0,3.1902791009,-87.5014591114,126.7111522449\H,0
 ,1.0269698041,-86.3279835252,130.8548112873\N,0,-1.2013626322,-88.7279
 410238,129.5058315074\C,0,-2.6576738345,-88.6047002748,129.7190806005\
 C,0,-3.4057944238,-88.7538368291,128.3718086135\O,0,-4.0044076348,-89.
 7565372127,128.0337765863\C,0,-3.1450292363,-89.6307698362,130.7524444
 949\C,0,-4.5323986756,-89.2930772532,131.2570509773\C,0,-4.6983060358,
 -88.348621426,132.2814041489\C,0,-5.6757561389,-89.87662953,130.700840
 3923\C,0,-5.9606185849,-87.9935806644,132.7425535288\C,0,-6.9482428947
 ,-89.5336474527,131.1555437593\C,0,-7.0958109209,-88.5901237236,132.17
 87045106\O,0,-8.3070466385,-88.2064505427,132.6702821966\H,0,-0.780573
 0928,-89.6150954711,129.7547221799\H,0,-2.8287606627,-87.5929105193,13
 0.1025605169\H,0,-3.1303413717,-90.6243863034,130.2923010132\H,0,-2.43
 39239596,-89.6332746486,131.5884193057\H,0,-3.8223251994,-87.891043820
 5,132.7382929127\H,0,-5.5701358683,-90.5963063503,129.8955577083\H,0,-
 6.0907364251,-87.2727368244,133.5430894352\H,0,-7.8267984925,-90.00228
 01837,130.7168013443\H,0,-9.0110581618,-88.7155910511,132.238820612\N,
 0,-3.309104972,-87.6106393741,127.6123986576\C,0,-3.671694458,-87.5753
 181971,126.1985015546\C,0,-2.3827621151,-87.9925268407,125.4879042432\
 O,0,-1.5943548041,-87.158275838,125.0112657756\C,0,-4.1944370761,-86.1
 922011932,125.7252124545\C,0,-4.5209714347,-85.1399238847,126.80449484
 61\C,0,-3.3800599121,-84.4589637783,127.6009733016\C,0,-2.191417011,-8
 3.8886969795,126.815719735\N,0,-1.1162610189,-84.921873655,126.5493846
 189\O,0,-2.1110601204,-89.2688857683,125.573278115\H,0,-1.1252928505,-
 89.3945432897,125.5186291885\H,0,-2.5837409642,-86.9739231958,127.9277
 311441\H,0,-4.4144515745,-88.3638549275,126.0586797748\H,0,-3.49410930
 05,-85.7693795893,124.996545582\H,0,-5.1154501313,-86.3663690525,125.1
 601746974\H,0,-5.210354294,-85.5739260796,127.5365208192\H,0,-5.078536
 0358,-84.3452604011,126.2937134215\H,0,-3.8299389051,-83.6069420476,12
 8.1236903507\H,0,-2.9942978605,-85.1011168934,128.3994611968\H,0,-2.48
 9311414,-83.4843791563,125.8442283053\H,0,-1.7051451579,-83.0930103137
 ,127.3845613131\H,0,-1.4322611826,-85.66726287,125.8889417574\H,0,-0.8
 238556226,-85.4224470143,127.4176075232\H,0,-0.2778654314,-84.50354356
 11,126.1349785801\\Version=ES64L-G16RevC.01\HF=-1526.31976\RMSD=5.361e
 -09\Dipole=1.7657944,3.0248026,-1.584673\Quadrupole=-28197.034095,-175
 5.2599829,29952.2940779,458.1807878,-680.7288306,-39249.4805667\PG=C01
  [X(C20H31N4O7)]\\@
 The archive entry for this job was punched.


 YOU KNOW YOU'RE A TEACHER WHEN YOU SAY 2, WRITE 3, AND MEAN 4.
 -- RONALD ANSTROM, HIGH SCHOOL TEACHER, UNDERWOOD, N.D. 1974
 Job cpu time:       0 days  0 hours  1 minutes 32.1 seconds.
 Elapsed time:       0 days  0 hours  0 minutes 23.6 seconds.
 File lengths (MBytes):  RWF=    264 Int=      0 D2E=      0 Chk=     40 Scr=     16
 Normal termination of Gaussian 16 at Tue May 24 19:13:21 2022.
