 Entering Gaussian System, Link 0=/opt/software/Gaussian/g16-AVX2-C.01/g16/g16
 Input=charge-conf-428.com
 Output=charge-conf-428.log
 Initial command:
 /opt/software/Gaussian/g16-AVX2-C.01/g16/l1.exe "/mnt/gs18/scratch/users/kengmith/Gau-11591.inp" -scrdir="/mnt/gs18/scratch/users/kengmith/"
 Entering Link 1 = /opt/software/Gaussian/g16-AVX2-C.01/g16/l1.exe PID=     11601.
  
 Copyright (c) 1988-2019, Gaussian, Inc.  All Rights Reserved.
  
 This is part of the Gaussian(R) 16 program.  It is based on
 the Gaussian(R) 09 system (copyright 2009, Gaussian, Inc.),
 the Gaussian(R) 03 system (copyright 2003, Gaussian, Inc.),
 the Gaussian(R) 98 system (copyright 1998, Gaussian, Inc.),
 the Gaussian(R) 94 system (copyright 1995, Gaussian, Inc.),
 the Gaussian 92(TM) system (copyright 1992, Gaussian, Inc.),
 the Gaussian 90(TM) system (copyright 1990, Gaussian, Inc.),
 the Gaussian 88(TM) system (copyright 1988, Gaussian, Inc.),
 the Gaussian 86(TM) system (copyright 1986, Carnegie Mellon
 University), and the Gaussian 82(TM) system (copyright 1983,
 Carnegie Mellon University). Gaussian is a federally registered
 trademark of Gaussian, Inc.
  
 This software contains proprietary and confidential information,
 including trade secrets, belonging to Gaussian, Inc.
  
 This software is provided under written license and may be
 used, copied, transmitted, or stored only in accord with that
 written license.
  
 The following legend is applicable only to US Government
 contracts under FAR:
  
                    RESTRICTED RIGHTS LEGEND
  
 Use, reproduction and disclosure by the US Government is
 subject to restrictions as set forth in subparagraphs (a)
 and (c) of the Commercial Computer Software - Restricted
 Rights clause in FAR 52.227-19.
  
 Gaussian, Inc.
 340 Quinnipiac St., Bldg. 40, Wallingford CT 06492
  
  
 ---------------------------------------------------------------
 Warning -- This program may not be used in any manner that
 competes with the business of Gaussian, Inc. or will provide
 assistance to any competitor of Gaussian, Inc.  The licensee
 of this program is prohibited from giving any competitor of
 Gaussian, Inc. access to this program.  By using this program,
 the user acknowledges that Gaussian, Inc. is engaged in the
 business of creating and licensing software in the field of
 computational chemistry and represents and warrants to the
 licensee that it is not a competitor of Gaussian, Inc. and that
 it will not use this program in any manner prohibited above.
 ---------------------------------------------------------------
  

 Cite this work as:
 Gaussian 16, Revision C.01,
 M. J. Frisch, G. W. Trucks, H. B. Schlegel, G. E. Scuseria, 
 M. A. Robb, J. R. Cheeseman, G. Scalmani, V. Barone, 
 G. A. Petersson, H. Nakatsuji, X. Li, M. Caricato, A. V. Marenich, 
 J. Bloino, B. G. Janesko, R. Gomperts, B. Mennucci, H. P. Hratchian, 
 J. V. Ortiz, A. F. Izmaylov, J. L. Sonnenberg, D. Williams-Young, 
 F. Ding, F. Lipparini, F. Egidi, J. Goings, B. Peng, A. Petrone, 
 T. Henderson, D. Ranasinghe, V. G. Zakrzewski, J. Gao, N. Rega, 
 G. Zheng, W. Liang, M. Hada, M. Ehara, K. Toyota, R. Fukuda, 
 J. Hasegawa, M. Ishida, T. Nakajima, Y. Honda, O. Kitao, H. Nakai, 
 T. Vreven, K. Throssell, J. A. Montgomery, Jr., J. E. Peralta, 
 F. Ogliaro, M. J. Bearpark, J. J. Heyd, E. N. Brothers, K. N. Kudin, 
 V. N. Staroverov, T. A. Keith, R. Kobayashi, J. Normand, 
 K. Raghavachari, A. P. Rendell, J. C. Burant, S. S. Iyengar, 
 J. Tomasi, M. Cossi, J. M. Millam, M. Klene, C. Adamo, R. Cammi, 
 J. W. Ochterski, R. L. Martin, K. Morokuma, O. Farkas, 
 J. B. Foresman, and D. J. Fox, Gaussian, Inc., Wallingford CT, 2019.
 
 ******************************************
 Gaussian 16:  ES64L-G16RevC.01  3-Jul-2019
                24-May-2022 
 ******************************************
 %mem=8gb
 %nproc=4
 Will use up to    4 processors via shared memory.
 %chk=conf-428.chk
 ----------------------------------------------------------------------
 # B3LYP/6-31G* empiricaldispersion=gd3 guess=read geom=check nosymm in
 tegral(ultrafinegrid)
 ----------------------------------------------------------------------
 1/29=2,38=1,172=1/1;
 2/12=2,15=1,40=1/2;
 3/5=1,6=6,7=1,11=2,14=-4,25=1,30=1,74=-5,75=-5,116=-2,124=31/1,2,3;
 4/5=1/1;
 5/5=2,38=6/2;
 6/7=2,8=2,9=2,10=2,28=1/1;
 99/5=1,9=1/99;
 ------------------------------------------------------
 Candidate Structure: Conf:428 Charge calc in gas phase
 ------------------------------------------------------
 Structure from the checkpoint file:  "conf-428.chk"
 Charge =  1 Multiplicity = 1
 Redundant internal coordinates found in file.  (old form).
 N,0,-5.1305209017,-85.980832511,131.8080545078
 C,0,-4.7692622759,-87.3474922958,131.4222595128
 C,0,-3.4982296283,-87.3161139747,130.5581935054
 O,0,-2.758982882,-88.3109220987,130.4740620573
 C,0,-4.642137701,-88.3448930375,132.5962366789
 C,0,-4.709802921,-89.8374834758,132.2126448953
 C,0,-3.4283625865,-90.4800285097,131.7382057344
 O,0,-3.3262340378,-91.2021685065,130.7472123056
 O,0,-2.4223465406,-90.3081740369,132.5896513236
 H,0,-1.632525579,-90.7492213505,132.2233931864
 H,0,-4.5334161128,-85.6528870615,132.5665496409
 H,0,-5.5696506264,-87.7010396487,130.7545457258
 H,0,-5.4814876492,-88.1428290681,133.2708178539
 H,0,-3.7234292722,-88.1499086018,133.1595191589
 H,0,-5.4752162738,-90.0064133854,131.4477488358
 H,0,-5.0134222285,-90.4137646322,133.0967041974
 H,0,-6.0896923313,-85.9392003005,132.1443640713
 N,0,-3.2840076721,-86.164109508,129.902109167
 C,0,-2.1328782696,-85.9222670959,129.0258495965
 C,0,-2.3355462032,-86.7373438667,127.7296238077
 O,0,-2.9299762262,-86.3056962601,126.7487846251
 C,0,-1.9875596828,-84.423518636,128.7261682279
 C,0,-0.6810626154,-84.11139607,128.0278763644
 C,0,0.4737994369,-83.8409814527,128.7704473055
 C,0,-0.5825592349,-84.1230640357,126.6281645157
 C,0,1.6938046127,-83.5877159409,128.1450112505
 C,0,0.6273404264,-83.8720364262,125.9901463387
 C,0,1.7734494683,-83.6026736763,126.747709432
 O,0,2.9299918156,-83.3635957574,126.0656044386
 H,0,-3.965545608,-85.4275098501,130.0655741493
 H,0,-1.2370121702,-86.2837482961,129.5429081603
 H,0,-2.8391689968,-84.1141517085,128.1104535105
 H,0,-2.0459994803,-83.8824204936,129.6785807955
 H,0,0.4232238383,-83.8163322386,129.8572946909
 H,0,-1.4660450681,-84.3404243799,126.0359548547
 H,0,2.578955082,-83.3704986701,128.7395905553
 H,0,0.7050385333,-83.8726779516,124.9077294863
 H,0,3.6415193564,-83.160306282,126.6925866865
 N,0,-1.8467646713,-88.0068948075,127.7999646119
 C,0,-2.1575666563,-88.9913892006,126.7739421976
 C,0,-3.594689551,-88.8144451936,126.2737103506
 O,0,-4.587294407,-88.9636780242,126.981837596
 C,0,-2.0047688914,-90.3852184558,127.4153132568
 C,0,-2.5191686873,-91.5772836966,126.576078666
 C,0,-3.2273633225,-92.650208472,127.4275258228
 C,0,-4.7106874547,-92.3962147335,127.7110027474
 N,0,-4.9694916264,-91.1780134857,128.5680232259
 O,0,-3.672399885,-88.6097090271,124.9645308386
 H,0,-4.612738198,-88.4929299838,124.7256979073
 H,0,-1.6954266301,-88.356487496,128.743450498
 H,0,-1.4915197452,-88.8693885694,125.9144782011
 H,0,-0.9458628549,-90.5287068105,127.6557208824
 H,0,-2.5152917186,-90.3479915186,128.3834720812
 H,0,-1.67810178,-92.041352666,126.0521758233
 H,0,-3.2023896139,-91.2433858691,125.783780987
 H,0,-3.1974694723,-93.6119375424,126.9021781545
 H,0,-2.6943669834,-92.7989381458,128.3751098556
 H,0,-5.269164367,-92.2463206146,126.7824033176
 H,0,-5.1456708547,-93.2456969303,128.2438039124
 H,0,-5.9611772735,-91.1249084371,128.8153761027
 H,0,-4.7395790781,-90.289841109,128.0607560399
 H,0,-4.4064927818,-91.2031264792,129.4601307332
 Recover connectivity data from disk.
                           ----------------------------
                           !    Current Parameters    !
                           ! (Angstroms and Degrees)  !
 --------------------------                            --------------------------
 ! Name  Definition              Value                                          !
 --------------------------------------------------------------------------------
 ! R1    R(1,2)                  1.4653                                         !
 ! R2    R(1,11)                 1.0195                                         !
 ! R3    R(1,17)                 1.0173                                         !
 ! R4    R(2,3)                  1.5372                                         !
 ! R5    R(2,5)                  1.5457                                         !
 ! R6    R(2,12)                 1.1007                                         !
 ! R7    R(3,4)                  1.2423                                         !
 ! R8    R(3,18)                 1.3429                                         !
 ! R9    R(5,6)                  1.5426                                         !
 ! R10   R(5,13)                 1.0956                                         !
 ! R11   R(5,14)                 1.0951                                         !
 ! R12   R(6,7)                  1.51                                           !
 ! R13   R(6,15)                 1.0952                                         !
 ! R14   R(6,16)                 1.0981                                         !
 ! R15   R(7,8)                  1.2304                                         !
 ! R16   R(7,9)                  1.3291                                         !
 ! R17   R(9,10)                 0.976                                          !
 ! R18   R(18,19)                1.4668                                         !
 ! R19   R(18,30)                1.0168                                         !
 ! R20   R(19,20)                1.5445                                         !
 ! R21   R(19,22)                1.5353                                         !
 ! R22   R(19,31)                1.0957                                         !
 ! R23   R(20,21)                1.2254                                         !
 ! R24   R(20,39)                1.3622                                         !
 ! R25   R(22,23)                1.5139                                         !
 ! R26   R(22,32)                1.0955                                         !
 ! R27   R(22,33)                1.0969                                         !
 ! R28   R(23,24)                1.3994                                         !
 ! R29   R(23,25)                1.4032                                         !
 ! R30   R(24,26)                1.3942                                         !
 ! R31   R(24,34)                1.0883                                         !
 ! R32   R(25,27)                1.3907                                         !
 ! R33   R(25,35)                1.0856                                         !
 ! R34   R(26,28)                1.3996                                         !
 ! R35   R(26,36)                1.0882                                         !
 ! R36   R(27,28)                1.4                                            !
 ! R37   R(27,37)                1.0852                                         !
 ! R38   R(28,29)                1.3638                                         !
 ! R39   R(29,38)                0.9699                                         !
 ! R40   R(39,40)                1.4555                                         !
 ! R41   R(39,50)                1.0175                                         !
 ! R42   R(40,41)                1.5319                                         !
 ! R43   R(40,43)                1.5419                                         !
 ! R44   R(40,51)                1.0942                                         !
 ! R45   R(41,42)                1.2284                                         !
 ! R46   R(41,48)                1.3274                                         !
 ! R47   R(43,44)                1.5459                                         !
 ! R48   R(43,52)                1.0953                                         !
 ! R49   R(43,53)                1.0951                                         !
 ! R50   R(44,45)                1.542                                          !
 ! R51   R(44,54)                1.0942                                         !
 ! R52   R(44,55)                1.0982                                         !
 ! R53   R(45,46)                1.5314                                         !
 ! R54   R(45,56)                1.0963                                         !
 ! R55   R(45,57)                1.0973                                         !
 ! R56   R(46,47)                1.5118                                         !
 ! R57   R(46,58)                1.0939                                         !
 ! R58   R(46,59)                1.093                                          !
 ! R59   R(47,60)                1.0234                                         !
 ! R60   R(47,61)                1.0483                                         !
 ! R61   R(47,62)                1.0552                                         !
 ! R62   R(48,49)                0.9772                                         !
 ! A1    A(2,1,11)             110.5792                                         !
 ! A2    A(2,1,17)             110.9574                                         !
 ! A3    A(11,1,17)            107.0439                                         !
 ! A4    A(1,2,3)              109.4388                                         !
 ! A5    A(1,2,5)              114.9699                                         !
 ! A6    A(1,2,12)             106.262                                          !
 ! A7    A(3,2,5)              111.8441                                         !
 ! A8    A(3,2,12)             105.4754                                         !
 ! A9    A(5,2,12)             108.2577                                         !
 ! A10   A(2,3,4)              120.914                                          !
 ! A11   A(2,3,18)             115.0881                                         !
 ! A12   A(4,3,18)             123.9827                                         !
 ! A13   A(2,5,6)              115.5875                                         !
 ! A14   A(2,5,13)             106.596                                          !
 ! A15   A(2,5,14)             110.1671                                         !
 ! A16   A(6,5,13)             107.3347                                         !
 ! A17   A(6,5,14)             109.6928                                         !
 ! A18   A(13,5,14)            107.0466                                         !
 ! A19   A(5,6,7)              116.9137                                         !
 ! A20   A(5,6,15)             110.7062                                         !
 ! A21   A(5,6,16)             108.6459                                         !
 ! A22   A(7,6,15)             107.9402                                         !
 ! A23   A(7,6,16)             105.3244                                         !
 ! A24   A(15,6,16)            106.7435                                         !
 ! A25   A(6,7,8)              124.9764                                         !
 ! A26   A(6,7,9)              112.7084                                         !
 ! A27   A(8,7,9)              121.9383                                         !
 ! A28   A(7,9,10)             108.2828                                         !
 ! A29   A(3,18,19)            123.9517                                         !
 ! A30   A(3,18,30)            115.8486                                         !
 ! A31   A(19,18,30)           120.1759                                         !
 ! A32   A(18,19,20)           108.142                                          !
 ! A33   A(18,19,22)           110.6003                                         !
 ! A34   A(18,19,31)           107.7796                                         !
 ! A35   A(20,19,22)           111.331                                          !
 ! A36   A(20,19,31)           109.2209                                         !
 ! A37   A(22,19,31)           109.6802                                         !
 ! A38   A(19,20,21)           123.3315                                         !
 ! A39   A(19,20,39)           113.6657                                         !
 ! A40   A(21,20,39)           122.9332                                         !
 ! A41   A(19,22,23)           111.8991                                         !
 ! A42   A(19,22,32)           108.1683                                         !
 ! A43   A(19,22,33)           107.8793                                         !
 ! A44   A(23,22,32)           110.6961                                         !
 ! A45   A(23,22,33)           110.1665                                         !
 ! A46   A(32,22,33)           107.8954                                         !
 ! A47   A(22,23,24)           120.4828                                         !
 ! A48   A(22,23,25)           121.2624                                         !
 ! A49   A(24,23,25)           118.2287                                         !
 ! A50   A(23,24,26)           121.2803                                         !
 ! A51   A(23,24,34)           119.7331                                         !
 ! A52   A(26,24,34)           118.9835                                         !
 ! A53   A(23,25,27)           121.1454                                         !
 ! A54   A(23,25,35)           119.2545                                         !
 ! A55   A(27,25,35)           119.598                                          !
 ! A56   A(24,26,28)           119.7164                                         !
 ! A57   A(24,26,36)           120.1944                                         !
 ! A58   A(28,26,36)           120.087                                          !
 ! A59   A(25,27,28)           119.9146                                         !
 ! A60   A(25,27,37)           121.3185                                         !
 ! A61   A(28,27,37)           118.7654                                         !
 ! A62   A(26,28,27)           119.7145                                         !
 ! A63   A(26,28,29)           123.0714                                         !
 ! A64   A(27,28,29)           117.2141                                         !
 ! A65   A(28,29,38)           109.6055                                         !
 ! A66   A(20,39,40)           121.1552                                         !
 ! A67   A(20,39,50)           114.927                                          !
 ! A68   A(40,39,50)           116.9371                                         !
 ! A69   A(39,40,41)           110.6323                                         !
 ! A70   A(39,40,43)           107.2806                                         !
 ! A71   A(39,40,51)           110.3841                                         !
 ! A72   A(41,40,43)           109.463                                          !
 ! A73   A(41,40,51)           107.5585                                         !
 ! A74   A(43,40,51)           111.5436                                         !
 ! A75   A(40,41,42)           123.7632                                         !
 ! A76   A(40,41,48)           113.2532                                         !
 ! A77   A(42,41,48)           122.6832                                         !
 ! A78   A(40,43,44)           115.9928                                         !
 ! A79   A(40,43,52)           107.79                                           !
 ! A80   A(40,43,53)           106.9061                                         !
 ! A81   A(44,43,52)           109.8662                                         !
 ! A82   A(44,43,53)           110.5492                                         !
 ! A83   A(52,43,53)           105.135                                          !
 ! A84   A(43,44,45)           112.9296                                         !
 ! A85   A(43,44,54)           109.3415                                         !
 ! A86   A(43,44,55)           111.3594                                         !
 ! A87   A(45,44,54)           108.8029                                         !
 ! A88   A(45,44,55)           108.9172                                         !
 ! A89   A(54,44,55)           105.1728                                         !
 ! A90   A(44,45,46)           115.5739                                         !
 ! A91   A(44,45,56)           109.4682                                         !
 ! A92   A(44,45,57)           110.3686                                         !
 ! A93   A(46,45,56)           105.1072                                         !
 ! A94   A(46,45,57)           109.4576                                         !
 ! A95   A(56,45,57)           106.36                                           !
 ! A96   A(45,46,47)           113.8541                                         !
 ! A97   A(45,46,58)           111.1062                                         !
 ! A98   A(45,46,59)           110.292                                          !
 ! A99   A(47,46,58)           106.4637                                         !
 ! A100  A(47,46,59)           106.3674                                         !
 ! A101  A(58,46,59)           108.4882                                         !
 ! A102  A(46,47,60)           110.1636                                         !
 ! A103  A(46,47,61)           111.7674                                         !
 ! A104  A(46,47,62)           111.639                                          !
 ! A105  A(60,47,61)           106.5881                                         !
 ! A106  A(60,47,62)           108.2939                                         !
 ! A107  A(61,47,62)           108.194                                          !
 ! A108  A(41,48,49)           108.4107                                         !
 ! D1    D(11,1,2,3)           -77.597                                          !
 ! D2    D(11,1,2,5)            49.2442                                         !
 ! D3    D(11,1,2,12)          168.9689                                         !
 ! D4    D(17,1,2,3)           163.7785                                         !
 ! D5    D(17,1,2,5)           -69.3802                                         !
 ! D6    D(17,1,2,12)           50.3445                                         !
 ! D7    D(1,2,3,4)            156.2406                                         !
 ! D8    D(1,2,3,18)           -25.1231                                         !
 ! D9    D(5,2,3,4)             27.6493                                         !
 ! D10   D(5,2,3,18)          -153.7144                                         !
 ! D11   D(12,2,3,4)           -89.8157                                         !
 ! D12   D(12,2,3,18)           88.8205                                         !
 ! D13   D(1,2,5,6)            161.3735                                         !
 ! D14   D(1,2,5,13)            42.2019                                         !
 ! D15   D(1,2,5,14)           -73.6045                                         !
 ! D16   D(3,2,5,6)            -73.0223                                         !
 ! D17   D(3,2,5,13)           167.8061                                         !
 ! D18   D(3,2,5,14)            51.9997                                         !
 ! D19   D(12,2,5,6)            42.7598                                         !
 ! D20   D(12,2,5,13)          -76.4118                                         !
 ! D21   D(12,2,5,14)          167.7818                                         !
 ! D22   D(2,3,18,19)          179.9523                                         !
 ! D23   D(2,3,18,30)            1.7345                                         !
 ! D24   D(4,3,18,19)           -1.4587                                         !
 ! D25   D(4,3,18,30)         -179.6765                                         !
 ! D26   D(2,5,6,7)             83.5924                                         !
 ! D27   D(2,5,6,15)           -40.5446                                         !
 ! D28   D(2,5,6,16)          -157.4545                                         !
 ! D29   D(13,5,6,7)          -157.6431                                         !
 ! D30   D(13,5,6,15)           78.2198                                         !
 ! D31   D(13,5,6,16)          -38.69                                           !
 ! D32   D(14,5,6,7)           -41.6739                                         !
 ! D33   D(14,5,6,15)         -165.811                                          !
 ! D34   D(14,5,6,16)           77.2792                                         !
 ! D35   D(5,6,7,8)           -133.7273                                         !
 ! D36   D(5,6,7,9)             53.2335                                         !
 ! D37   D(15,6,7,8)            -8.1963                                         !
 ! D38   D(15,6,7,9)           178.7645                                         !
 ! D39   D(16,6,7,8)           105.5504                                         !
 ! D40   D(16,6,7,9)           -67.4888                                         !
 ! D41   D(6,7,9,10)           179.7793                                         !
 ! D42   D(8,7,9,10)             6.4992                                         !
 ! D43   D(3,18,19,20)          72.4636                                         !
 ! D44   D(3,18,19,22)        -165.3894                                         !
 ! D45   D(3,18,19,31)         -45.4982                                         !
 ! D46   D(30,18,19,20)       -109.3918                                         !
 ! D47   D(30,18,19,22)         12.7552                                         !
 ! D48   D(30,18,19,31)        132.6465                                         !
 ! D49   D(18,19,20,21)         88.8783                                         !
 ! D50   D(18,19,20,39)        -88.1631                                         !
 ! D51   D(22,19,20,21)        -32.8193                                         !
 ! D52   D(22,19,20,39)        150.1393                                         !
 ! D53   D(31,19,20,21)       -154.0864                                         !
 ! D54   D(31,19,20,39)         28.8721                                         !
 ! D55   D(18,19,22,23)        170.1043                                         !
 ! D56   D(18,19,22,32)        -67.7009                                         !
 ! D57   D(18,19,22,33)         48.7659                                         !
 ! D58   D(20,19,22,23)        -69.638                                          !
 ! D59   D(20,19,22,32)         52.5568                                         !
 ! D60   D(20,19,22,33)        169.0236                                         !
 ! D61   D(31,19,22,23)         51.3606                                         !
 ! D62   D(31,19,22,32)        173.5554                                         !
 ! D63   D(31,19,22,33)        -69.9778                                         !
 ! D64   D(19,20,39,40)        168.7996                                         !
 ! D65   D(19,20,39,50)         18.9498                                         !
 ! D66   D(21,20,39,40)         -8.2552                                         !
 ! D67   D(21,20,39,50)       -158.1051                                         !
 ! D68   D(19,22,23,24)        -88.1345                                         !
 ! D69   D(19,22,23,25)         89.9765                                         !
 ! D70   D(32,22,23,24)        151.128                                          !
 ! D71   D(32,22,23,25)        -30.761                                          !
 ! D72   D(33,22,23,24)         31.8742                                         !
 ! D73   D(33,22,23,25)       -150.0147                                         !
 ! D74   D(22,23,24,26)        178.2175                                         !
 ! D75   D(22,23,24,34)         -2.4199                                         !
 ! D76   D(25,23,24,26)          0.0502                                         !
 ! D77   D(25,23,24,34)        179.4127                                         !
 ! D78   D(22,23,25,27)       -178.2154                                         !
 ! D79   D(22,23,25,35)          1.2618                                         !
 ! D80   D(24,23,25,27)         -0.0631                                         !
 ! D81   D(24,23,25,35)        179.4141                                         !
 ! D82   D(23,24,26,28)         -0.0146                                         !
 ! D83   D(23,24,26,36)        179.4425                                         !
 ! D84   D(34,24,26,28)       -179.3818                                         !
 ! D85   D(34,24,26,36)          0.0752                                         !
 ! D86   D(23,25,27,28)          0.0402                                         !
 ! D87   D(23,25,27,37)       -179.5145                                         !
 ! D88   D(35,25,27,28)       -179.4352                                         !
 ! D89   D(35,25,27,37)          1.0101                                         !
 ! D90   D(24,26,28,27)         -0.0097                                         !
 ! D91   D(24,26,28,29)        179.9482                                         !
 ! D92   D(36,26,28,27)       -179.4673                                         !
 ! D93   D(36,26,28,29)          0.4906                                         !
 ! D94   D(25,27,28,26)         -0.003                                          !
 ! D95   D(25,27,28,29)       -179.9633                                         !
 ! D96   D(37,27,28,26)        179.563                                          !
 ! D97   D(37,27,28,29)         -0.3973                                         !
 ! D98   D(26,28,29,38)         -1.9503                                         !
 ! D99   D(27,28,29,38)        178.0085                                         !
 ! D100  D(20,39,40,41)        -36.5456                                         !
 ! D101  D(20,39,40,43)       -155.8861                                         !
 ! D102  D(20,39,40,51)         82.3881                                         !
 ! D103  D(50,39,40,41)        112.7298                                         !
 ! D104  D(50,39,40,43)         -6.6106                                         !
 ! D105  D(50,39,40,51)       -128.3365                                         !
 ! D106  D(39,40,41,42)        -63.4733                                         !
 ! D107  D(39,40,41,48)        122.6839                                         !
 ! D108  D(43,40,41,42)         54.542                                          !
 ! D109  D(43,40,41,48)       -119.3008                                         !
 ! D110  D(51,40,41,42)        175.8956                                         !
 ! D111  D(51,40,41,48)          2.0527                                         !
 ! D112  D(39,40,43,44)        169.9451                                         !
 ! D113  D(39,40,43,52)        -66.4473                                         !
 ! D114  D(39,40,43,53)         46.1416                                         !
 ! D115  D(41,40,43,44)         49.857                                          !
 ! D116  D(41,40,43,52)        173.4646                                         !
 ! D117  D(41,40,43,53)        -73.9465                                         !
 ! D118  D(51,40,43,44)        -69.058                                          !
 ! D119  D(51,40,43,52)         54.5496                                         !
 ! D120  D(51,40,43,53)        167.1385                                         !
 ! D121  D(40,41,48,49)       -179.1181                                         !
 ! D122  D(42,41,48,49)          6.9632                                         !
 ! D123  D(40,43,44,45)       -140.8989                                         !
 ! D124  D(40,43,44,54)         97.8102                                         !
 ! D125  D(40,43,44,55)        -17.9824                                         !
 ! D126  D(52,43,44,45)         96.5811                                         !
 ! D127  D(52,43,44,54)        -24.7099                                         !
 ! D128  D(52,43,44,55)       -140.5025                                         !
 ! D129  D(53,43,44,45)        -19.0089                                         !
 ! D130  D(53,43,44,54)       -140.2999                                         !
 ! D131  D(53,43,44,55)        103.9075                                         !
 ! D132  D(43,44,45,46)         84.8713                                         !
 ! D133  D(43,44,45,56)       -156.7289                                         !
 ! D134  D(43,44,45,57)        -39.9903                                         !
 ! D135  D(54,44,45,46)       -153.5332                                         !
 ! D136  D(54,44,45,56)        -35.1334                                         !
 ! D137  D(54,44,45,57)         81.6052                                         !
 ! D138  D(55,44,45,46)        -39.3937                                         !
 ! D139  D(55,44,45,56)         79.0061                                         !
 ! D140  D(55,44,45,57)       -164.2553                                         !
 ! D141  D(44,45,46,47)        -65.3855                                         !
 ! D142  D(44,45,46,58)         54.8026                                         !
 ! D143  D(44,45,46,59)        175.1423                                         !
 ! D144  D(56,45,46,47)        173.8242                                         !
 ! D145  D(56,45,46,58)        -65.9877                                         !
 ! D146  D(56,45,46,59)         54.352                                          !
 ! D147  D(57,45,46,47)         59.9457                                         !
 ! D148  D(57,45,46,58)       -179.8662                                         !
 ! D149  D(57,45,46,59)        -59.5265                                         !
 ! D150  D(45,46,47,60)       -173.2101                                         !
 ! D151  D(45,46,47,61)         68.4886                                         !
 ! D152  D(45,46,47,62)        -52.8512                                         !
 ! D153  D(58,46,47,60)         64.0218                                         !
 ! D154  D(58,46,47,61)        -54.2795                                         !
 ! D155  D(58,46,47,62)       -175.6193                                         !
 ! D156  D(59,46,47,60)        -51.5365                                         !
 ! D157  D(59,46,47,61)       -169.8378                                         !
 ! D158  D(59,46,47,62)         68.8224                                         !
 --------------------------------------------------------------------------------
 Symmetry turned off by external request.
 Stoichiometry    C20H31N4O7(1+)
 Framework group  C1[X(C20H31N4O7)]
 Deg. of freedom   180
 Full point group                 C1      NOp   1
                          Input orientation:                          
 ---------------------------------------------------------------------
 Center     Atomic      Atomic             Coordinates (Angstroms)
 Number     Number       Type             X           Y           Z
 ---------------------------------------------------------------------
      1          7           0       -5.130521  -85.980833  131.808055
      2          6           0       -4.769262  -87.347492  131.422260
      3          6           0       -3.498230  -87.316114  130.558194
      4          8           0       -2.758983  -88.310922  130.474062
      5          6           0       -4.642138  -88.344893  132.596237
      6          6           0       -4.709803  -89.837483  132.212645
      7          6           0       -3.428363  -90.480029  131.738206
      8          8           0       -3.326234  -91.202169  130.747212
      9          8           0       -2.422347  -90.308174  132.589651
     10          1           0       -1.632526  -90.749221  132.223393
     11          1           0       -4.533416  -85.652887  132.566550
     12          1           0       -5.569651  -87.701040  130.754546
     13          1           0       -5.481488  -88.142829  133.270818
     14          1           0       -3.723429  -88.149909  133.159519
     15          1           0       -5.475216  -90.006413  131.447749
     16          1           0       -5.013422  -90.413765  133.096704
     17          1           0       -6.089692  -85.939200  132.144364
     18          7           0       -3.284008  -86.164110  129.902109
     19          6           0       -2.132878  -85.922267  129.025850
     20          6           0       -2.335546  -86.737344  127.729624
     21          8           0       -2.929976  -86.305696  126.748785
     22          6           0       -1.987560  -84.423519  128.726168
     23          6           0       -0.681063  -84.111396  128.027876
     24          6           0        0.473799  -83.840981  128.770447
     25          6           0       -0.582559  -84.123064  126.628165
     26          6           0        1.693805  -83.587716  128.145011
     27          6           0        0.627340  -83.872036  125.990146
     28          6           0        1.773449  -83.602674  126.747709
     29          8           0        2.929992  -83.363596  126.065604
     30          1           0       -3.965546  -85.427510  130.065574
     31          1           0       -1.237012  -86.283748  129.542908
     32          1           0       -2.839169  -84.114152  128.110454
     33          1           0       -2.045999  -83.882420  129.678581
     34          1           0        0.423224  -83.816332  129.857295
     35          1           0       -1.466045  -84.340424  126.035955
     36          1           0        2.578955  -83.370499  128.739591
     37          1           0        0.705039  -83.872678  124.907729
     38          1           0        3.641519  -83.160306  126.692587
     39          7           0       -1.846765  -88.006895  127.799965
     40          6           0       -2.157567  -88.991389  126.773942
     41          6           0       -3.594690  -88.814445  126.273710
     42          8           0       -4.587294  -88.963678  126.981838
     43          6           0       -2.004769  -90.385218  127.415313
     44          6           0       -2.519169  -91.577284  126.576079
     45          6           0       -3.227363  -92.650208  127.427526
     46          6           0       -4.710687  -92.396215  127.711003
     47          7           0       -4.969492  -91.178013  128.568023
     48          8           0       -3.672400  -88.609709  124.964531
     49          1           0       -4.612738  -88.492930  124.725698
     50          1           0       -1.695427  -88.356487  128.743450
     51          1           0       -1.491520  -88.869389  125.914478
     52          1           0       -0.945863  -90.528707  127.655721
     53          1           0       -2.515292  -90.347992  128.383472
     54          1           0       -1.678102  -92.041353  126.052176
     55          1           0       -3.202390  -91.243386  125.783781
     56          1           0       -3.197469  -93.611938  126.902178
     57          1           0       -2.694367  -92.798938  128.375110
     58          1           0       -5.269164  -92.246321  126.782403
     59          1           0       -5.145671  -93.245697  128.243804
     60          1           0       -5.961177  -91.124908  128.815376
     61          1           0       -4.739579  -90.289841  128.060756
     62          1           0       -4.406493  -91.203126  129.460131
 ---------------------------------------------------------------------
 Rotational constants (GHZ):           0.1899562           0.0890733           0.0721300
 Standard basis: 6-31G(d) (6D, 7F)
   527 basis functions,   992 primitive gaussians,   527 cartesian basis functions
   117 alpha electrons      117 beta electrons
       nuclear repulsion energy      3378.4149454416 Hartrees.
 NAtoms=   62 NActive=   62 NUniq=   62 SFac= 1.00D+00 NAtFMM=   60 NAOKFM=T Big=T
 Integral buffers will be    131072 words long.
 Raffenetti 2 integral format.
 Two-electron integral symmetry is turned off.
 Nuclear repulsion after empirical dispersion term =     3378.3345338182 Hartrees.
 One-electron integrals computed using PRISM.
 NBasis=   527 RedAO= T EigKep=  4.32D-04  NBF=   527
 NBsUse=   527 1.00D-06 EigRej= -1.00D+00 NBFU=   527
 Initial guess from the checkpoint file:  "conf-428.chk"
 B after Tr=     0.000000    0.000000    0.000000
         Rot=    1.000000    0.000000    0.000000    0.000000 Ang=   0.00 deg.
 Requested convergence on RMS density matrix=1.00D-08 within 128 cycles.
 Requested convergence on MAX density matrix=1.00D-06.
 Requested convergence on             energy=1.00D-06.
 No special actions if energy rises.
 SCF Done:  E(RB3LYP) =  -1526.31972222     A.U. after    1 cycles
            NFock=  1  Conv=0.74D-08     -V/T= 2.0093

 **********************************************************************

            Population analysis using the SCF Density.

 **********************************************************************

 Alpha  occ. eigenvalues --  -19.31448 -19.31375 -19.26910 -19.26514 -19.23636
 Alpha  occ. eigenvalues --  -19.23107 -19.21491 -14.55489 -14.46558 -14.45438
 Alpha  occ. eigenvalues --  -14.43561 -10.45114 -10.44476 -10.39598 -10.38107
 Alpha  occ. eigenvalues --  -10.37434 -10.34722 -10.34089 -10.32912 -10.32229
 Alpha  occ. eigenvalues --  -10.31765 -10.30994 -10.30862 -10.30732 -10.30667
 Alpha  occ. eigenvalues --  -10.27408 -10.25653 -10.25599 -10.25132 -10.24937
 Alpha  occ. eigenvalues --  -10.24363  -1.23018  -1.22809  -1.14673  -1.13927
 Alpha  occ. eigenvalues --   -1.13759  -1.13132  -1.11734  -1.10641  -1.03510
 Alpha  occ. eigenvalues --   -1.02728  -1.00192  -0.92937  -0.91820  -0.91033
 Alpha  occ. eigenvalues --   -0.89016  -0.86932  -0.83212  -0.82664  -0.80861
 Alpha  occ. eigenvalues --   -0.80124  -0.77679  -0.75756  -0.74774  -0.72477
 Alpha  occ. eigenvalues --   -0.72321  -0.70587  -0.69988  -0.68838  -0.68744
 Alpha  occ. eigenvalues --   -0.68199  -0.66621  -0.65086  -0.63744  -0.63207
 Alpha  occ. eigenvalues --   -0.63023  -0.61781  -0.61069  -0.60431  -0.60213
 Alpha  occ. eigenvalues --   -0.59740  -0.59224  -0.58961  -0.57956  -0.57607
 Alpha  occ. eigenvalues --   -0.57378  -0.56151  -0.55412  -0.54757  -0.54624
 Alpha  occ. eigenvalues --   -0.53345  -0.53089  -0.52724  -0.52331  -0.52085
 Alpha  occ. eigenvalues --   -0.51122  -0.50554  -0.50155  -0.50071  -0.49766
 Alpha  occ. eigenvalues --   -0.48988  -0.48742  -0.48244  -0.47928  -0.47303
 Alpha  occ. eigenvalues --   -0.47023  -0.46409  -0.46314  -0.46180  -0.45404
 Alpha  occ. eigenvalues --   -0.45388  -0.45035  -0.43820  -0.43634  -0.43510
 Alpha  occ. eigenvalues --   -0.41969  -0.40760  -0.40606  -0.39701  -0.38910
 Alpha  occ. eigenvalues --   -0.38036  -0.37758  -0.35743  -0.35246  -0.33949
 Alpha  occ. eigenvalues --   -0.31266  -0.27926
 Alpha virt. eigenvalues --   -0.11753  -0.11236  -0.09531  -0.08309  -0.07449
 Alpha virt. eigenvalues --   -0.06205  -0.05233  -0.03647  -0.02894  -0.02344
 Alpha virt. eigenvalues --   -0.01877  -0.00765  -0.00163   0.00200   0.00935
 Alpha virt. eigenvalues --    0.01339   0.01919   0.02061   0.02621   0.02994
 Alpha virt. eigenvalues --    0.03497   0.03559   0.03976   0.04462   0.04937
 Alpha virt. eigenvalues --    0.05453   0.05519   0.06171   0.06412   0.06668
 Alpha virt. eigenvalues --    0.07234   0.07554   0.08074   0.09020   0.09811
 Alpha virt. eigenvalues --    0.09974   0.10288   0.10815   0.10900   0.11365
 Alpha virt. eigenvalues --    0.11682   0.12582   0.12947   0.13410   0.14070
 Alpha virt. eigenvalues --    0.14915   0.15217   0.15387   0.15993   0.16507
 Alpha virt. eigenvalues --    0.17190   0.17764   0.18435   0.19603   0.19962
 Alpha virt. eigenvalues --    0.21718   0.23823   0.24585   0.24719   0.25177
 Alpha virt. eigenvalues --    0.27133   0.27586   0.28466   0.29129   0.29995
 Alpha virt. eigenvalues --    0.31269   0.32692   0.36218   0.38666   0.38863
 Alpha virt. eigenvalues --    0.39949   0.40591   0.41487   0.42402   0.42497
 Alpha virt. eigenvalues --    0.43135   0.43848   0.44410   0.44981   0.45272
 Alpha virt. eigenvalues --    0.46311   0.46547   0.46597   0.46885   0.47558
 Alpha virt. eigenvalues --    0.48352   0.48498   0.49038   0.50004   0.51122
 Alpha virt. eigenvalues --    0.51235   0.51600   0.52212   0.52464   0.53068
 Alpha virt. eigenvalues --    0.53121   0.53402   0.53982   0.54707   0.55027
 Alpha virt. eigenvalues --    0.55476   0.55507   0.56068   0.56537   0.57268
 Alpha virt. eigenvalues --    0.57781   0.58157   0.59037   0.59478   0.59917
 Alpha virt. eigenvalues --    0.60087   0.60273   0.61037   0.61803   0.63301
 Alpha virt. eigenvalues --    0.64523   0.64886   0.65434   0.65909   0.67097
 Alpha virt. eigenvalues --    0.67656   0.68460   0.68654   0.69350   0.69618
 Alpha virt. eigenvalues --    0.69955   0.71336   0.71580   0.72013   0.72260
 Alpha virt. eigenvalues --    0.73265   0.73691   0.73949   0.74636   0.74803
 Alpha virt. eigenvalues --    0.75530   0.75901   0.76239   0.76503   0.77208
 Alpha virt. eigenvalues --    0.77634   0.78393   0.78862   0.79204   0.79532
 Alpha virt. eigenvalues --    0.79935   0.80201   0.81002   0.81289   0.81838
 Alpha virt. eigenvalues --    0.82374   0.82802   0.83172   0.83265   0.83963
 Alpha virt. eigenvalues --    0.84262   0.84617   0.85415   0.85489   0.86227
 Alpha virt. eigenvalues --    0.87757   0.87789   0.87902   0.88775   0.89677
 Alpha virt. eigenvalues --    0.90546   0.90602   0.90919   0.92047   0.92508
 Alpha virt. eigenvalues --    0.92817   0.93784   0.94483   0.94587   0.95595
 Alpha virt. eigenvalues --    0.95815   0.96279   0.97602   0.99134   0.99484
 Alpha virt. eigenvalues --    1.00727   1.02107   1.02923   1.03369   1.04565
 Alpha virt. eigenvalues --    1.06180   1.07867   1.08842   1.10104   1.10659
 Alpha virt. eigenvalues --    1.12627   1.13628   1.14266   1.15141   1.15682
 Alpha virt. eigenvalues --    1.18186   1.18759   1.19323   1.20348   1.21409
 Alpha virt. eigenvalues --    1.22124   1.24400   1.24905   1.25669   1.25904
 Alpha virt. eigenvalues --    1.27306   1.28952   1.29878   1.30510   1.31121
 Alpha virt. eigenvalues --    1.32029   1.33458   1.34261   1.34735   1.36595
 Alpha virt. eigenvalues --    1.37170   1.38205   1.38379   1.38554   1.39278
 Alpha virt. eigenvalues --    1.40375   1.40787   1.42500   1.44243   1.45200
 Alpha virt. eigenvalues --    1.45341   1.47561   1.49888   1.50525   1.50921
 Alpha virt. eigenvalues --    1.51410   1.53841   1.55005   1.56101   1.56695
 Alpha virt. eigenvalues --    1.58211   1.58947   1.59707   1.60114   1.61551
 Alpha virt. eigenvalues --    1.62490   1.63194   1.64182   1.65419   1.65919
 Alpha virt. eigenvalues --    1.66608   1.67579   1.67697   1.68337   1.68720
 Alpha virt. eigenvalues --    1.69289   1.70110   1.70796   1.71275   1.71911
 Alpha virt. eigenvalues --    1.72973   1.73307   1.74029   1.75247   1.75632
 Alpha virt. eigenvalues --    1.76043   1.76527   1.77388   1.77939   1.78789
 Alpha virt. eigenvalues --    1.79784   1.80499   1.81427   1.81914   1.82844
 Alpha virt. eigenvalues --    1.83297   1.84438   1.85734   1.86922   1.87028
 Alpha virt. eigenvalues --    1.87467   1.88062   1.88219   1.88421   1.89225
 Alpha virt. eigenvalues --    1.90337   1.90655   1.91252   1.91765   1.92528
 Alpha virt. eigenvalues --    1.93221   1.94262   1.94945   1.95441   1.96595
 Alpha virt. eigenvalues --    1.96773   1.97315   1.99788   2.00162   2.00528
 Alpha virt. eigenvalues --    2.01282   2.03008   2.04844   2.06791   2.07692
 Alpha virt. eigenvalues --    2.08180   2.08959   2.10323   2.10878   2.14112
 Alpha virt. eigenvalues --    2.15109   2.16429   2.16960   2.17484   2.18278
 Alpha virt. eigenvalues --    2.20060   2.20151   2.21569   2.21953   2.23213
 Alpha virt. eigenvalues --    2.23388   2.25385   2.25775   2.26546   2.27043
 Alpha virt. eigenvalues --    2.27917   2.29063   2.29695   2.30569   2.30842
 Alpha virt. eigenvalues --    2.32047   2.33129   2.34266   2.35023   2.35694
 Alpha virt. eigenvalues --    2.36980   2.39186   2.39498   2.41455   2.42472
 Alpha virt. eigenvalues --    2.43482   2.44112   2.46253   2.47318   2.47680
 Alpha virt. eigenvalues --    2.49353   2.50455   2.51518   2.53091   2.54078
 Alpha virt. eigenvalues --    2.55039   2.55536   2.56334   2.58030   2.58677
 Alpha virt. eigenvalues --    2.59654   2.59897   2.60857   2.61277   2.62926
 Alpha virt. eigenvalues --    2.66713   2.67159   2.68933   2.70066   2.71845
 Alpha virt. eigenvalues --    2.72591   2.73156   2.75778   2.78891   2.80783
 Alpha virt. eigenvalues --    2.83262   2.83968   2.88509   2.90542   2.91149
 Alpha virt. eigenvalues --    2.92492   2.93901   2.95363   2.96038   2.97548
 Alpha virt. eigenvalues --    3.05923   3.08003   3.09602   3.35556   3.73095
 Alpha virt. eigenvalues --    3.75128   3.79409   3.86631   3.88204   3.90289
 Alpha virt. eigenvalues --    3.92764   4.01433   4.02816   4.04691   4.06288
 Alpha virt. eigenvalues --    4.08652   4.11987   4.15858   4.16048   4.19609
 Alpha virt. eigenvalues --    4.22928   4.25675   4.28480   4.29974   4.32175
 Alpha virt. eigenvalues --    4.35850   4.38605   4.42641   4.43720   4.45704
 Alpha virt. eigenvalues --    4.47137   4.54215   4.59419   4.62580   4.70092
          Condensed to atoms (all electrons):
 Mulliken charges:
               1
     1  N   -0.739529
     2  C   -0.070255
     3  C    0.627444
     4  O   -0.577780
     5  C   -0.275391
     6  C   -0.351469
     7  C    0.667949
     8  O   -0.534668
     9  O   -0.528989
    10  H    0.430869
    11  H    0.322896
    12  H    0.165513
    13  H    0.158234
    14  H    0.185371
    15  H    0.135868
    16  H    0.204703
    17  H    0.328351
    18  N   -0.598464
    19  C   -0.042426
    20  C    0.643413
    21  O   -0.521493
    22  C   -0.389323
    23  C    0.144544
    24  C   -0.188569
    25  C   -0.188445
    26  C   -0.191822
    27  C   -0.160916
    28  C    0.354350
    29  O   -0.634267
    30  H    0.375884
    31  H    0.176862
    32  H    0.180651
    33  H    0.155056
    34  H    0.124553
    35  H    0.159434
    36  H    0.129010
    37  H    0.150855
    38  H    0.412742
    39  N   -0.623697
    40  C    0.017335
    41  C    0.625853
    42  O   -0.534934
    43  C   -0.351269
    44  C   -0.291535
    45  C   -0.292950
    46  C   -0.187311
    47  N   -0.819212
    48  O   -0.525885
    49  H    0.429720
    50  H    0.373823
    51  H    0.198359
    52  H    0.187630
    53  H    0.161615
    54  H    0.183337
    55  H    0.156575
    56  H    0.186364
    57  H    0.184490
    58  H    0.199724
    59  H    0.202702
    60  H    0.389411
    61  H    0.444966
    62  H    0.444141
 Sum of Mulliken charges =   1.00000
 Mulliken charges with hydrogens summed into heavy atoms:
               1
     1  N   -0.088282
     2  C    0.095259
     3  C    0.627444
     4  O   -0.577780
     5  C    0.068215
     6  C   -0.010898
     7  C    0.667949
     8  O   -0.534668
     9  O   -0.098120
    18  N   -0.222580
    19  C    0.134436
    20  C    0.643413
    21  O   -0.521493
    22  C   -0.053616
    23  C    0.144544
    24  C   -0.064015
    25  C   -0.029011
    26  C   -0.062812
    27  C   -0.010061
    28  C    0.354350
    29  O   -0.221525
    39  N   -0.249875
    40  C    0.215693
    41  C    0.625853
    42  O   -0.534934
    43  C   -0.002025
    44  C    0.048376
    45  C    0.077905
    46  C    0.215115
    47  N    0.459306
    48  O   -0.096165
 Electronic spatial extent (au):  <R**2>=       20286837.0981
 Charge=              1.0000 electrons
 Dipole moment (field-independent basis, Debye):
    X=            -19.2860    Y=           -431.8881    Z=            622.9946  Tot=            758.3017
 Quadrupole moment (field-independent basis, Debye-Ang):
   XX=            -59.6360   YY=          38691.2569   ZZ=          80655.7654
   XY=           1748.9523   XZ=          -2498.7809   YZ=         -55990.7546
 Traceless Quadrupole moment (field-independent basis, Debye-Ang):
   XX=         -39822.0981   YY=          -1071.2052   ZZ=          40893.3033
   XY=           1748.9523   XZ=          -2498.7809   YZ=         -55990.7546
 Octapole moment (field-independent basis, Debye-Ang**2):
  XXX=            726.9665  YYY=       -3454431.9637  ZZZ=       10423242.3099  XYY=        -158189.3959
  XXY=           5013.7302  XXZ=          -7561.1598  XZZ=        -323495.3714  YZZ=       -7245757.5298
  YYZ=        5013839.5826  XYZ=         226503.4601
 Hexadecapole moment (field-independent basis, Debye-Ang**3):
 XXXX=          -7731.7389 YYYY=      307433750.0562 ZZZZ=     1344617441.2469 XXXY=         -64377.8798
 XXXZ=          93969.5124 YYYX=       14272318.5233 YYYZ=     -447469576.4248 ZZZX=      -41846509.7594
 ZZZY=     -936030857.9852 XXYY=        -422792.2742 XXZZ=        -960291.2503 YYZZ=      648589184.0721
 XXYZ=         635658.8379 YYXZ=      -20478230.1674 ZZXY=       29310843.2200
 N-N= 3.378334533818D+03 E-N=-1.029204796443D+04  KE= 1.512260383967D+03
 Unable to Open any file for archive entry.
 1\1\GINC-VIM-002\SP\RB3LYP\6-31G(d)\C20H31N4O7(1+)\KENGMITH\24-May-202
 2\0\\# B3LYP/6-31G* empiricaldispersion=gd3 guess=read geom=check nosy
 mm integral(ultrafinegrid)\\Candidate Structure: Conf:428 Charge calc 
 in gas phase\\1,1\N,0,-5.1305209017,-85.980832511,131.8080545078\C,0,-
 4.7692622759,-87.3474922958,131.4222595128\C,0,-3.4982296283,-87.31611
 39747,130.5581935054\O,0,-2.758982882,-88.3109220987,130.4740620573\C,
 0,-4.642137701,-88.3448930375,132.5962366789\C,0,-4.709802921,-89.8374
 834758,132.2126448953\C,0,-3.4283625865,-90.4800285097,131.7382057344\
 O,0,-3.3262340378,-91.2021685065,130.7472123056\O,0,-2.4223465406,-90.
 3081740369,132.5896513236\H,0,-1.632525579,-90.7492213505,132.22339318
 64\H,0,-4.5334161128,-85.6528870615,132.5665496409\H,0,-5.5696506264,-
 87.7010396487,130.7545457258\H,0,-5.4814876492,-88.1428290681,133.2708
 178539\H,0,-3.7234292722,-88.1499086018,133.1595191589\H,0,-5.47521627
 38,-90.0064133854,131.4477488358\H,0,-5.0134222285,-90.4137646322,133.
 0967041974\H,0,-6.0896923313,-85.9392003005,132.1443640713\N,0,-3.2840
 076721,-86.164109508,129.902109167\C,0,-2.1328782696,-85.9222670959,12
 9.0258495965\C,0,-2.3355462032,-86.7373438667,127.7296238077\O,0,-2.92
 99762262,-86.3056962601,126.7487846251\C,0,-1.9875596828,-84.423518636
 ,128.7261682279\C,0,-0.6810626154,-84.11139607,128.0278763644\C,0,0.47
 37994369,-83.8409814527,128.7704473055\C,0,-0.5825592349,-84.123064035
 7,126.6281645157\C,0,1.6938046127,-83.5877159409,128.1450112505\C,0,0.
 6273404264,-83.8720364262,125.9901463387\C,0,1.7734494683,-83.60267367
 63,126.747709432\O,0,2.9299918156,-83.3635957574,126.0656044386\H,0,-3
 .965545608,-85.4275098501,130.0655741493\H,0,-1.2370121702,-86.2837482
 961,129.5429081603\H,0,-2.8391689968,-84.1141517085,128.1104535105\H,0
 ,-2.0459994803,-83.8824204936,129.6785807955\H,0,0.4232238383,-83.8163
 322386,129.8572946909\H,0,-1.4660450681,-84.3404243799,126.0359548547\
 H,0,2.578955082,-83.3704986701,128.7395905553\H,0,0.7050385333,-83.872
 6779516,124.9077294863\H,0,3.6415193564,-83.160306282,126.6925866865\N
 ,0,-1.8467646713,-88.0068948075,127.7999646119\C,0,-2.1575666563,-88.9
 913892006,126.7739421976\C,0,-3.594689551,-88.8144451936,126.273710350
 6\O,0,-4.587294407,-88.9636780242,126.981837596\C,0,-2.0047688914,-90.
 3852184558,127.4153132568\C,0,-2.5191686873,-91.5772836966,126.5760786
 66\C,0,-3.2273633225,-92.650208472,127.4275258228\C,0,-4.7106874547,-9
 2.3962147335,127.7110027474\N,0,-4.9694916264,-91.1780134857,128.56802
 32259\O,0,-3.672399885,-88.6097090271,124.9645308386\H,0,-4.612738198,
 -88.4929299838,124.7256979073\H,0,-1.6954266301,-88.356487496,128.7434
 50498\H,0,-1.4915197452,-88.8693885694,125.9144782011\H,0,-0.945862854
 9,-90.5287068105,127.6557208824\H,0,-2.5152917186,-90.3479915186,128.3
 834720812\H,0,-1.67810178,-92.041352666,126.0521758233\H,0,-3.20238961
 39,-91.2433858691,125.783780987\H,0,-3.1974694723,-93.6119375424,126.9
 021781545\H,0,-2.6943669834,-92.7989381458,128.3751098556\H,0,-5.26916
 4367,-92.2463206146,126.7824033176\H,0,-5.1456708547,-93.2456969303,12
 8.2438039124\H,0,-5.9611772735,-91.1249084371,128.8153761027\H,0,-4.73
 95790781,-90.289841109,128.0607560399\H,0,-4.4064927818,-91.2031264792
 ,129.4601307332\\Version=ES64L-G16RevC.01\HF=-1526.3197222\RMSD=7.419e
 -09\Dipole=-2.8874105,-4.0609088,1.9792751\Quadrupole=-29606.7539206,-
 796.4148158,30403.1687364,1300.3031777,-1857.7823337,-41627.7537462\PG
 =C01 [X(C20H31N4O7)]\\@
 The archive entry for this job was punched.


 YOU KNOW YOU'RE A TEACHER WHEN YOU SAY 2, WRITE 3, AND MEAN 4.
 -- RONALD ANSTROM, HIGH SCHOOL TEACHER, UNDERWOOD, N.D. 1974
 Job cpu time:       0 days  0 hours  1 minutes 32.6 seconds.
 Elapsed time:       0 days  0 hours  0 minutes 23.7 seconds.
 File lengths (MBytes):  RWF=    264 Int=      0 D2E=      0 Chk=     40 Scr=     16
 Normal termination of Gaussian 16 at Tue May 24 19:13:21 2022.
