 Entering Gaussian System, Link 0=/opt/software/Gaussian/g16-AVX2-C.01/g16/g16
 Input=charge-conf-472.com
 Output=charge-conf-472.log
 Initial command:
 /opt/software/Gaussian/g16-AVX2-C.01/g16/l1.exe "/mnt/gs18/scratch/users/kengmith/Gau-11568.inp" -scrdir="/mnt/gs18/scratch/users/kengmith/"
 Entering Link 1 = /opt/software/Gaussian/g16-AVX2-C.01/g16/l1.exe PID=     11586.
  
 Copyright (c) 1988-2019, Gaussian, Inc.  All Rights Reserved.
  
 This is part of the Gaussian(R) 16 program.  It is based on
 the Gaussian(R) 09 system (copyright 2009, Gaussian, Inc.),
 the Gaussian(R) 03 system (copyright 2003, Gaussian, Inc.),
 the Gaussian(R) 98 system (copyright 1998, Gaussian, Inc.),
 the Gaussian(R) 94 system (copyright 1995, Gaussian, Inc.),
 the Gaussian 92(TM) system (copyright 1992, Gaussian, Inc.),
 the Gaussian 90(TM) system (copyright 1990, Gaussian, Inc.),
 the Gaussian 88(TM) system (copyright 1988, Gaussian, Inc.),
 the Gaussian 86(TM) system (copyright 1986, Carnegie Mellon
 University), and the Gaussian 82(TM) system (copyright 1983,
 Carnegie Mellon University). Gaussian is a federally registered
 trademark of Gaussian, Inc.
  
 This software contains proprietary and confidential information,
 including trade secrets, belonging to Gaussian, Inc.
  
 This software is provided under written license and may be
 used, copied, transmitted, or stored only in accord with that
 written license.
  
 The following legend is applicable only to US Government
 contracts under FAR:
  
                    RESTRICTED RIGHTS LEGEND
  
 Use, reproduction and disclosure by the US Government is
 subject to restrictions as set forth in subparagraphs (a)
 and (c) of the Commercial Computer Software - Restricted
 Rights clause in FAR 52.227-19.
  
 Gaussian, Inc.
 340 Quinnipiac St., Bldg. 40, Wallingford CT 06492
  
  
 ---------------------------------------------------------------
 Warning -- This program may not be used in any manner that
 competes with the business of Gaussian, Inc. or will provide
 assistance to any competitor of Gaussian, Inc.  The licensee
 of this program is prohibited from giving any competitor of
 Gaussian, Inc. access to this program.  By using this program,
 the user acknowledges that Gaussian, Inc. is engaged in the
 business of creating and licensing software in the field of
 computational chemistry and represents and warrants to the
 licensee that it is not a competitor of Gaussian, Inc. and that
 it will not use this program in any manner prohibited above.
 ---------------------------------------------------------------
  

 Cite this work as:
 Gaussian 16, Revision C.01,
 M. J. Frisch, G. W. Trucks, H. B. Schlegel, G. E. Scuseria, 
 M. A. Robb, J. R. Cheeseman, G. Scalmani, V. Barone, 
 G. A. Petersson, H. Nakatsuji, X. Li, M. Caricato, A. V. Marenich, 
 J. Bloino, B. G. Janesko, R. Gomperts, B. Mennucci, H. P. Hratchian, 
 J. V. Ortiz, A. F. Izmaylov, J. L. Sonnenberg, D. Williams-Young, 
 F. Ding, F. Lipparini, F. Egidi, J. Goings, B. Peng, A. Petrone, 
 T. Henderson, D. Ranasinghe, V. G. Zakrzewski, J. Gao, N. Rega, 
 G. Zheng, W. Liang, M. Hada, M. Ehara, K. Toyota, R. Fukuda, 
 J. Hasegawa, M. Ishida, T. Nakajima, Y. Honda, O. Kitao, H. Nakai, 
 T. Vreven, K. Throssell, J. A. Montgomery, Jr., J. E. Peralta, 
 F. Ogliaro, M. J. Bearpark, J. J. Heyd, E. N. Brothers, K. N. Kudin, 
 V. N. Staroverov, T. A. Keith, R. Kobayashi, J. Normand, 
 K. Raghavachari, A. P. Rendell, J. C. Burant, S. S. Iyengar, 
 J. Tomasi, M. Cossi, J. M. Millam, M. Klene, C. Adamo, R. Cammi, 
 J. W. Ochterski, R. L. Martin, K. Morokuma, O. Farkas, 
 J. B. Foresman, and D. J. Fox, Gaussian, Inc., Wallingford CT, 2019.
 
 ******************************************
 Gaussian 16:  ES64L-G16RevC.01  3-Jul-2019
                24-May-2022 
 ******************************************
 %mem=8gb
 %nproc=4
 Will use up to    4 processors via shared memory.
 %chk=conf-472.chk
 ----------------------------------------------------------------------
 # B3LYP/6-31G* empiricaldispersion=gd3 guess=read geom=check nosymm in
 tegral(ultrafinegrid)
 ----------------------------------------------------------------------
 1/29=2,38=1,172=1/1;
 2/12=2,15=1,40=1/2;
 3/5=1,6=6,7=1,11=2,14=-4,25=1,30=1,74=-5,75=-5,116=-2,124=31/1,2,3;
 4/5=1/1;
 5/5=2,38=6/2;
 6/7=2,8=2,9=2,10=2,28=1/1;
 99/5=1,9=1/99;
 ------------------------------------------------------
 Candidate Structure: Conf:472 Charge calc in gas phase
 ------------------------------------------------------
 Structure from the checkpoint file:  "conf-472.chk"
 Charge =  1 Multiplicity = 1
 Redundant internal coordinates found in file.  (old form).
 N,0,-6.1674463007,-87.1258441806,130.0180280859
 C,0,-5.4122023699,-87.0253532501,128.7760387074
 C,0,-4.1597673242,-87.9084967785,128.6000909344
 O,0,-3.6261458503,-87.9995613211,127.4834782318
 C,0,-6.348079424,-87.1980079406,127.5661342456
 C,0,-7.3591006704,-86.0590446249,127.4379999809
 C,0,-6.7702964797,-84.7702941299,126.9234967375
 O,0,-5.5743222715,-84.550353964,126.7491489594
 O,0,-7.7123802832,-83.8553155442,126.6743187997
 H,0,-7.2890977917,-83.0378623512,126.3522979367
 H,0,-5.6734003963,-86.7677342622,130.8299020202
 H,0,-5.0023634934,-86.0077028806,128.7329550609
 H,0,-6.8959175193,-88.141788068,127.6764393421
 H,0,-5.7425373846,-87.2812059896,126.6616699589
 H,0,-7.8194035981,-85.8449521106,128.4119635457
 H,0,-8.1846150259,-86.3244210189,126.7675409637
 H,0,-6.4831059193,-88.0735986113,130.2096669064
 N,0,-3.6402650417,-88.4796053957,129.7084099374
 C,0,-2.3113929348,-89.1194809308,129.746699059
 C,0,-1.268932345,-87.9717924013,129.758097663
 O,0,-0.7118389255,-87.5689298153,130.7662100726
 C,0,-2.1771715669,-90.0392066209,130.9651273181
 C,0,-0.9519426327,-90.9240818344,130.8699156631
 C,0,-1.0150560143,-92.1474978521,130.1862612054
 C,0,0.2739442795,-90.5352383696,131.421069006
 C,0,0.1030822861,-92.9634416301,130.0554245584
 C,0,1.4031706744,-91.3442672162,131.3004606267
 C,0,1.3216091686,-92.562457183,130.6167952017
 O,0,2.3850228349,-93.4023492356,130.4612994157
 H,0,-4.0792928406,-88.2793979569,130.5972071759
 H,0,-2.2114898558,-89.7003463397,128.825129253
 H,0,-2.1328333247,-89.4179780021,131.8668496914
 H,0,-3.0829548671,-90.6548793934,131.0228783593
 H,0,-1.9599063184,-92.4740907713,129.7559047243
 H,0,0.3478075189,-89.5836185525,131.9377895341
 H,0,0.053557559,-93.9142886963,129.5349361669
 H,0,2.3476543044,-91.0296661379,131.7402915522
 H,0,3.1586380859,-93.0330108787,130.9149858869
 N,0,-1.1230207478,-87.3958073145,128.5200878052
 C,0,-0.5967504823,-86.0607695992,128.3541839426
 C,0,-1.6014585121,-84.9689287451,128.7498257269
 O,0,-1.5802982546,-83.8230829134,128.3143704069
 C,0,-0.0537565528,-85.8367119646,126.9273294387
 C,0,-0.9897344745,-86.267322758,125.7771721856
 C,0,-2.3684361279,-85.5827830991,125.706252227
 C,0,-2.2835227276,-84.0985292105,125.3055292712
 N,0,-3.1847319511,-83.2438703427,126.1728121634
 O,0,-2.5146442343,-85.3591543093,129.6489678291
 H,0,-3.0214137323,-84.5669180925,129.9119547086
 H,0,-1.8069797209,-87.7009845938,127.8291051079
 H,0,0.2229791635,-85.9387379798,129.0753770951
 H,0,0.2276964568,-84.7828270501,126.8346341696
 H,0,0.8696942888,-86.4172706302,126.8391798052
 H,0,-1.1571548926,-87.3482566905,125.8287519398
 H,0,-0.4569325799,-86.1010626623,124.8320691708
 H,0,-2.9921783768,-86.1150062666,124.9818826503
 H,0,-2.9032625129,-85.7032199013,126.6540742109
 H,0,-1.2797286185,-83.6920019148,125.4426504491
 H,0,-2.585162348,-83.9338231127,124.2690033083
 H,0,-3.2205063975,-82.2747316031,125.8445149862
 H,0,-2.7820699523,-83.2492355821,127.1314938993
 H,0,-4.1528444839,-83.6226017436,126.2345507739
 Recover connectivity data from disk.
                           ----------------------------
                           !    Current Parameters    !
                           ! (Angstroms and Degrees)  !
 --------------------------                            --------------------------
 ! Name  Definition              Value                                          !
 --------------------------------------------------------------------------------
 ! R1    R(1,2)                  1.4571                                         !
 ! R2    R(1,11)                 1.0156                                         !
 ! R3    R(1,17)                 1.0172                                         !
 ! R4    R(2,3)                  1.5426                                         !
 ! R5    R(2,5)                  1.5393                                         !
 ! R6    R(2,12)                 1.0979                                         !
 ! R7    R(3,4)                  1.2409                                         !
 ! R8    R(3,18)                 1.3507                                         !
 ! R9    R(5,6)                  1.5283                                         !
 ! R10   R(5,13)                 1.0968                                         !
 ! R11   R(5,14)                 1.0916                                         !
 ! R12   R(6,7)                  1.5074                                         !
 ! R13   R(6,15)                 1.0983                                         !
 ! R14   R(6,16)                 1.0961                                         !
 ! R15   R(7,8)                  1.2285                                         !
 ! R16   R(7,9)                  1.3367                                         !
 ! R17   R(9,10)                 0.9752                                         !
 ! R18   R(18,19)                1.4754                                         !
 ! R19   R(18,30)                1.0113                                         !
 ! R20   R(19,20)                1.5505                                         !
 ! R21   R(19,22)                1.5325                                         !
 ! R22   R(19,31)                1.0939                                         !
 ! R23   R(20,21)                1.2202                                         !
 ! R24   R(20,39)                1.3732                                         !
 ! R25   R(22,23)                1.5143                                         !
 ! R26   R(22,32)                1.0959                                         !
 ! R27   R(22,33)                1.0967                                         !
 ! R28   R(23,24)                1.4029                                         !
 ! R29   R(23,25)                1.3992                                         !
 ! R30   R(24,26)                1.3904                                         !
 ! R31   R(24,34)                1.0884                                         !
 ! R32   R(25,27)                1.3944                                         !
 ! R33   R(25,35)                1.0854                                         !
 ! R34   R(26,28)                1.4003                                         !
 ! R35   R(26,36)                1.0851                                         !
 ! R36   R(27,28)                1.3993                                         !
 ! R37   R(27,37)                1.0883                                         !
 ! R38   R(28,29)                1.364                                          !
 ! R39   R(29,38)                0.9699                                         !
 ! R40   R(39,40)                1.4446                                         !
 ! R41   R(39,50)                1.019                                          !
 ! R42   R(40,41)                1.5356                                         !
 ! R43   R(40,43)                1.543                                          !
 ! R44   R(40,51)                1.0986                                         !
 ! R45   R(41,42)                1.226                                          !
 ! R46   R(41,48)                1.3396                                         !
 ! R47   R(43,44)                1.5441                                         !
 ! R48   R(43,52)                1.0948                                         !
 ! R49   R(43,53)                1.0943                                         !
 ! R50   R(44,45)                1.5409                                         !
 ! R51   R(44,54)                1.095                                          !
 ! R52   R(44,55)                1.0976                                         !
 ! R53   R(45,46)                1.5397                                         !
 ! R54   R(45,56)                1.0941                                         !
 ! R55   R(45,57)                1.0949                                         !
 ! R56   R(46,47)                1.5149                                         !
 ! R57   R(46,58)                1.0916                                         !
 ! R58   R(46,59)                1.092                                          !
 ! R59   R(47,60)                1.0239                                         !
 ! R60   R(47,61)                1.0398                                         !
 ! R61   R(47,62)                1.0414                                         !
 ! R62   R(48,49)                0.9765                                         !
 ! A1    A(2,1,11)             113.8871                                         !
 ! A2    A(2,1,17)             112.6882                                         !
 ! A3    A(11,1,17)            109.202                                          !
 ! A4    A(1,2,3)              118.593                                          !
 ! A5    A(1,2,5)              110.3103                                         !
 ! A6    A(1,2,12)             106.9095                                         !
 ! A7    A(3,2,5)              109.8623                                         !
 ! A8    A(3,2,12)             102.8915                                         !
 ! A9    A(5,2,12)             107.4616                                         !
 ! A10   A(2,3,4)              119.5903                                         !
 ! A11   A(2,3,18)             117.4358                                         !
 ! A12   A(4,3,18)             122.8151                                         !
 ! A13   A(2,5,6)              112.6125                                         !
 ! A14   A(2,5,13)             108.7317                                         !
 ! A15   A(2,5,14)             108.8157                                         !
 ! A16   A(6,5,13)             108.6185                                         !
 ! A17   A(6,5,14)             110.7496                                         !
 ! A18   A(13,5,14)            107.1463                                         !
 ! A19   A(5,6,7)              114.0386                                         !
 ! A20   A(5,6,15)             110.3746                                         !
 ! A21   A(5,6,16)             111.6584                                         !
 ! A22   A(7,6,15)             107.4408                                         !
 ! A23   A(7,6,16)             107.0016                                         !
 ! A24   A(15,6,16)            105.9011                                         !
 ! A25   A(6,7,8)              125.5761                                         !
 ! A26   A(6,7,9)              111.9343                                         !
 ! A27   A(8,7,9)              122.4885                                         !
 ! A28   A(7,9,10)             109.233                                          !
 ! A29   A(3,18,19)            123.4416                                         !
 ! A30   A(3,18,30)            118.0641                                         !
 ! A31   A(19,18,30)           117.0035                                         !
 ! A32   A(18,19,20)           106.5429                                         !
 ! A33   A(18,19,22)           111.0883                                         !
 ! A34   A(18,19,31)           106.8987                                         !
 ! A35   A(20,19,22)           112.3032                                         !
 ! A36   A(20,19,31)           109.745                                          !
 ! A37   A(22,19,31)           110.0674                                         !
 ! A38   A(19,20,21)           123.8771                                         !
 ! A39   A(19,20,39)           112.042                                          !
 ! A40   A(21,20,39)           123.9062                                         !
 ! A41   A(19,22,23)           111.812                                          !
 ! A42   A(19,22,32)           108.5137                                         !
 ! A43   A(19,22,33)           107.8448                                         !
 ! A44   A(23,22,32)           110.5016                                         !
 ! A45   A(23,22,33)           110.0902                                         !
 ! A46   A(32,22,33)           107.9573                                         !
 ! A47   A(22,23,24)           120.2525                                         !
 ! A48   A(22,23,25)           121.4469                                         !
 ! A49   A(24,23,25)           118.2762                                         !
 ! A50   A(23,24,26)           121.4299                                         !
 ! A51   A(23,24,34)           119.5656                                         !
 ! A52   A(26,24,34)           119.0016                                         !
 ! A53   A(23,25,27)           120.9456                                         !
 ! A54   A(23,25,35)           119.3938                                         !
 ! A55   A(27,25,35)           119.6553                                         !
 ! A56   A(24,26,28)           119.6071                                         !
 ! A57   A(24,26,36)           121.5118                                         !
 ! A58   A(28,26,36)           118.878                                          !
 ! A59   A(25,27,28)           120.0117                                         !
 ! A60   A(25,27,37)           120.0089                                         !
 ! A61   A(28,27,37)           119.9792                                         !
 ! A62   A(26,28,27)           119.7288                                         !
 ! A63   A(26,28,29)           117.1561                                         !
 ! A64   A(27,28,29)           123.1151                                         !
 ! A65   A(28,29,38)           109.5145                                         !
 ! A66   A(20,39,40)           121.9977                                         !
 ! A67   A(20,39,50)           114.481                                          !
 ! A68   A(40,39,50)           116.3222                                         !
 ! A69   A(39,40,41)           112.9019                                         !
 ! A70   A(39,40,43)           111.6289                                         !
 ! A71   A(39,40,51)           107.4029                                         !
 ! A72   A(41,40,43)           111.4225                                         !
 ! A73   A(41,40,51)           103.8909                                         !
 ! A74   A(43,40,51)           109.1674                                         !
 ! A75   A(40,41,42)           124.1759                                         !
 ! A76   A(40,41,48)           114.3185                                         !
 ! A77   A(42,41,48)           121.4942                                         !
 ! A78   A(40,43,44)           115.7838                                         !
 ! A79   A(40,43,52)           107.9721                                         !
 ! A80   A(40,43,53)           107.1216                                         !
 ! A81   A(44,43,52)           111.1756                                         !
 ! A82   A(44,43,53)           107.6713                                         !
 ! A83   A(52,43,53)           106.6748                                         !
 ! A84   A(43,44,45)           116.9193                                         !
 ! A85   A(43,44,54)           109.4429                                         !
 ! A86   A(43,44,55)           107.7512                                         !
 ! A87   A(45,44,54)           107.6915                                         !
 ! A88   A(45,44,55)           109.1109                                         !
 ! A89   A(54,44,55)           105.3253                                         !
 ! A90   A(44,45,46)           113.0085                                         !
 ! A91   A(44,45,56)           108.9325                                         !
 ! A92   A(44,45,57)           110.3848                                         !
 ! A93   A(46,45,56)           109.1508                                         !
 ! A94   A(46,45,57)           110.9928                                         !
 ! A95   A(56,45,57)           103.9539                                         !
 ! A96   A(45,46,47)           111.2258                                         !
 ! A97   A(45,46,58)           112.1481                                         !
 ! A98   A(45,46,59)           112.1596                                         !
 ! A99   A(47,46,58)           105.3684                                         !
 ! A100  A(47,46,59)           107.0977                                         !
 ! A101  A(58,46,59)           108.4849                                         !
 ! A102  A(46,47,60)           111.7922                                         !
 ! A103  A(46,47,61)           107.1309                                         !
 ! A104  A(46,47,62)           112.446                                          !
 ! A105  A(60,47,61)           108.3028                                         !
 ! A106  A(60,47,62)           109.3155                                         !
 ! A107  A(61,47,62)           107.6654                                         !
 ! A108  A(41,48,49)           107.3486                                         !
 ! D1    D(11,1,2,3)            68.3877                                         !
 ! D2    D(11,1,2,5)          -163.7082                                         !
 ! D3    D(11,1,2,12)          -47.1609                                         !
 ! D4    D(17,1,2,3)           -56.714                                          !
 ! D5    D(17,1,2,5)            71.1901                                         !
 ! D6    D(17,1,2,12)         -172.2627                                         !
 ! D7    D(1,2,3,4)            168.6221                                         !
 ! D8    D(1,2,3,18)           -15.8275                                         !
 ! D9    D(5,2,3,4)             40.5083                                         !
 ! D10   D(5,2,3,18)          -143.9413                                         !
 ! D11   D(12,2,3,4)           -73.6951                                         !
 ! D12   D(12,2,3,18)          101.8553                                         !
 ! D13   D(1,2,5,6)             65.9014                                         !
 ! D14   D(1,2,5,13)           -54.5253                                         !
 ! D15   D(1,2,5,14)          -170.9114                                         !
 ! D16   D(3,2,5,6)           -161.5438                                         !
 ! D17   D(3,2,5,13)            78.0296                                         !
 ! D18   D(3,2,5,14)           -38.3566                                         !
 ! D19   D(12,2,5,6)           -50.3015                                         !
 ! D20   D(12,2,5,13)         -170.7282                                         !
 ! D21   D(12,2,5,14)           72.8857                                         !
 ! D22   D(2,3,18,19)         -167.3813                                         !
 ! D23   D(2,3,18,30)           -1.7476                                         !
 ! D24   D(4,3,18,19)            8.0144                                         !
 ! D25   D(4,3,18,30)          173.648                                          !
 ! D26   D(2,5,6,7)             74.7519                                         !
 ! D27   D(2,5,6,15)           -46.295                                          !
 ! D28   D(2,5,6,16)          -163.8077                                         !
 ! D29   D(13,5,6,7)          -164.7563                                         !
 ! D30   D(13,5,6,15)           74.1967                                         !
 ! D31   D(13,5,6,16)          -43.316                                          !
 ! D32   D(14,5,6,7)           -47.3494                                         !
 ! D33   D(14,5,6,15)         -168.3964                                         !
 ! D34   D(14,5,6,16)           74.0909                                         !
 ! D35   D(5,6,7,8)             -7.9361                                         !
 ! D36   D(5,6,7,9)            172.4389                                         !
 ! D37   D(15,6,7,8)           114.7283                                         !
 ! D38   D(15,6,7,9)           -64.8966                                         !
 ! D39   D(16,6,7,8)          -131.9207                                         !
 ! D40   D(16,6,7,9)            48.4543                                         !
 ! D41   D(6,7,9,10)           179.4993                                         !
 ! D42   D(8,7,9,10)            -0.139                                          !
 ! D43   D(3,18,19,20)          75.1311                                         !
 ! D44   D(3,18,19,22)        -162.2631                                         !
 ! D45   D(3,18,19,31)         -42.1634                                         !
 ! D46   D(30,18,19,20)        -90.6435                                         !
 ! D47   D(30,18,19,22)         31.9624                                         !
 ! D48   D(30,18,19,31)        152.0621                                         !
 ! D49   D(18,19,20,21)         99.4556                                         !
 ! D50   D(18,19,20,39)        -75.9001                                         !
 ! D51   D(22,19,20,21)        -22.3832                                         !
 ! D52   D(22,19,20,39)        162.2611                                         !
 ! D53   D(31,19,20,21)       -145.1536                                         !
 ! D54   D(31,19,20,39)         39.4907                                         !
 ! D55   D(18,19,22,23)        167.8493                                         !
 ! D56   D(18,19,22,32)        -70.0203                                         !
 ! D57   D(18,19,22,33)         46.6828                                         !
 ! D58   D(20,19,22,23)        -72.9394                                         !
 ! D59   D(20,19,22,32)         49.191                                          !
 ! D60   D(20,19,22,33)        165.8941                                         !
 ! D61   D(31,19,22,23)         49.649                                          !
 ! D62   D(31,19,22,32)        171.7793                                         !
 ! D63   D(31,19,22,33)        -71.5175                                         !
 ! D64   D(19,20,39,40)        158.0913                                         !
 ! D65   D(19,20,39,50)          8.8869                                         !
 ! D66   D(21,20,39,40)        -17.2629                                         !
 ! D67   D(21,20,39,50)       -166.4672                                         !
 ! D68   D(19,22,23,24)        -86.0522                                         !
 ! D69   D(19,22,23,25)         92.119                                          !
 ! D70   D(32,22,23,24)        152.9642                                         !
 ! D71   D(32,22,23,25)        -28.8646                                         !
 ! D72   D(33,22,23,24)         33.8047                                         !
 ! D73   D(33,22,23,25)       -148.0241                                         !
 ! D74   D(22,23,24,26)        178.3883                                         !
 ! D75   D(22,23,24,34)         -2.2409                                         !
 ! D76   D(25,23,24,26)          0.1599                                         !
 ! D77   D(25,23,24,34)        179.5306                                         !
 ! D78   D(22,23,25,27)       -178.5036                                         !
 ! D79   D(22,23,25,35)          0.6608                                         !
 ! D80   D(24,23,25,27)         -0.2973                                         !
 ! D81   D(24,23,25,35)        178.867                                          !
 ! D82   D(23,24,26,28)          0.0658                                         !
 ! D83   D(23,24,26,36)        179.4198                                         !
 ! D84   D(34,24,26,28)       -179.3084                                         !
 ! D85   D(34,24,26,36)          0.0455                                         !
 ! D86   D(23,25,27,28)          0.2093                                         !
 ! D87   D(23,25,27,37)       -179.6303                                         !
 ! D88   D(35,25,27,28)       -178.9529                                         !
 ! D89   D(35,25,27,37)          1.2075                                         !
 ! D90   D(24,26,28,27)         -0.1582                                         !
 ! D91   D(24,26,28,29)        179.8474                                         !
 ! D92   D(36,26,28,27)       -179.5292                                         !
 ! D93   D(36,26,28,29)          0.4764                                         !
 ! D94   D(25,27,28,26)          0.0228                                         !
 ! D95   D(25,27,28,29)       -179.9831                                         !
 ! D96   D(37,27,28,26)        179.8625                                         !
 ! D97   D(37,27,28,29)         -0.1435                                         !
 ! D98   D(26,28,29,38)       -178.1264                                         !
 ! D99   D(27,28,29,38)          1.8794                                         !
 ! D100  D(20,39,40,41)        -74.4237                                         !
 ! D101  D(20,39,40,43)        159.1324                                         !
 ! D102  D(20,39,40,51)         39.5008                                         !
 ! D103  D(50,39,40,41)         74.2541                                         !
 ! D104  D(50,39,40,43)        -52.1899                                         !
 ! D105  D(50,39,40,51)       -171.8215                                         !
 ! D106  D(39,40,41,42)       -155.2757                                         !
 ! D107  D(39,40,41,48)         25.9383                                         !
 ! D108  D(43,40,41,42)        -28.7217                                         !
 ! D109  D(43,40,41,48)        152.4923                                         !
 ! D110  D(51,40,41,42)         88.6881                                         !
 ! D111  D(51,40,41,48)        -90.0979                                         !
 ! D112  D(39,40,43,44)         48.6194                                         !
 ! D113  D(39,40,43,52)        173.9606                                         !
 ! D114  D(39,40,43,53)        -71.484                                          !
 ! D115  D(41,40,43,44)        -78.6287                                         !
 ! D116  D(41,40,43,52)         46.7125                                         !
 ! D117  D(41,40,43,53)        161.2679                                         !
 ! D118  D(51,40,43,44)        167.2038                                         !
 ! D119  D(51,40,43,52)        -67.4551                                         !
 ! D120  D(51,40,43,53)         47.1004                                         !
 ! D121  D(40,41,48,49)        172.7991                                         !
 ! D122  D(42,41,48,49)         -6.0231                                         !
 ! D123  D(40,43,44,45)         59.7293                                         !
 ! D124  D(40,43,44,54)        -62.9998                                         !
 ! D125  D(40,43,44,55)       -177.0349                                         !
 ! D126  D(52,43,44,45)        -63.9549                                         !
 ! D127  D(52,43,44,54)        173.316                                          !
 ! D128  D(52,43,44,55)         59.2808                                         !
 ! D129  D(53,43,44,45)        179.5339                                         !
 ! D130  D(53,43,44,54)         56.8048                                         !
 ! D131  D(53,43,44,55)        -57.2304                                         !
 ! D132  D(43,44,45,46)         69.6537                                         !
 ! D133  D(43,44,45,56)       -168.8493                                         !
 ! D134  D(43,44,45,57)        -55.307                                          !
 ! D135  D(54,44,45,46)       -166.7174                                         !
 ! D136  D(54,44,45,56)        -45.2204                                         !
 ! D137  D(54,44,45,57)         68.3219                                         !
 ! D138  D(55,44,45,46)        -52.8811                                         !
 ! D139  D(55,44,45,56)         68.6158                                         !
 ! D140  D(55,44,45,57)       -177.8418                                         !
 ! D141  D(44,45,46,47)       -135.7945                                         !
 ! D142  D(44,45,46,58)        -18.0809                                         !
 ! D143  D(44,45,46,59)        104.2893                                         !
 ! D144  D(56,45,46,47)        102.8318                                         !
 ! D145  D(56,45,46,58)       -139.4546                                         !
 ! D146  D(56,45,46,59)        -17.0844                                         !
 ! D147  D(57,45,46,47)        -11.1642                                         !
 ! D148  D(57,45,46,58)        106.5494                                         !
 ! D149  D(57,45,46,59)       -131.0804                                         !
 ! D150  D(45,46,47,60)       -173.2586                                         !
 ! D151  D(45,46,47,61)         68.2423                                         !
 ! D152  D(45,46,47,62)        -49.8509                                         !
 ! D153  D(58,46,47,60)         64.9932                                         !
 ! D154  D(58,46,47,61)        -53.5059                                         !
 ! D155  D(58,46,47,62)       -171.5991                                         !
 ! D156  D(59,46,47,60)        -50.383                                          !
 ! D157  D(59,46,47,61)       -168.8821                                         !
 ! D158  D(59,46,47,62)         73.0247                                         !
 --------------------------------------------------------------------------------
 Symmetry turned off by external request.
 Stoichiometry    C20H31N4O7(1+)
 Framework group  C1[X(C20H31N4O7)]
 Deg. of freedom   180
 Full point group                 C1      NOp   1
                          Input orientation:                          
 ---------------------------------------------------------------------
 Center     Atomic      Atomic             Coordinates (Angstroms)
 Number     Number       Type             X           Y           Z
 ---------------------------------------------------------------------
      1          7           0       -6.167446  -87.125844  130.018028
      2          6           0       -5.412202  -87.025353  128.776039
      3          6           0       -4.159767  -87.908497  128.600091
      4          8           0       -3.626146  -87.999561  127.483478
      5          6           0       -6.348079  -87.198008  127.566134
      6          6           0       -7.359101  -86.059045  127.438000
      7          6           0       -6.770296  -84.770294  126.923497
      8          8           0       -5.574322  -84.550354  126.749149
      9          8           0       -7.712380  -83.855316  126.674319
     10          1           0       -7.289098  -83.037862  126.352298
     11          1           0       -5.673400  -86.767734  130.829902
     12          1           0       -5.002363  -86.007703  128.732955
     13          1           0       -6.895918  -88.141788  127.676439
     14          1           0       -5.742537  -87.281206  126.661670
     15          1           0       -7.819404  -85.844952  128.411964
     16          1           0       -8.184615  -86.324421  126.767541
     17          1           0       -6.483106  -88.073599  130.209667
     18          7           0       -3.640265  -88.479605  129.708410
     19          6           0       -2.311393  -89.119481  129.746699
     20          6           0       -1.268932  -87.971792  129.758098
     21          8           0       -0.711839  -87.568930  130.766210
     22          6           0       -2.177172  -90.039207  130.965127
     23          6           0       -0.951943  -90.924082  130.869916
     24          6           0       -1.015056  -92.147498  130.186261
     25          6           0        0.273944  -90.535238  131.421069
     26          6           0        0.103082  -92.963442  130.055425
     27          6           0        1.403171  -91.344267  131.300461
     28          6           0        1.321609  -92.562457  130.616795
     29          8           0        2.385023  -93.402349  130.461299
     30          1           0       -4.079293  -88.279398  130.597207
     31          1           0       -2.211490  -89.700346  128.825129
     32          1           0       -2.132833  -89.417978  131.866850
     33          1           0       -3.082955  -90.654879  131.022878
     34          1           0       -1.959906  -92.474091  129.755905
     35          1           0        0.347808  -89.583619  131.937790
     36          1           0        0.053558  -93.914289  129.534936
     37          1           0        2.347654  -91.029666  131.740292
     38          1           0        3.158638  -93.033011  130.914986
     39          7           0       -1.123021  -87.395807  128.520088
     40          6           0       -0.596750  -86.060770  128.354184
     41          6           0       -1.601459  -84.968929  128.749826
     42          8           0       -1.580298  -83.823083  128.314370
     43          6           0       -0.053757  -85.836712  126.927329
     44          6           0       -0.989734  -86.267323  125.777172
     45          6           0       -2.368436  -85.582783  125.706252
     46          6           0       -2.283523  -84.098529  125.305529
     47          7           0       -3.184732  -83.243870  126.172812
     48          8           0       -2.514644  -85.359154  129.648968
     49          1           0       -3.021414  -84.566918  129.911955
     50          1           0       -1.806980  -87.700985  127.829105
     51          1           0        0.222979  -85.938738  129.075377
     52          1           0        0.227696  -84.782827  126.834634
     53          1           0        0.869694  -86.417271  126.839180
     54          1           0       -1.157155  -87.348257  125.828752
     55          1           0       -0.456933  -86.101063  124.832069
     56          1           0       -2.992178  -86.115006  124.981883
     57          1           0       -2.903263  -85.703220  126.654074
     58          1           0       -1.279729  -83.692002  125.442650
     59          1           0       -2.585162  -83.933823  124.269003
     60          1           0       -3.220506  -82.274732  125.844515
     61          1           0       -2.782070  -83.249236  127.131494
     62          1           0       -4.152844  -83.622602  126.234551
 ---------------------------------------------------------------------
 Rotational constants (GHZ):           0.2444676           0.0757469           0.0652794
 Standard basis: 6-31G(d) (6D, 7F)
   527 basis functions,   992 primitive gaussians,   527 cartesian basis functions
   117 alpha electrons      117 beta electrons
       nuclear repulsion energy      3363.9471969470 Hartrees.
 NAtoms=   62 NActive=   62 NUniq=   62 SFac= 1.00D+00 NAtFMM=   60 NAOKFM=T Big=T
 Integral buffers will be    131072 words long.
 Raffenetti 2 integral format.
 Two-electron integral symmetry is turned off.
 Nuclear repulsion after empirical dispersion term =     3363.8637125883 Hartrees.
 One-electron integrals computed using PRISM.
 NBasis=   527 RedAO= T EigKep=  4.33D-04  NBF=   527
 NBsUse=   527 1.00D-06 EigRej= -1.00D+00 NBFU=   527
 Initial guess from the checkpoint file:  "conf-472.chk"
 B after Tr=     0.000000    0.000000    0.000000
         Rot=    1.000000    0.000000    0.000000    0.000000 Ang=   0.00 deg.
 Requested convergence on RMS density matrix=1.00D-08 within 128 cycles.
 Requested convergence on MAX density matrix=1.00D-06.
 Requested convergence on             energy=1.00D-06.
 No special actions if energy rises.
 SCF Done:  E(RB3LYP) =  -1526.30896890     A.U. after    2 cycles
            NFock=  2  Conv=0.86D-08     -V/T= 2.0093

 **********************************************************************

            Population analysis using the SCF Density.

 **********************************************************************

 Alpha  occ. eigenvalues --  -19.33564 -19.32792 -19.28432 -19.28220 -19.23342
 Alpha  occ. eigenvalues --  -19.22527 -19.21049 -14.57844 -14.47185 -14.44729
 Alpha  occ. eigenvalues --  -14.43363 -10.45952 -10.45933 -10.39317 -10.38036
 Alpha  occ. eigenvalues --  -10.37859 -10.35235 -10.33488 -10.32702 -10.31621
 Alpha  occ. eigenvalues --  -10.30983 -10.30684 -10.30192 -10.30145 -10.29320
 Alpha  occ. eigenvalues --  -10.27199 -10.25331 -10.25111 -10.24812 -10.24651
 Alpha  occ. eigenvalues --  -10.24218  -1.24727  -1.24119  -1.15483  -1.15131
 Alpha  occ. eigenvalues --   -1.14382  -1.12756  -1.12658  -1.11438  -1.03418
 Alpha  occ. eigenvalues --   -1.02606  -1.00035  -0.92751  -0.91520  -0.90440
 Alpha  occ. eigenvalues --   -0.88753  -0.86528  -0.83572  -0.83020  -0.80540
 Alpha  occ. eigenvalues --   -0.80000  -0.78727  -0.75977  -0.74999  -0.73368
 Alpha  occ. eigenvalues --   -0.72202  -0.71558  -0.70502  -0.68987  -0.68135
 Alpha  occ. eigenvalues --   -0.67849  -0.67680  -0.64965  -0.64663  -0.64118
 Alpha  occ. eigenvalues --   -0.62687  -0.62434  -0.61884  -0.61605  -0.60704
 Alpha  occ. eigenvalues --   -0.60143  -0.59977  -0.59380  -0.58779  -0.57947
 Alpha  occ. eigenvalues --   -0.57844  -0.55591  -0.54875  -0.54487  -0.54173
 Alpha  occ. eigenvalues --   -0.53832  -0.53273  -0.52887  -0.52227  -0.51762
 Alpha  occ. eigenvalues --   -0.51513  -0.51368  -0.50620  -0.49746  -0.49487
 Alpha  occ. eigenvalues --   -0.48802  -0.48106  -0.47562  -0.47201  -0.47044
 Alpha  occ. eigenvalues --   -0.46479  -0.46056  -0.45930  -0.45701  -0.45399
 Alpha  occ. eigenvalues --   -0.45211  -0.44957  -0.44725  -0.44393  -0.43122
 Alpha  occ. eigenvalues --   -0.42247  -0.41814  -0.41691  -0.39408  -0.39148
 Alpha  occ. eigenvalues --   -0.38636  -0.37726  -0.35464  -0.33739  -0.33435
 Alpha  occ. eigenvalues --   -0.30961  -0.27601
 Alpha virt. eigenvalues --   -0.13698  -0.12462  -0.09808  -0.08800  -0.06801
 Alpha virt. eigenvalues --   -0.06616  -0.05933  -0.05077  -0.04837  -0.03483
 Alpha virt. eigenvalues --   -0.03150  -0.01464  -0.01341  -0.00180   0.01157
 Alpha virt. eigenvalues --    0.01518   0.01677   0.02563   0.03214   0.03371
 Alpha virt. eigenvalues --    0.03622   0.04352   0.04683   0.05073   0.05641
 Alpha virt. eigenvalues --    0.05989   0.06369   0.06626   0.06959   0.07352
 Alpha virt. eigenvalues --    0.07956   0.07998   0.08818   0.09178   0.09424
 Alpha virt. eigenvalues --    0.10248   0.10431   0.10942   0.11060   0.11631
 Alpha virt. eigenvalues --    0.12321   0.12948   0.13255   0.13399   0.14175
 Alpha virt. eigenvalues --    0.14520   0.14566   0.15454   0.16001   0.16876
 Alpha virt. eigenvalues --    0.17226   0.17857   0.19323   0.19391   0.19793
 Alpha virt. eigenvalues --    0.20242   0.20583   0.24174   0.25493   0.26000
 Alpha virt. eigenvalues --    0.27377   0.28019   0.28625   0.29516   0.30050
 Alpha virt. eigenvalues --    0.30921   0.35749   0.36690   0.37995   0.38482
 Alpha virt. eigenvalues --    0.38518   0.40838   0.41278   0.41598   0.42151
 Alpha virt. eigenvalues --    0.42808   0.43659   0.44049   0.44384   0.45203
 Alpha virt. eigenvalues --    0.46197   0.46535   0.46852   0.47291   0.48011
 Alpha virt. eigenvalues --    0.48222   0.48542   0.49199   0.49466   0.50143
 Alpha virt. eigenvalues --    0.50453   0.51099   0.51458   0.51927   0.52191
 Alpha virt. eigenvalues --    0.52961   0.53363   0.53585   0.54760   0.54976
 Alpha virt. eigenvalues --    0.55623   0.55912   0.56006   0.56618   0.57573
 Alpha virt. eigenvalues --    0.57923   0.58578   0.58662   0.59179   0.59475
 Alpha virt. eigenvalues --    0.59808   0.60223   0.60600   0.61767   0.62249
 Alpha virt. eigenvalues --    0.62985   0.63908   0.65086   0.65412   0.66269
 Alpha virt. eigenvalues --    0.66838   0.67344   0.67725   0.69151   0.69431
 Alpha virt. eigenvalues --    0.69959   0.70392   0.71259   0.71679   0.72379
 Alpha virt. eigenvalues --    0.73575   0.73903   0.74460   0.75412   0.75598
 Alpha virt. eigenvalues --    0.75904   0.76609   0.76870   0.77140   0.77609
 Alpha virt. eigenvalues --    0.78175   0.78420   0.78969   0.79188   0.79511
 Alpha virt. eigenvalues --    0.80244   0.80637   0.81044   0.81454   0.81890
 Alpha virt. eigenvalues --    0.82065   0.82752   0.82940   0.83608   0.83987
 Alpha virt. eigenvalues --    0.84132   0.84618   0.85305   0.85672   0.85719
 Alpha virt. eigenvalues --    0.87392   0.87562   0.87827   0.88724   0.89444
 Alpha virt. eigenvalues --    0.89545   0.89830   0.90943   0.91510   0.91672
 Alpha virt. eigenvalues --    0.92633   0.93238   0.94163   0.94334   0.94768
 Alpha virt. eigenvalues --    0.95512   0.97005   0.98394   0.99261   0.99732
 Alpha virt. eigenvalues --    1.00821   1.01864   1.02891   1.03555   1.05696
 Alpha virt. eigenvalues --    1.06071   1.08260   1.09262   1.09672   1.10866
 Alpha virt. eigenvalues --    1.11668   1.13382   1.14184   1.15033   1.15874
 Alpha virt. eigenvalues --    1.17603   1.18999   1.19091   1.20190   1.20656
 Alpha virt. eigenvalues --    1.22019   1.23569   1.23684   1.25580   1.26068
 Alpha virt. eigenvalues --    1.26885   1.27332   1.28556   1.28655   1.29028
 Alpha virt. eigenvalues --    1.30643   1.31140   1.31370   1.31875   1.33264
 Alpha virt. eigenvalues --    1.34696   1.35755   1.38036   1.38940   1.39867
 Alpha virt. eigenvalues --    1.40424   1.40739   1.42580   1.44146   1.45177
 Alpha virt. eigenvalues --    1.46215   1.46651   1.48855   1.49649   1.51218
 Alpha virt. eigenvalues --    1.52588   1.53421   1.54203   1.55639   1.55995
 Alpha virt. eigenvalues --    1.56836   1.58235   1.59361   1.59986   1.60592
 Alpha virt. eigenvalues --    1.62030   1.63010   1.63307   1.64687   1.65281
 Alpha virt. eigenvalues --    1.65989   1.66995   1.67328   1.67802   1.68063
 Alpha virt. eigenvalues --    1.68897   1.69509   1.70161   1.71076   1.71596
 Alpha virt. eigenvalues --    1.71956   1.72799   1.73756   1.73889   1.75170
 Alpha virt. eigenvalues --    1.75557   1.76997   1.77681   1.78616   1.78997
 Alpha virt. eigenvalues --    1.79684   1.80393   1.80575   1.81343   1.81573
 Alpha virt. eigenvalues --    1.82823   1.84645   1.84946   1.85505   1.86336
 Alpha virt. eigenvalues --    1.87103   1.87363   1.87919   1.88190   1.89895
 Alpha virt. eigenvalues --    1.90377   1.90904   1.91076   1.91932   1.92269
 Alpha virt. eigenvalues --    1.92990   1.94003   1.94495   1.95782   1.96283
 Alpha virt. eigenvalues --    1.97651   1.98051   1.98875   2.00044   2.00597
 Alpha virt. eigenvalues --    2.01824   2.02592   2.03983   2.06258   2.07053
 Alpha virt. eigenvalues --    2.07582   2.08011   2.08742   2.08951   2.10408
 Alpha virt. eigenvalues --    2.13218   2.13390   2.14934   2.17606   2.19195
 Alpha virt. eigenvalues --    2.20315   2.21014   2.21526   2.22531   2.22670
 Alpha virt. eigenvalues --    2.23068   2.24330   2.24914   2.25667   2.26475
 Alpha virt. eigenvalues --    2.27005   2.27902   2.29490   2.30361   2.31053
 Alpha virt. eigenvalues --    2.31331   2.32763   2.33415   2.34389   2.34583
 Alpha virt. eigenvalues --    2.35919   2.37180   2.38537   2.39787   2.41365
 Alpha virt. eigenvalues --    2.41710   2.43945   2.44631   2.45057   2.47895
 Alpha virt. eigenvalues --    2.48996   2.49867   2.51164   2.52207   2.53743
 Alpha virt. eigenvalues --    2.54111   2.54507   2.55315   2.56126   2.57076
 Alpha virt. eigenvalues --    2.57472   2.60435   2.60849   2.61945   2.62551
 Alpha virt. eigenvalues --    2.63005   2.64760   2.66978   2.69070   2.71586
 Alpha virt. eigenvalues --    2.72787   2.75479   2.76915   2.78614   2.82272
 Alpha virt. eigenvalues --    2.84123   2.85564   2.88630   2.88879   2.89258
 Alpha virt. eigenvalues --    2.91995   2.95075   2.96405   2.96506   2.97939
 Alpha virt. eigenvalues --    3.05117   3.06518   3.08107   3.35862   3.69028
 Alpha virt. eigenvalues --    3.70889   3.74555   3.80083   3.88471   3.93479
 Alpha virt. eigenvalues --    3.97259   4.01167   4.02403   4.05646   4.06003
 Alpha virt. eigenvalues --    4.06773   4.10505   4.13442   4.14566   4.16778
 Alpha virt. eigenvalues --    4.18157   4.21381   4.24791   4.27423   4.30099
 Alpha virt. eigenvalues --    4.33440   4.37494   4.41541   4.44236   4.45499
 Alpha virt. eigenvalues --    4.46709   4.53215   4.56712   4.60728   4.70381
          Condensed to atoms (all electrons):
 Mulliken charges:
               1
     1  N   -0.729411
     2  C   -0.073912
     3  C    0.632658
     4  O   -0.565254
     5  C   -0.263024
     6  C   -0.367928
     7  C    0.600092
     8  O   -0.518551
     9  O   -0.521855
    10  H    0.415458
    11  H    0.314370
    12  H    0.155149
    13  H    0.161089
    14  H    0.187221
    15  H    0.225432
    16  H    0.206570
    17  H    0.321757
    18  N   -0.600497
    19  C   -0.065086
    20  C    0.647661
    21  O   -0.510182
    22  C   -0.379822
    23  C    0.143449
    24  C   -0.188248
    25  C   -0.184592
    26  C   -0.156845
    27  C   -0.195819
    28  C    0.354078
    29  O   -0.634899
    30  H    0.324113
    31  H    0.191435
    32  H    0.169288
    33  H    0.155586
    34  H    0.125652
    35  H    0.158547
    36  H    0.150367
    37  H    0.128885
    38  H    0.412704
    39  N   -0.636389
    40  C   -0.069840
    41  C    0.623544
    42  O   -0.522536
    43  C   -0.286585
    44  C   -0.307138
    45  C   -0.304945
    46  C   -0.184544
    47  N   -0.785305
    48  O   -0.537015
    49  H    0.420972
    50  H    0.393909
    51  H    0.232309
    52  H    0.163999
    53  H    0.185826
    54  H    0.186008
    55  H    0.164891
    56  H    0.188581
    57  H    0.175710
    58  H    0.211976
    59  H    0.206967
    60  H    0.397186
    61  H    0.428391
    62  H    0.428391
 Sum of Mulliken charges =   1.00000
 Mulliken charges with hydrogens summed into heavy atoms:
               1
     1  N   -0.093284
     2  C    0.081238
     3  C    0.632658
     4  O   -0.565254
     5  C    0.085286
     6  C    0.064074
     7  C    0.600092
     8  O   -0.518551
     9  O   -0.106397
    18  N   -0.276385
    19  C    0.126349
    20  C    0.647661
    21  O   -0.510182
    22  C   -0.054948
    23  C    0.143449
    24  C   -0.062596
    25  C   -0.026045
    26  C   -0.006478
    27  C   -0.066934
    28  C    0.354078
    29  O   -0.222194
    39  N   -0.242479
    40  C    0.162469
    41  C    0.623544
    42  O   -0.522536
    43  C    0.063239
    44  C    0.043761
    45  C    0.059347
    46  C    0.234399
    47  N    0.468663
    48  O   -0.116043
 Electronic spatial extent (au):  <R**2>=       20243048.9744
 Charge=              1.0000 electrons
 Dipole moment (field-independent basis, Debye):
    X=            -18.0032    Y=           -406.4216    Z=            611.0978  Tot=            734.1275
 Quadrupole moment (field-independent basis, Debye-Ang):
   XX=            -73.6217   YY=          34237.3985   ZZ=          77594.1411
   XY=           1518.8064   XZ=          -2290.9796   YZ=         -51730.6344
 Traceless Quadrupole moment (field-independent basis, Debye-Ang):
   XX=         -37326.2610   YY=          -3015.2408   ZZ=          40341.5018
   XY=           1518.8064   XZ=          -2290.9796   YZ=         -51730.6344
 Octapole moment (field-independent basis, Debye-Ang**2):
  XXX=            833.0650  YYY=       -2869701.9536  ZZZ=        9832141.8806  XYY=        -127784.7735
  XXY=           6647.0424  XXZ=          -9544.3856  XZZ=        -291162.2807  YZZ=       -6570916.0215
  YYZ=        4359588.4361  XYZ=         193315.5630
 Hexadecapole moment (field-independent basis, Debye-Ang**3):
 XXXX=         -11150.9518 YYYY=      239135329.9793 ZZZZ=     1243147806.3198 XXXY=         -71937.4192
 XXXZ=         106819.9203 YYYX=       10720039.1554 YYYZ=     -365540208.0608 ZZZX=      -36955771.0337
 ZZZY=     -832860493.8697 XXYY=        -601998.4249 XXZZ=       -1239660.4872 YYZZ=      553934863.0626
 XXYZ=         861426.5202 YYXZ=      -16267760.2169 ZZXY=       24573181.1189
 N-N= 3.363863712588D+03 E-N=-1.026273246323D+04  KE= 1.512240903488D+03
 Unable to Open any file for archive entry.
 1\1\GINC-VIM-002\SP\RB3LYP\6-31G(d)\C20H31N4O7(1+)\KENGMITH\24-May-202
 2\0\\# B3LYP/6-31G* empiricaldispersion=gd3 guess=read geom=check nosy
 mm integral(ultrafinegrid)\\Candidate Structure: Conf:472 Charge calc 
 in gas phase\\1,1\N,0,-6.1674463007,-87.1258441806,130.0180280859\C,0,
 -5.4122023699,-87.0253532501,128.7760387074\C,0,-4.1597673242,-87.9084
 967785,128.6000909344\O,0,-3.6261458503,-87.9995613211,127.4834782318\
 C,0,-6.348079424,-87.1980079406,127.5661342456\C,0,-7.3591006704,-86.0
 590446249,127.4379999809\C,0,-6.7702964797,-84.7702941299,126.92349673
 75\O,0,-5.5743222715,-84.550353964,126.7491489594\O,0,-7.7123802832,-8
 3.8553155442,126.6743187997\H,0,-7.2890977917,-83.0378623512,126.35229
 79367\H,0,-5.6734003963,-86.7677342622,130.8299020202\H,0,-5.002363493
 4,-86.0077028806,128.7329550609\H,0,-6.8959175193,-88.141788068,127.67
 64393421\H,0,-5.7425373846,-87.2812059896,126.6616699589\H,0,-7.819403
 5981,-85.8449521106,128.4119635457\H,0,-8.1846150259,-86.3244210189,12
 6.7675409637\H,0,-6.4831059193,-88.0735986113,130.2096669064\N,0,-3.64
 02650417,-88.4796053957,129.7084099374\C,0,-2.3113929348,-89.119480930
 8,129.746699059\C,0,-1.268932345,-87.9717924013,129.758097663\O,0,-0.7
 118389255,-87.5689298153,130.7662100726\C,0,-2.1771715669,-90.03920662
 09,130.9651273181\C,0,-0.9519426327,-90.9240818344,130.8699156631\C,0,
 -1.0150560143,-92.1474978521,130.1862612054\C,0,0.2739442795,-90.53523
 83696,131.421069006\C,0,0.1030822861,-92.9634416301,130.0554245584\C,0
 ,1.4031706744,-91.3442672162,131.3004606267\C,0,1.3216091686,-92.56245
 7183,130.6167952017\O,0,2.3850228349,-93.4023492356,130.4612994157\H,0
 ,-4.0792928406,-88.2793979569,130.5972071759\H,0,-2.2114898558,-89.700
 3463397,128.825129253\H,0,-2.1328333247,-89.4179780021,131.8668496914\
 H,0,-3.0829548671,-90.6548793934,131.0228783593\H,0,-1.9599063184,-92.
 4740907713,129.7559047243\H,0,0.3478075189,-89.5836185525,131.93778953
 41\H,0,0.053557559,-93.9142886963,129.5349361669\H,0,2.3476543044,-91.
 0296661379,131.7402915522\H,0,3.1586380859,-93.0330108787,130.91498588
 69\N,0,-1.1230207478,-87.3958073145,128.5200878052\C,0,-0.5967504823,-
 86.0607695992,128.3541839426\C,0,-1.6014585121,-84.9689287451,128.7498
 257269\O,0,-1.5802982546,-83.8230829134,128.3143704069\C,0,-0.05375655
 28,-85.8367119646,126.9273294387\C,0,-0.9897344745,-86.267322758,125.7
 771721856\C,0,-2.3684361279,-85.5827830991,125.706252227\C,0,-2.283522
 7276,-84.0985292105,125.3055292712\N,0,-3.1847319511,-83.2438703427,12
 6.1728121634\O,0,-2.5146442343,-85.3591543093,129.6489678291\H,0,-3.02
 14137323,-84.5669180925,129.9119547086\H,0,-1.8069797209,-87.700984593
 8,127.8291051079\H,0,0.2229791635,-85.9387379798,129.0753770951\H,0,0.
 2276964568,-84.7828270501,126.8346341696\H,0,0.8696942888,-86.41727063
 02,126.8391798052\H,0,-1.1571548926,-87.3482566905,125.8287519398\H,0,
 -0.4569325799,-86.1010626623,124.8320691708\H,0,-2.9921783768,-86.1150
 062666,124.9818826503\H,0,-2.9032625129,-85.7032199013,126.6540742109\
 H,0,-1.2797286185,-83.6920019148,125.4426504491\H,0,-2.585162348,-83.9
 338231127,124.2690033083\H,0,-3.2205063975,-82.2747316031,125.84451498
 62\H,0,-2.7820699523,-83.2492355821,127.1314938993\H,0,-4.1528444839,-
 83.6226017436,126.2345507739\\Version=ES64L-G16RevC.01\HF=-1526.308968
 9\RMSD=8.639e-09\Dipole=-2.3018724,5.4122592,-2.6308048\Quadrupole=-27
 751.1602346,-2241.7576364,29992.917871,1129.1953014,-1703.2871638,-384
 60.4587567\PG=C01 [X(C20H31N4O7)]\\@
 The archive entry for this job was punched.


 STEINBACH'S GUIDELINES FOR SYSTEMS PROGRAMMING:
 NEVER TEST FOR AN ERROR CONDITION YOU DON'T KNOW HOW
 TO HANDLE.
 Job cpu time:       0 days  0 hours  2 minutes 28.5 seconds.
 Elapsed time:       0 days  0 hours  0 minutes 37.7 seconds.
 File lengths (MBytes):  RWF=    264 Int=      0 D2E=      0 Chk=     40 Scr=     16
 Normal termination of Gaussian 16 at Tue May 24 19:13:35 2022.
