 Entering Gaussian System, Link 0=/opt/software/Gaussian/g16-AVX2-C.01/g16/g16
 Input=charge-conf-123.com
 Output=charge-conf-123.log
 Initial command:
 /opt/software/Gaussian/g16-AVX2-C.01/g16/l1.exe "/mnt/gs18/scratch/users/kengmith/Gau-56892.inp" -scrdir="/mnt/gs18/scratch/users/kengmith/"
 Entering Link 1 = /opt/software/Gaussian/g16-AVX2-C.01/g16/l1.exe PID=     56905.
  
 Copyright (c) 1988-2019, Gaussian, Inc.  All Rights Reserved.
  
 This is part of the Gaussian(R) 16 program.  It is based on
 the Gaussian(R) 09 system (copyright 2009, Gaussian, Inc.),
 the Gaussian(R) 03 system (copyright 2003, Gaussian, Inc.),
 the Gaussian(R) 98 system (copyright 1998, Gaussian, Inc.),
 the Gaussian(R) 94 system (copyright 1995, Gaussian, Inc.),
 the Gaussian 92(TM) system (copyright 1992, Gaussian, Inc.),
 the Gaussian 90(TM) system (copyright 1990, Gaussian, Inc.),
 the Gaussian 88(TM) system (copyright 1988, Gaussian, Inc.),
 the Gaussian 86(TM) system (copyright 1986, Carnegie Mellon
 University), and the Gaussian 82(TM) system (copyright 1983,
 Carnegie Mellon University). Gaussian is a federally registered
 trademark of Gaussian, Inc.
  
 This software contains proprietary and confidential information,
 including trade secrets, belonging to Gaussian, Inc.
  
 This software is provided under written license and may be
 used, copied, transmitted, or stored only in accord with that
 written license.
  
 The following legend is applicable only to US Government
 contracts under FAR:
  
                    RESTRICTED RIGHTS LEGEND
  
 Use, reproduction and disclosure by the US Government is
 subject to restrictions as set forth in subparagraphs (a)
 and (c) of the Commercial Computer Software - Restricted
 Rights clause in FAR 52.227-19.
  
 Gaussian, Inc.
 340 Quinnipiac St., Bldg. 40, Wallingford CT 06492
  
  
 ---------------------------------------------------------------
 Warning -- This program may not be used in any manner that
 competes with the business of Gaussian, Inc. or will provide
 assistance to any competitor of Gaussian, Inc.  The licensee
 of this program is prohibited from giving any competitor of
 Gaussian, Inc. access to this program.  By using this program,
 the user acknowledges that Gaussian, Inc. is engaged in the
 business of creating and licensing software in the field of
 computational chemistry and represents and warrants to the
 licensee that it is not a competitor of Gaussian, Inc. and that
 it will not use this program in any manner prohibited above.
 ---------------------------------------------------------------
  

 Cite this work as:
 Gaussian 16, Revision C.01,
 M. J. Frisch, G. W. Trucks, H. B. Schlegel, G. E. Scuseria, 
 M. A. Robb, J. R. Cheeseman, G. Scalmani, V. Barone, 
 G. A. Petersson, H. Nakatsuji, X. Li, M. Caricato, A. V. Marenich, 
 J. Bloino, B. G. Janesko, R. Gomperts, B. Mennucci, H. P. Hratchian, 
 J. V. Ortiz, A. F. Izmaylov, J. L. Sonnenberg, D. Williams-Young, 
 F. Ding, F. Lipparini, F. Egidi, J. Goings, B. Peng, A. Petrone, 
 T. Henderson, D. Ranasinghe, V. G. Zakrzewski, J. Gao, N. Rega, 
 G. Zheng, W. Liang, M. Hada, M. Ehara, K. Toyota, R. Fukuda, 
 J. Hasegawa, M. Ishida, T. Nakajima, Y. Honda, O. Kitao, H. Nakai, 
 T. Vreven, K. Throssell, J. A. Montgomery, Jr., J. E. Peralta, 
 F. Ogliaro, M. J. Bearpark, J. J. Heyd, E. N. Brothers, K. N. Kudin, 
 V. N. Staroverov, T. A. Keith, R. Kobayashi, J. Normand, 
 K. Raghavachari, A. P. Rendell, J. C. Burant, S. S. Iyengar, 
 J. Tomasi, M. Cossi, J. M. Millam, M. Klene, C. Adamo, R. Cammi, 
 J. W. Ochterski, R. L. Martin, K. Morokuma, O. Farkas, 
 J. B. Foresman, and D. J. Fox, Gaussian, Inc., Wallingford CT, 2019.
 
 ******************************************
 Gaussian 16:  ES64L-G16RevC.01  3-Jul-2019
                24-May-2022 
 ******************************************
 %mem=8gb
 %nproc=4
 Will use up to    4 processors via shared memory.
 %chk=conf-123.chk
 ----------------------------------------------------------------------
 # B3LYP/6-31G* empiricaldispersion=gd3 guess=read geom=check nosymm in
 tegral(ultrafinegrid)
 ----------------------------------------------------------------------
 1/29=2,38=1,172=1/1;
 2/12=2,15=1,40=1/2;
 3/5=1,6=6,7=1,11=2,14=-4,25=1,30=1,74=-5,75=-5,116=-2,124=31/1,2,3;
 4/5=1/1;
 5/5=2,38=6/2;
 6/7=2,8=2,9=2,10=2,28=1/1;
 99/5=1,9=1/99;
 ------------------------------------------------------
 Candidate Structure: Conf:123 Charge calc in gas phase
 ------------------------------------------------------
 Structure from the checkpoint file:  "conf-123.chk"
 Charge =  1 Multiplicity = 1
 Redundant internal coordinates found in file.  (old form).
 N,0,-4.1592638727,-91.0185615719,130.7975606422
 C,0,-4.1633549374,-90.6120340295,129.3898107704
 C,0,-3.0603082304,-89.5670345337,129.1560831677
 O,0,-2.574411569,-89.3945487854,128.0257599684
 C,0,-4.0776444642,-91.7746108955,128.3746987984
 C,0,-4.5233595387,-91.4384816944,126.9366395647
 C,0,-3.4982794962,-90.789066732,126.0379752618
 O,0,-3.7058463721,-89.8078618286,125.324948788
 O,0,-2.3622376274,-91.4758390128,125.9758839354
 H,0,-1.7504939488,-91.0035233541,125.3798960429
 H,0,-3.3982423838,-91.672117615,130.9796063962
 H,0,-5.1125578812,-90.0796730959,129.225298091
 H,0,-4.7409808977,-92.563667236,128.7458673501
 H,0,-3.0637875155,-92.1883420713,128.3594200331
 H,0,-5.4152305346,-90.8028826064,126.9460051855
 H,0,-4.8048187398,-92.3709203036,126.4295460156
 H,0,-5.0250312513,-91.493632665,131.0416939124
 N,0,-2.703595565,-88.8625210641,130.2421411569
 C,0,-1.6651177769,-87.8264708277,130.2435324973
 C,0,-2.2186102479,-86.5851807037,129.5094071022
 O,0,-2.8297335396,-85.6849985693,130.0731660654
 C,0,-1.2466595503,-87.4831302396,131.6797123233
 C,0,-0.0205779921,-86.5961874164,131.7101895607
 C,0,-0.1319325437,-85.2019928821,131.7551108934
 C,0,1.263421164,-87.1584259285,131.6528425003
 C,0,1.0023384183,-84.39098212,131.7484102122
 C,0,2.4035745769,-86.3628847631,131.6432595449
 C,0,2.2753663445,-84.9692490913,131.6928149241
 O,0,3.4264288812,-84.2378924927,131.6837830172
 H,0,-3.1758704834,-89.1130863045,131.1070436988
 H,0,-0.8029291363,-88.2163971915,129.6909909935
 H,0,-2.0919209005,-86.9930563808,132.1747945035
 H,0,-1.0462869283,-88.4241122953,132.2069289836
 H,0,-1.1169597775,-84.7464018168,131.7837374411
 H,0,1.3747140451,-88.2408257518,131.6264893743
 H,0,0.8980308839,-83.3085055664,131.7905998674
 H,0,3.3976889389,-86.7965423038,131.6092767906
 H,0,3.2122110212,-83.2947315522,131.7565646756
 N,0,-2.0183106221,-86.6143474116,128.1621150989
 C,0,-2.680692968,-85.6643863494,127.280847166
 C,0,-4.1022921607,-85.3741846787,127.7719248976
 O,0,-4.9883439168,-86.2223013606,127.8371629067
 C,0,-2.7418281907,-86.3060339239,125.8799987552
 C,0,-3.6207282275,-85.5766748253,124.8380857115
 C,0,-4.4132421351,-86.5450607265,123.9370345055
 C,0,-5.7477728567,-87.0351771835,124.5060910857
 N,0,-5.6064392557,-87.8955303701,125.741102464
 O,0,-4.3250948275,-84.0859288507,128.0026804502
 H,0,-5.2425614423,-83.9845328193,128.3234968578
 H,0,-1.8179256115,-87.5354406359,127.7786025194
 H,0,-2.1366431724,-84.7152157716,127.2646603373
 H,0,-1.7157652692,-86.3923489354,125.5066958663
 H,0,-3.083746091,-87.3374173642,126.0168687328
 H,0,-2.9869312547,-84.9466286366,124.2067416945
 H,0,-4.3231404728,-84.8847529328,125.3216957776
 H,0,-4.6706244182,-86.0419937963,122.9976290403
 H,0,-3.7926856608,-87.4083456136,123.6654631188
 H,0,-6.3897546507,-86.1945965392,124.7852881983
 H,0,-6.2748373037,-87.6429806365,123.7661718538
 H,0,-5.2656287268,-87.342326528,126.5635137982
 H,0,-4.9374363596,-88.696189223,125.5819889183
 H,0,-6.515362207,-88.2839258744,126.0065147151
 Recover connectivity data from disk.
                           ----------------------------
                           !    Current Parameters    !
                           ! (Angstroms and Degrees)  !
 --------------------------                            --------------------------
 ! Name  Definition              Value                                          !
 --------------------------------------------------------------------------------
 ! R1    R(1,2)                  1.4653                                         !
 ! R2    R(1,11)                 1.0195                                         !
 ! R3    R(1,17)                 1.0173                                         !
 ! R4    R(2,3)                  1.5373                                         !
 ! R5    R(2,5)                  1.5458                                         !
 ! R6    R(2,12)                 1.1007                                         !
 ! R7    R(3,4)                  1.2424                                         !
 ! R8    R(3,18)                 1.3428                                         !
 ! R9    R(5,6)                  1.5426                                         !
 ! R10   R(5,13)                 1.0956                                         !
 ! R11   R(5,14)                 1.0951                                         !
 ! R12   R(6,7)                  1.51                                           !
 ! R13   R(6,15)                 1.0952                                         !
 ! R14   R(6,16)                 1.0981                                         !
 ! R15   R(7,8)                  1.2306                                         !
 ! R16   R(7,9)                  1.3289                                         !
 ! R17   R(9,10)                 0.976                                          !
 ! R18   R(18,19)                1.4669                                         !
 ! R19   R(18,30)                1.0168                                         !
 ! R20   R(19,20)                1.5447                                         !
 ! R21   R(19,22)                1.5348                                         !
 ! R22   R(19,31)                1.0958                                         !
 ! R23   R(20,21)                1.2254                                         !
 ! R24   R(20,39)                1.3624                                         !
 ! R25   R(22,23)                1.5136                                         !
 ! R26   R(22,32)                1.0953                                         !
 ! R27   R(22,33)                1.0971                                         !
 ! R28   R(23,24)                1.3994                                         !
 ! R29   R(23,25)                1.4029                                         !
 ! R30   R(24,26)                1.3944                                         !
 ! R31   R(24,34)                1.0857                                         !
 ! R32   R(25,27)                1.3903                                         !
 ! R33   R(25,35)                1.0884                                         !
 ! R34   R(26,28)                1.3993                                         !
 ! R35   R(26,36)                1.0883                                         !
 ! R36   R(27,28)                1.4004                                         !
 ! R37   R(27,37)                1.0851                                         !
 ! R38   R(28,29)                1.3638                                         !
 ! R39   R(29,38)                0.9699                                         !
 ! R40   R(39,40)                1.4553                                         !
 ! R41   R(39,50)                1.0177                                         !
 ! R42   R(40,41)                1.5318                                         !
 ! R43   R(40,43)                1.542                                          !
 ! R44   R(40,51)                1.0942                                         !
 ! R45   R(41,42)                1.2283                                         !
 ! R46   R(41,48)                1.3276                                         !
 ! R47   R(43,44)                1.546                                          !
 ! R48   R(43,52)                1.0953                                         !
 ! R49   R(43,53)                1.0952                                         !
 ! R50   R(44,45)                1.542                                          !
 ! R51   R(44,54)                1.0942                                         !
 ! R52   R(44,55)                1.0982                                         !
 ! R53   R(45,46)                1.5313                                         !
 ! R54   R(45,56)                1.0963                                         !
 ! R55   R(45,57)                1.0973                                         !
 ! R56   R(46,47)                1.5118                                         !
 ! R57   R(46,58)                1.0939                                         !
 ! R58   R(46,59)                1.093                                          !
 ! R59   R(47,60)                1.0481                                         !
 ! R60   R(47,61)                1.0554                                         !
 ! R61   R(47,62)                1.0234                                         !
 ! R62   R(48,49)                0.9772                                         !
 ! A1    A(2,1,11)             110.5781                                         !
 ! A2    A(2,1,17)             110.9624                                         !
 ! A3    A(11,1,17)            107.041                                          !
 ! A4    A(1,2,3)              109.4299                                         !
 ! A5    A(1,2,5)              114.9675                                         !
 ! A6    A(1,2,12)             106.272                                          !
 ! A7    A(3,2,5)              111.8154                                         !
 ! A8    A(3,2,12)             105.5021                                         !
 ! A9    A(5,2,12)             108.2664                                         !
 ! A10   A(2,3,4)              120.8853                                         !
 ! A11   A(2,3,18)             115.105                                          !
 ! A12   A(4,3,18)             123.995                                          !
 ! A13   A(2,5,6)              115.6132                                         !
 ! A14   A(2,5,13)             106.5955                                         !
 ! A15   A(2,5,14)             110.1595                                         !
 ! A16   A(6,5,13)             107.3258                                         !
 ! A17   A(6,5,14)             109.6823                                         !
 ! A18   A(13,5,14)            107.0469                                         !
 ! A19   A(5,6,7)              116.8957                                         !
 ! A20   A(5,6,15)             110.7181                                         !
 ! A21   A(5,6,16)             108.6345                                         !
 ! A22   A(7,6,15)             107.9577                                         !
 ! A23   A(7,6,16)             105.3292                                         !
 ! A24   A(15,6,16)            106.7391                                         !
 ! A25   A(6,7,8)              124.9782                                         !
 ! A26   A(6,7,9)              112.6977                                         !
 ! A27   A(8,7,9)              121.9504                                         !
 ! A28   A(7,9,10)             108.3162                                         !
 ! A29   A(3,18,19)            124.0133                                         !
 ! A30   A(3,18,30)            115.8045                                         !
 ! A31   A(19,18,30)           120.1359                                         !
 ! A32   A(18,19,20)           108.2664                                         !
 ! A33   A(18,19,22)           110.6036                                         !
 ! A34   A(18,19,31)           107.7714                                         !
 ! A35   A(20,19,22)           111.2629                                         !
 ! A36   A(20,19,31)           109.162                                          !
 ! A37   A(22,19,31)           109.6897                                         !
 ! A38   A(19,20,21)           123.3917                                         !
 ! A39   A(19,20,39)           113.5843                                         !
 ! A40   A(21,20,39)           122.9563                                         !
 ! A41   A(19,22,23)           111.7646                                         !
 ! A42   A(19,22,32)           108.2184                                         !
 ! A43   A(19,22,33)           107.9153                                         !
 ! A44   A(23,22,32)           110.722                                          !
 ! A45   A(23,22,33)           110.1815                                         !
 ! A46   A(32,22,33)           107.9084                                         !
 ! A47   A(22,23,24)           121.3336                                         !
 ! A48   A(22,23,25)           120.3808                                         !
 ! A49   A(24,23,25)           118.258                                          !
 ! A50   A(23,24,26)           120.97                                           !
 ! A51   A(23,24,34)           119.4157                                         !
 ! A52   A(26,24,34)           119.6103                                         !
 ! A53   A(23,25,27)           121.4357                                         !
 ! A54   A(23,25,35)           119.5468                                         !
 ! A55   A(27,25,35)           119.0138                                         !
 ! A56   A(24,26,28)           119.9914                                         !
 ! A57   A(24,26,36)           120.0233                                         !
 ! A58   A(28,26,36)           119.9847                                         !
 ! A59   A(25,27,28)           119.6119                                         !
 ! A60   A(25,27,37)           121.523                                          !
 ! A61   A(28,27,37)           118.8615                                         !
 ! A62   A(26,28,27)           119.7324                                         !
 ! A63   A(26,28,29)           123.1271                                         !
 ! A64   A(27,28,29)           117.1405                                         !
 ! A65   A(28,29,38)           109.5462                                         !
 ! A66   A(20,39,40)           121.1954                                         !
 ! A67   A(20,39,50)           114.8976                                         !
 ! A68   A(40,39,50)           116.8874                                         !
 ! A69   A(39,40,41)           110.6068                                         !
 ! A70   A(39,40,43)           107.2506                                         !
 ! A71   A(39,40,51)           110.4208                                         !
 ! A72   A(41,40,43)           109.4682                                         !
 ! A73   A(41,40,51)           107.5695                                         !
 ! A74   A(43,40,51)           111.5458                                         !
 ! A75   A(40,41,42)           123.7595                                         !
 ! A76   A(40,41,48)           113.286                                          !
 ! A77   A(42,41,48)           122.6661                                         !
 ! A78   A(40,43,44)           116.0071                                         !
 ! A79   A(40,43,52)           107.7751                                         !
 ! A80   A(40,43,53)           106.9009                                         !
 ! A81   A(44,43,52)           109.8808                                         !
 ! A82   A(44,43,53)           110.551                                          !
 ! A83   A(52,43,53)           105.121                                          !
 ! A84   A(43,44,45)           112.9375                                         !
 ! A85   A(43,44,54)           109.343                                          !
 ! A86   A(43,44,55)           111.3513                                         !
 ! A87   A(45,44,54)           108.7932                                         !
 ! A88   A(45,44,55)           108.9219                                         !
 ! A89   A(54,44,55)           105.176                                          !
 ! A90   A(44,45,46)           115.5789                                         !
 ! A91   A(44,45,56)           109.4636                                         !
 ! A92   A(44,45,57)           110.3671                                         !
 ! A93   A(46,45,56)           105.1115                                         !
 ! A94   A(46,45,57)           109.4516                                         !
 ! A95   A(56,45,57)           106.3628                                         !
 ! A96   A(45,46,47)           113.8441                                         !
 ! A97   A(45,46,58)           111.1214                                         !
 ! A98   A(45,46,59)           110.2826                                         !
 ! A99   A(47,46,58)           106.4793                                         !
 ! A100  A(47,46,59)           106.3579                                         !
 ! A101  A(58,46,59)           108.4863                                         !
 ! A102  A(46,47,60)           111.7794                                         !
 ! A103  A(46,47,61)           111.5818                                         !
 ! A104  A(46,47,62)           110.1698                                         !
 ! A105  A(60,47,61)           108.2148                                         !
 ! A106  A(60,47,62)           106.5944                                         !
 ! A107  A(61,47,62)           108.3092                                         !
 ! A108  A(41,48,49)           108.3797                                         !
 ! D1    D(11,1,2,3)           -77.5983                                         !
 ! D2    D(11,1,2,5)            49.1947                                         !
 ! D3    D(11,1,2,12)          168.9358                                         !
 ! D4    D(17,1,2,3)           163.7784                                         !
 ! D5    D(17,1,2,5)           -69.4287                                         !
 ! D6    D(17,1,2,12)           50.3125                                         !
 ! D7    D(1,2,3,4)            156.2466                                         !
 ! D8    D(1,2,3,18)           -25.0928                                         !
 ! D9    D(5,2,3,4)             27.6877                                         !
 ! D10   D(5,2,3,18)          -153.6517                                         !
 ! D11   D(12,2,3,4)           -89.7887                                         !
 ! D12   D(12,2,3,18)           88.8718                                         !
 ! D13   D(1,2,5,6)            161.3216                                         !
 ! D14   D(1,2,5,13)            42.146                                          !
 ! D15   D(1,2,5,14)           -73.6567                                         !
 ! D16   D(3,2,5,6)            -73.1131                                         !
 ! D17   D(3,2,5,13)           167.7112                                         !
 ! D18   D(3,2,5,14)            51.9086                                         !
 ! D19   D(12,2,5,6)            42.6906                                         !
 ! D20   D(12,2,5,13)          -76.4851                                         !
 ! D21   D(12,2,5,14)          167.7122                                         !
 ! D22   D(2,3,18,19)          179.4297                                         !
 ! D23   D(2,3,18,30)            1.9094                                         !
 ! D24   D(4,3,18,19)           -1.9568                                         !
 ! D25   D(4,3,18,30)         -179.477                                          !
 ! D26   D(2,5,6,7)             83.5354                                         !
 ! D27   D(2,5,6,15)           -40.6215                                         !
 ! D28   D(2,5,6,16)          -157.526                                          !
 ! D29   D(13,5,6,7)          -157.6912                                         !
 ! D30   D(13,5,6,15)           78.1519                                         !
 ! D31   D(13,5,6,16)          -38.7526                                         !
 ! D32   D(14,5,6,7)           -41.7319                                         !
 ! D33   D(14,5,6,15)         -165.8888                                         !
 ! D34   D(14,5,6,16)           77.2067                                         !
 ! D35   D(5,6,7,8)           -133.5335                                         !
 ! D36   D(5,6,7,9)             53.396                                          !
 ! D37   D(15,6,7,8)            -7.9853                                         !
 ! D38   D(15,6,7,9)           178.9443                                         !
 ! D39   D(16,6,7,8)           105.7664                                         !
 ! D40   D(16,6,7,9)           -67.304                                          !
 ! D41   D(6,7,9,10)           179.8358                                         !
 ! D42   D(8,7,9,10)             6.5264                                         !
 ! D43   D(3,18,19,20)          72.7592                                         !
 ! D44   D(3,18,19,22)        -165.095                                          !
 ! D45   D(3,18,19,31)         -45.1953                                         !
 ! D46   D(30,18,19,20)       -109.8222                                         !
 ! D47   D(30,18,19,22)         12.3236                                         !
 ! D48   D(30,18,19,31)        132.2233                                         !
 ! D49   D(18,19,20,21)         89.5455                                         !
 ! D50   D(18,19,20,39)        -87.5381                                         !
 ! D51   D(22,19,20,21)        -32.1958                                         !
 ! D52   D(22,19,20,39)        150.7206                                         !
 ! D53   D(31,19,20,21)       -153.3917                                         !
 ! D54   D(31,19,20,39)         29.5247                                         !
 ! D55   D(18,19,22,23)        170.3001                                         !
 ! D56   D(18,19,22,32)        -67.5247                                         !
 ! D57   D(18,19,22,33)         49.0028                                         !
 ! D58   D(20,19,22,23)        -69.3281                                         !
 ! D59   D(20,19,22,32)         52.8471                                         !
 ! D60   D(20,19,22,33)        169.3746                                         !
 ! D61   D(31,19,22,23)         51.5586                                         !
 ! D62   D(31,19,22,32)        173.7338                                         !
 ! D63   D(31,19,22,33)        -69.7387                                         !
 ! D64   D(19,20,39,40)        168.4987                                         !
 ! D65   D(19,20,39,50)         18.7425                                         !
 ! D66   D(21,20,39,40)         -8.5994                                         !
 ! D67   D(21,20,39,50)       -158.3555                                         !
 ! D68   D(19,22,23,24)         92.7747                                         !
 ! D69   D(19,22,23,25)        -85.2827                                         !
 ! D70   D(32,22,23,24)        -27.9532                                         !
 ! D71   D(32,22,23,25)        153.9894                                         !
 ! D72   D(33,22,23,24)       -147.2492                                         !
 ! D73   D(33,22,23,25)         34.6934                                         !
 ! D74   D(22,23,24,26)       -178.3431                                         !
 ! D75   D(22,23,24,34)          0.9287                                         !
 ! D76   D(25,23,24,26)         -0.2457                                         !
 ! D77   D(25,23,24,34)        179.0262                                         !
 ! D78   D(22,23,25,27)        178.2559                                         !
 ! D79   D(22,23,25,35)         -2.4465                                         !
 ! D80   D(24,23,25,27)          0.1397                                         !
 ! D81   D(24,23,25,35)        179.4373                                         !
 ! D82   D(23,24,26,28)          0.1592                                         !
 ! D83   D(23,24,26,36)       -179.5855                                         !
 ! D84   D(34,24,26,28)       -179.1112                                         !
 ! D85   D(34,24,26,36)          1.1441                                         !
 ! D86   D(23,25,27,28)          0.053                                          !
 ! D87   D(23,25,27,37)        179.3586                                         !
 ! D88   D(35,25,27,28)       -179.2482                                         !
 ! D89   D(35,25,27,37)          0.0574                                         !
 ! D90   D(24,26,28,27)          0.0389                                         !
 ! D91   D(24,26,28,29)       -179.9635                                         !
 ! D92   D(36,26,28,27)        179.7836                                         !
 ! D93   D(36,26,28,29)         -0.2187                                         !
 ! D94   D(25,27,28,26)         -0.1432                                         !
 ! D95   D(25,27,28,29)        179.859                                          !
 ! D96   D(37,27,28,26)       -179.4674                                         !
 ! D97   D(37,27,28,29)          0.5348                                         !
 ! D98   D(26,28,29,38)          2.231                                          !
 ! D99   D(27,28,29,38)       -177.7713                                         !
 ! D100  D(20,39,40,41)        -36.954                                          !
 ! D101  D(20,39,40,43)       -156.2681                                         !
 ! D102  D(20,39,40,51)         82.0005                                         !
 ! D103  D(50,39,40,41)        112.2324                                         !
 ! D104  D(50,39,40,43)         -7.0816                                         !
 ! D105  D(50,39,40,51)       -128.8131                                         !
 ! D106  D(39,40,41,42)        -63.2599                                         !
 ! D107  D(39,40,41,48)        122.7749                                         !
 ! D108  D(43,40,41,42)         54.7064                                         !
 ! D109  D(43,40,41,48)       -119.2588                                         !
 ! D110  D(51,40,41,42)        176.0723                                         !
 ! D111  D(51,40,41,48)          2.1071                                         !
 ! D112  D(39,40,43,44)        169.83                                           !
 ! D113  D(39,40,43,52)        -66.545                                          !
 ! D114  D(39,40,43,53)         46.0185                                         !
 ! D115  D(41,40,43,44)         49.7873                                         !
 ! D116  D(41,40,43,52)        173.4123                                         !
 ! D117  D(41,40,43,53)        -74.0242                                         !
 ! D118  D(51,40,43,44)        -69.146                                          !
 ! D119  D(51,40,43,52)         54.4791                                         !
 ! D120  D(51,40,43,53)        167.0425                                         !
 ! D121  D(40,41,48,49)       -179.1517                                         !
 ! D122  D(42,41,48,49)          6.8078                                         !
 ! D123  D(40,43,44,45)       -140.8274                                         !
 ! D124  D(40,43,44,54)         97.8876                                         !
 ! D125  D(40,43,44,55)        -17.9052                                         !
 ! D126  D(52,43,44,45)         96.6501                                         !
 ! D127  D(52,43,44,54)        -24.6348                                         !
 ! D128  D(52,43,44,55)       -140.4277                                         !
 ! D129  D(53,43,44,45)        -18.9324                                         !
 ! D130  D(53,43,44,54)       -140.2174                                         !
 ! D131  D(53,43,44,55)        103.9898                                         !
 ! D132  D(43,44,45,46)         84.8708                                         !
 ! D133  D(43,44,45,56)       -156.7238                                         !
 ! D134  D(43,44,45,57)        -39.9853                                         !
 ! D135  D(54,44,45,46)       -153.5333                                         !
 ! D136  D(54,44,45,56)        -35.128                                          !
 ! D137  D(54,44,45,57)         81.6105                                         !
 ! D138  D(55,44,45,46)        -39.3926                                         !
 ! D139  D(55,44,45,56)         79.0127                                         !
 ! D140  D(55,44,45,57)       -164.2488                                         !
 ! D141  D(44,45,46,47)        -65.4675                                         !
 ! D142  D(44,45,46,58)         54.745                                          !
 ! D143  D(44,45,46,59)        175.086                                          !
 ! D144  D(56,45,46,47)        173.7418                                         !
 ! D145  D(56,45,46,58)        -66.0457                                         !
 ! D146  D(56,45,46,59)         54.2953                                         !
 ! D147  D(57,45,46,47)         59.8606                                         !
 ! D148  D(57,45,46,58)       -179.9269                                         !
 ! D149  D(57,45,46,59)        -59.5859                                         !
 ! D150  D(45,46,47,60)         68.5422                                         !
 ! D151  D(45,46,47,61)        -52.7922                                         !
 ! D152  D(45,46,47,62)       -173.1369                                         !
 ! D153  D(58,46,47,60)        -54.2499                                         !
 ! D154  D(58,46,47,61)       -175.5843                                         !
 ! D155  D(58,46,47,62)         64.071                                          !
 ! D156  D(59,46,47,60)       -169.8088                                         !
 ! D157  D(59,46,47,61)         68.8568                                         !
 ! D158  D(59,46,47,62)        -51.4879                                         !
 --------------------------------------------------------------------------------
 Symmetry turned off by external request.
 Stoichiometry    C20H31N4O7(1+)
 Framework group  C1[X(C20H31N4O7)]
 Deg. of freedom   180
 Full point group                 C1      NOp   1
                          Input orientation:                          
 ---------------------------------------------------------------------
 Center     Atomic      Atomic             Coordinates (Angstroms)
 Number     Number       Type             X           Y           Z
 ---------------------------------------------------------------------
      1          7           0       -4.159264  -91.018562  130.797561
      2          6           0       -4.163355  -90.612034  129.389811
      3          6           0       -3.060308  -89.567035  129.156083
      4          8           0       -2.574412  -89.394549  128.025760
      5          6           0       -4.077644  -91.774611  128.374699
      6          6           0       -4.523360  -91.438482  126.936640
      7          6           0       -3.498279  -90.789067  126.037975
      8          8           0       -3.705846  -89.807862  125.324949
      9          8           0       -2.362238  -91.475839  125.975884
     10          1           0       -1.750494  -91.003523  125.379896
     11          1           0       -3.398242  -91.672118  130.979606
     12          1           0       -5.112558  -90.079673  129.225298
     13          1           0       -4.740981  -92.563667  128.745867
     14          1           0       -3.063788  -92.188342  128.359420
     15          1           0       -5.415231  -90.802883  126.946005
     16          1           0       -4.804819  -92.370920  126.429546
     17          1           0       -5.025031  -91.493633  131.041694
     18          7           0       -2.703596  -88.862521  130.242141
     19          6           0       -1.665118  -87.826471  130.243532
     20          6           0       -2.218610  -86.585181  129.509407
     21          8           0       -2.829734  -85.684999  130.073166
     22          6           0       -1.246660  -87.483130  131.679712
     23          6           0       -0.020578  -86.596187  131.710190
     24          6           0       -0.131933  -85.201993  131.755111
     25          6           0        1.263421  -87.158426  131.652843
     26          6           0        1.002338  -84.390982  131.748410
     27          6           0        2.403575  -86.362885  131.643260
     28          6           0        2.275366  -84.969249  131.692815
     29          8           0        3.426429  -84.237892  131.683783
     30          1           0       -3.175870  -89.113086  131.107044
     31          1           0       -0.802929  -88.216397  129.690991
     32          1           0       -2.091921  -86.993056  132.174795
     33          1           0       -1.046287  -88.424112  132.206929
     34          1           0       -1.116960  -84.746402  131.783737
     35          1           0        1.374714  -88.240826  131.626489
     36          1           0        0.898031  -83.308506  131.790600
     37          1           0        3.397689  -86.796542  131.609277
     38          1           0        3.212211  -83.294732  131.756565
     39          7           0       -2.018311  -86.614347  128.162115
     40          6           0       -2.680693  -85.664386  127.280847
     41          6           0       -4.102292  -85.374185  127.771925
     42          8           0       -4.988344  -86.222301  127.837163
     43          6           0       -2.741828  -86.306034  125.879999
     44          6           0       -3.620728  -85.576675  124.838086
     45          6           0       -4.413242  -86.545061  123.937035
     46          6           0       -5.747773  -87.035177  124.506091
     47          7           0       -5.606439  -87.895530  125.741102
     48          8           0       -4.325095  -84.085929  128.002680
     49          1           0       -5.242561  -83.984533  128.323497
     50          1           0       -1.817926  -87.535441  127.778603
     51          1           0       -2.136643  -84.715216  127.264660
     52          1           0       -1.715765  -86.392349  125.506696
     53          1           0       -3.083746  -87.337417  126.016869
     54          1           0       -2.986931  -84.946629  124.206742
     55          1           0       -4.323140  -84.884753  125.321696
     56          1           0       -4.670624  -86.041994  122.997629
     57          1           0       -3.792686  -87.408346  123.665463
     58          1           0       -6.389755  -86.194597  124.785288
     59          1           0       -6.274837  -87.642981  123.766172
     60          1           0       -5.265629  -87.342327  126.563514
     61          1           0       -4.937436  -88.696189  125.581989
     62          1           0       -6.515362  -88.283926  126.006515
 ---------------------------------------------------------------------
 Rotational constants (GHZ):           0.1900965           0.0890301           0.0722083
 Standard basis: 6-31G(d) (6D, 7F)
   527 basis functions,   992 primitive gaussians,   527 cartesian basis functions
   117 alpha electrons      117 beta electrons
       nuclear repulsion energy      3378.7560919181 Hartrees.
 NAtoms=   62 NActive=   62 NUniq=   62 SFac= 1.00D+00 NAtFMM=   60 NAOKFM=T Big=T
 Integral buffers will be    131072 words long.
 Raffenetti 2 integral format.
 Two-electron integral symmetry is turned off.
 Nuclear repulsion after empirical dispersion term =     3378.6756770270 Hartrees.
 One-electron integrals computed using PRISM.
 NBasis=   527 RedAO= T EigKep=  4.33D-04  NBF=   527
 NBsUse=   527 1.00D-06 EigRej= -1.00D+00 NBFU=   527
 Initial guess from the checkpoint file:  "conf-123.chk"
 B after Tr=     0.000000    0.000000    0.000000
         Rot=    1.000000    0.000000    0.000000    0.000000 Ang=   0.00 deg.
 Requested convergence on RMS density matrix=1.00D-08 within 128 cycles.
 Requested convergence on MAX density matrix=1.00D-06.
 Requested convergence on             energy=1.00D-06.
 No special actions if energy rises.
 SCF Done:  E(RB3LYP) =  -1526.31982028     A.U. after    3 cycles
            NFock=  3  Conv=0.40D-09     -V/T= 2.0093

 **********************************************************************

            Population analysis using the SCF Density.

 **********************************************************************

 Alpha  occ. eigenvalues --  -19.31469 -19.31450 -19.26921 -19.26594 -19.23632
 Alpha  occ. eigenvalues --  -19.23134 -19.21509 -14.55529 -14.46578 -14.45434
 Alpha  occ. eigenvalues --  -14.43570 -10.45122 -10.44541 -10.39620 -10.38123
 Alpha  occ. eigenvalues --  -10.37470 -10.34775 -10.34106 -10.32914 -10.32233
 Alpha  occ. eigenvalues --  -10.31798 -10.30994 -10.30899 -10.30778 -10.30671
 Alpha  occ. eigenvalues --  -10.27403 -10.25619 -10.25425 -10.25157 -10.24969
 Alpha  occ. eigenvalues --  -10.24530  -1.23023  -1.22893  -1.14694  -1.13953
 Alpha  occ. eigenvalues --   -1.13810  -1.13151  -1.11733  -1.10680  -1.03530
 Alpha  occ. eigenvalues --   -1.02750  -1.00202  -0.92973  -0.91829  -0.91037
 Alpha  occ. eigenvalues --   -0.89049  -0.86950  -0.83250  -0.82674  -0.80859
 Alpha  occ. eigenvalues --   -0.80136  -0.77729  -0.75770  -0.74799  -0.72494
 Alpha  occ. eigenvalues --   -0.72339  -0.70624  -0.70035  -0.68885  -0.68789
 Alpha  occ. eigenvalues --   -0.68144  -0.66624  -0.65088  -0.63709  -0.63271
 Alpha  occ. eigenvalues --   -0.63091  -0.61820  -0.61085  -0.60527  -0.60273
 Alpha  occ. eigenvalues --   -0.59753  -0.59194  -0.58897  -0.58016  -0.57628
 Alpha  occ. eigenvalues --   -0.57419  -0.56170  -0.55484  -0.54860  -0.54330
 Alpha  occ. eigenvalues --   -0.53709  -0.53133  -0.52744  -0.52322  -0.52114
 Alpha  occ. eigenvalues --   -0.50854  -0.50526  -0.50190  -0.50045  -0.49868
 Alpha  occ. eigenvalues --   -0.49170  -0.48786  -0.48255  -0.47953  -0.47202
 Alpha  occ. eigenvalues --   -0.46936  -0.46404  -0.46347  -0.46131  -0.45742
 Alpha  occ. eigenvalues --   -0.45408  -0.45094  -0.43839  -0.43726  -0.43319
 Alpha  occ. eigenvalues --   -0.42094  -0.40772  -0.40681  -0.39690  -0.38917
 Alpha  occ. eigenvalues --   -0.38061  -0.37780  -0.35766  -0.35264  -0.33960
 Alpha  occ. eigenvalues --   -0.31280  -0.27917
 Alpha virt. eigenvalues --   -0.11831  -0.11248  -0.09551  -0.08338  -0.07421
 Alpha virt. eigenvalues --   -0.06268  -0.05218  -0.03660  -0.02976  -0.02366
 Alpha virt. eigenvalues --   -0.01886  -0.00802  -0.00187   0.00182   0.00897
 Alpha virt. eigenvalues --    0.01325   0.01906   0.02047   0.02682   0.03061
 Alpha virt. eigenvalues --    0.03483   0.03539   0.03974   0.04427   0.04918
 Alpha virt. eigenvalues --    0.05418   0.05499   0.06135   0.06359   0.06701
 Alpha virt. eigenvalues --    0.07274   0.07444   0.07931   0.09088   0.09766
 Alpha virt. eigenvalues --    0.09885   0.10224   0.10790   0.10844   0.11245
 Alpha virt. eigenvalues --    0.11999   0.12630   0.12944   0.13337   0.13927
 Alpha virt. eigenvalues --    0.14915   0.15122   0.15393   0.16013   0.16533
 Alpha virt. eigenvalues --    0.17105   0.17760   0.18417   0.19602   0.19965
 Alpha virt. eigenvalues --    0.21709   0.23782   0.24559   0.24828   0.25069
 Alpha virt. eigenvalues --    0.27054   0.27576   0.28359   0.29098   0.30265
 Alpha virt. eigenvalues --    0.31024   0.32730   0.36170   0.38621   0.38816
 Alpha virt. eigenvalues --    0.39939   0.40544   0.41454   0.42359   0.42476
 Alpha virt. eigenvalues --    0.43132   0.43873   0.44105   0.44940   0.45311
 Alpha virt. eigenvalues --    0.46105   0.46512   0.46570   0.47376   0.47558
 Alpha virt. eigenvalues --    0.48105   0.48546   0.49032   0.49969   0.51080
 Alpha virt. eigenvalues --    0.51230   0.51748   0.52247   0.52433   0.53013
 Alpha virt. eigenvalues --    0.53207   0.53350   0.53866   0.54656   0.54873
 Alpha virt. eigenvalues --    0.55413   0.55582   0.56006   0.56445   0.57205
 Alpha virt. eigenvalues --    0.57772   0.58195   0.58853   0.59517   0.59936
 Alpha virt. eigenvalues --    0.60053   0.60555   0.61002   0.61786   0.63237
 Alpha virt. eigenvalues --    0.64464   0.64862   0.65425   0.65852   0.67101
 Alpha virt. eigenvalues --    0.67673   0.68544   0.68644   0.69295   0.69683
 Alpha virt. eigenvalues --    0.69967   0.71247   0.71513   0.71935   0.72282
 Alpha virt. eigenvalues --    0.73225   0.73656   0.73869   0.74527   0.74831
 Alpha virt. eigenvalues --    0.75555   0.75975   0.76142   0.76286   0.77192
 Alpha virt. eigenvalues --    0.77617   0.78529   0.78751   0.79048   0.79340
 Alpha virt. eigenvalues --    0.79772   0.80092   0.81006   0.81466   0.81954
 Alpha virt. eigenvalues --    0.82587   0.82875   0.83053   0.83208   0.83890
 Alpha virt. eigenvalues --    0.84259   0.84672   0.85204   0.85416   0.86128
 Alpha virt. eigenvalues --    0.87773   0.87835   0.88275   0.88763   0.89217
 Alpha virt. eigenvalues --    0.90264   0.90561   0.90896   0.91656   0.92196
 Alpha virt. eigenvalues --    0.92554   0.94003   0.94141   0.94918   0.95570
 Alpha virt. eigenvalues --    0.96026   0.96531   0.97831   0.98783   0.99472
 Alpha virt. eigenvalues --    1.00694   1.02169   1.02553   1.03789   1.04664
 Alpha virt. eigenvalues --    1.06221   1.08311   1.08851   1.09897   1.10700
 Alpha virt. eigenvalues --    1.12761   1.13251   1.13901   1.14427   1.15991
 Alpha virt. eigenvalues --    1.17974   1.18851   1.19283   1.20276   1.21278
 Alpha virt. eigenvalues --    1.22829   1.23837   1.24709   1.25703   1.25889
 Alpha virt. eigenvalues --    1.27311   1.28963   1.29845   1.30397   1.30990
 Alpha virt. eigenvalues --    1.31896   1.33423   1.34342   1.34965   1.36523
 Alpha virt. eigenvalues --    1.37172   1.37980   1.38348   1.38623   1.39171
 Alpha virt. eigenvalues --    1.40260   1.40641   1.42409   1.44275   1.45071
 Alpha virt. eigenvalues --    1.45256   1.47948   1.49659   1.50407   1.50899
 Alpha virt. eigenvalues --    1.51794   1.53876   1.54804   1.56061   1.56619
 Alpha virt. eigenvalues --    1.58211   1.58923   1.59601   1.60062   1.61497
 Alpha virt. eigenvalues --    1.62471   1.63156   1.64151   1.65492   1.65930
 Alpha virt. eigenvalues --    1.66672   1.67574   1.67664   1.68343   1.68649
 Alpha virt. eigenvalues --    1.69554   1.69921   1.70349   1.71235   1.71733
 Alpha virt. eigenvalues --    1.72958   1.73596   1.74070   1.75153   1.75581
 Alpha virt. eigenvalues --    1.75971   1.76347   1.77260   1.77801   1.78820
 Alpha virt. eigenvalues --    1.79728   1.80520   1.81494   1.81882   1.82819
 Alpha virt. eigenvalues --    1.83265   1.84466   1.85651   1.86878   1.87079
 Alpha virt. eigenvalues --    1.87494   1.88048   1.88134   1.88509   1.89225
 Alpha virt. eigenvalues --    1.90249   1.90600   1.91030   1.91670   1.92414
 Alpha virt. eigenvalues --    1.93191   1.94174   1.94828   1.95297   1.96582
 Alpha virt. eigenvalues --    1.96723   1.97400   1.99758   2.00159   2.00532
 Alpha virt. eigenvalues --    2.01188   2.02942   2.04880   2.07151   2.07785
 Alpha virt. eigenvalues --    2.08003   2.08787   2.10267   2.10792   2.14139
 Alpha virt. eigenvalues --    2.15099   2.16398   2.16910   2.17467   2.18080
 Alpha virt. eigenvalues --    2.19840   2.20288   2.21430   2.22019   2.23180
 Alpha virt. eigenvalues --    2.23363   2.25388   2.25758   2.26440   2.27028
 Alpha virt. eigenvalues --    2.27903   2.29055   2.29665   2.30575   2.30918
 Alpha virt. eigenvalues --    2.32050   2.33041   2.34295   2.34864   2.35843
 Alpha virt. eigenvalues --    2.37001   2.39148   2.39459   2.41440   2.42335
 Alpha virt. eigenvalues --    2.43382   2.44298   2.46105   2.47263   2.47660
 Alpha virt. eigenvalues --    2.49257   2.50412   2.51531   2.53024   2.53938
 Alpha virt. eigenvalues --    2.54926   2.55522   2.56649   2.58219   2.58622
 Alpha virt. eigenvalues --    2.59835   2.59963   2.60601   2.60943   2.62747
 Alpha virt. eigenvalues --    2.66626   2.67091   2.68933   2.70045   2.71833
 Alpha virt. eigenvalues --    2.72325   2.73323   2.75796   2.78803   2.80989
 Alpha virt. eigenvalues --    2.83172   2.83983   2.88575   2.90471   2.91144
 Alpha virt. eigenvalues --    2.92498   2.93729   2.95102   2.96023   2.97449
 Alpha virt. eigenvalues --    3.06013   3.08008   3.09549   3.35552   3.73073
 Alpha virt. eigenvalues --    3.75132   3.79215   3.86645   3.88171   3.90357
 Alpha virt. eigenvalues --    3.92733   4.01395   4.02771   4.05243   4.05798
 Alpha virt. eigenvalues --    4.08611   4.11763   4.15840   4.16243   4.19653
 Alpha virt. eigenvalues --    4.22991   4.25594   4.28363   4.29847   4.32236
 Alpha virt. eigenvalues --    4.35876   4.38383   4.42558   4.43770   4.45697
 Alpha virt. eigenvalues --    4.47207   4.54233   4.59347   4.62474   4.69931
          Condensed to atoms (all electrons):
 Mulliken charges:
               1
     1  N   -0.739662
     2  C   -0.070005
     3  C    0.627473
     4  O   -0.577919
     5  C   -0.275446
     6  C   -0.351497
     7  C    0.667999
     8  O   -0.534915
     9  O   -0.528632
    10  H    0.431124
    11  H    0.323252
    12  H    0.165053
    13  H    0.158366
    14  H    0.185770
    15  H    0.135780
    16  H    0.204917
    17  H    0.328393
    18  N   -0.598610
    19  C   -0.044255
    20  C    0.643194
    21  O   -0.521974
    22  C   -0.388700
    23  C    0.144493
    24  C   -0.186141
    25  C   -0.188227
    26  C   -0.195755
    27  C   -0.156763
    28  C    0.354158
    29  O   -0.634490
    30  H    0.375924
    31  H    0.178282
    32  H    0.179256
    33  H    0.156195
    34  H    0.157570
    35  H    0.124631
    36  H    0.129296
    37  H    0.150765
    38  H    0.412996
    39  N   -0.624191
    40  C    0.017098
    41  C    0.625735
    42  O   -0.534485
    43  C   -0.351221
    44  C   -0.291532
    45  C   -0.293058
    46  C   -0.187338
    47  N   -0.819139
    48  O   -0.526394
    49  H    0.429493
    50  H    0.374673
    51  H    0.196999
    52  H    0.188105
    53  H    0.161861
    54  H    0.183142
    55  H    0.156172
    56  H    0.186306
    57  H    0.184965
    58  H    0.199531
    59  H    0.202852
    60  H    0.444831
    61  H    0.444249
    62  H    0.389450
 Sum of Mulliken charges =   1.00000
 Mulliken charges with hydrogens summed into heavy atoms:
               1
     1  N   -0.088017
     2  C    0.095048
     3  C    0.627473
     4  O   -0.577919
     5  C    0.068690
     6  C   -0.010800
     7  C    0.667999
     8  O   -0.534915
     9  O   -0.097508
    18  N   -0.222686
    19  C    0.134027
    20  C    0.643194
    21  O   -0.521974
    22  C   -0.053249
    23  C    0.144493
    24  C   -0.028570
    25  C   -0.063596
    26  C   -0.066459
    27  C   -0.005999
    28  C    0.354158
    29  O   -0.221494
    39  N   -0.249518
    40  C    0.214098
    41  C    0.625735
    42  O   -0.534485
    43  C   -0.001255
    44  C    0.047782
    45  C    0.078212
    46  C    0.215045
    47  N    0.459390
    48  O   -0.096900
 Electronic spatial extent (au):  <R**2>=       20229680.8621
 Charge=              1.0000 electrons
 Dipole moment (field-independent basis, Debye):
    X=            -21.9686    Y=           -424.6513    Z=            608.8511  Tot=            742.6378
 Quadrupole moment (field-independent basis, Debye-Ang):
   XX=            -55.5845   YY=          37414.8907   ZZ=          77028.8106
   XY=           1947.4840   XZ=          -2776.5909   YZ=         -53840.4903
 Traceless Quadrupole moment (field-independent basis, Debye-Ang):
   XX=         -38184.9567   YY=           -714.4816   ZZ=          38899.4383
   XY=           1947.4840   XZ=          -2776.5909   YZ=         -53840.4903
 Octapole moment (field-independent basis, Debye-Ang**2):
  XXX=            533.4899  YYY=       -3285488.5124  ZZZ=        9725467.0413  XYY=        -172338.1714
  XXY=           4774.0306  XXZ=          -7428.3990  XZZ=        -350600.0103  YZZ=       -6813314.2687
  YYZ=        4744593.5127  XYZ=         246246.9899
 Hexadecapole moment (field-independent basis, Debye-Ang**3):
 XXXX=          -8152.9979 YYYY=      287547266.0235 ZZZZ=     1225254233.9759 XXXY=         -47563.8204
 XXXZ=          67867.6443 YYYX=       15224091.6193 YYYZ=     -416692460.3509 ZZZX=      -44228131.8356
 ZZZY=     -860469086.3327 XXYY=        -411929.1027 XXZZ=        -993508.8587 YYZZ=      600527132.9578
 XXYZ=         638127.8594 YYXZ=      -21800317.7837 ZZXY=       31107369.4783
 N-N= 3.378675677027D+03 E-N=-1.029267972527D+04  KE= 1.512261081546D+03
 Unable to Open any file for archive entry.
 1\1\GINC-VIM-000\SP\RB3LYP\6-31G(d)\C20H31N4O7(1+)\KENGMITH\24-May-202
 2\0\\# B3LYP/6-31G* empiricaldispersion=gd3 guess=read geom=check nosy
 mm integral(ultrafinegrid)\\Candidate Structure: Conf:123 Charge calc 
 in gas phase\\1,1\N,0,-4.1592638727,-91.0185615719,130.7975606422\C,0,
 -4.1633549374,-90.6120340295,129.3898107704\C,0,-3.0603082304,-89.5670
 345337,129.1560831677\O,0,-2.574411569,-89.3945487854,128.0257599684\C
 ,0,-4.0776444642,-91.7746108955,128.3746987984\C,0,-4.5233595387,-91.4
 384816944,126.9366395647\C,0,-3.4982794962,-90.789066732,126.037975261
 8\O,0,-3.7058463721,-89.8078618286,125.324948788\O,0,-2.3622376274,-91
 .4758390128,125.9758839354\H,0,-1.7504939488,-91.0035233541,125.379896
 0429\H,0,-3.3982423838,-91.672117615,130.9796063962\H,0,-5.1125578812,
 -90.0796730959,129.225298091\H,0,-4.7409808977,-92.563667236,128.74586
 73501\H,0,-3.0637875155,-92.1883420713,128.3594200331\H,0,-5.415230534
 6,-90.8028826064,126.9460051855\H,0,-4.8048187398,-92.3709203036,126.4
 295460156\H,0,-5.0250312513,-91.493632665,131.0416939124\N,0,-2.703595
 565,-88.8625210641,130.2421411569\C,0,-1.6651177769,-87.8264708277,130
 .2435324973\C,0,-2.2186102479,-86.5851807037,129.5094071022\O,0,-2.829
 7335396,-85.6849985693,130.0731660654\C,0,-1.2466595503,-87.4831302396
 ,131.6797123233\C,0,-0.0205779921,-86.5961874164,131.7101895607\C,0,-0
 .1319325437,-85.2019928821,131.7551108934\C,0,1.263421164,-87.15842592
 85,131.6528425003\C,0,1.0023384183,-84.39098212,131.7484102122\C,0,2.4
 035745769,-86.3628847631,131.6432595449\C,0,2.2753663445,-84.969249091
 3,131.6928149241\O,0,3.4264288812,-84.2378924927,131.6837830172\H,0,-3
 .1758704834,-89.1130863045,131.1070436988\H,0,-0.8029291363,-88.216397
 1915,129.6909909935\H,0,-2.0919209005,-86.9930563808,132.1747945035\H,
 0,-1.0462869283,-88.4241122953,132.2069289836\H,0,-1.1169597775,-84.74
 64018168,131.7837374411\H,0,1.3747140451,-88.2408257518,131.6264893743
 \H,0,0.8980308839,-83.3085055664,131.7905998674\H,0,3.3976889389,-86.7
 965423038,131.6092767906\H,0,3.2122110212,-83.2947315522,131.756564675
 6\N,0,-2.0183106221,-86.6143474116,128.1621150989\C,0,-2.680692968,-85
 .6643863494,127.280847166\C,0,-4.1022921607,-85.3741846787,127.7719248
 976\O,0,-4.9883439168,-86.2223013606,127.8371629067\C,0,-2.7418281907,
 -86.3060339239,125.8799987552\C,0,-3.6207282275,-85.5766748253,124.838
 0857115\C,0,-4.4132421351,-86.5450607265,123.9370345055\C,0,-5.7477728
 567,-87.0351771835,124.5060910857\N,0,-5.6064392557,-87.8955303701,125
 .741102464\O,0,-4.3250948275,-84.0859288507,128.0026804502\H,0,-5.2425
 614423,-83.9845328193,128.3234968578\H,0,-1.8179256115,-87.5354406359,
 127.7786025194\H,0,-2.1366431724,-84.7152157716,127.2646603373\H,0,-1.
 7157652692,-86.3923489354,125.5066958663\H,0,-3.083746091,-87.33741736
 42,126.0168687328\H,0,-2.9869312547,-84.9466286366,124.2067416945\H,0,
 -4.3231404728,-84.8847529328,125.3216957776\H,0,-4.6706244182,-86.0419
 937963,122.9976290403\H,0,-3.7926856608,-87.4083456136,123.6654631188\
 H,0,-6.3897546507,-86.1945965392,124.7852881983\H,0,-6.2748373037,-87.
 6429806365,123.7661718538\H,0,-5.2656287268,-87.342326528,126.56351379
 82\H,0,-4.9374363596,-88.696189223,125.5819889183\H,0,-6.515362207,-88
 .2839258744,126.0065147151\\Version=ES64L-G16RevC.01\HF=-1526.3198203\
 RMSD=3.981e-10\Dipole=-3.9959146,-1.6250054,-3.3343404\Quadrupole=-283
 89.5794338,-531.1995331,28920.7789668,1447.9066007,-2064.327305,-40029
 .0848991\PG=C01 [X(C20H31N4O7)]\\@
 The archive entry for this job was punched.


 IF MATHEMATICALLY YOU END UP WITH THE INCORRECT ANSWER,
 TRY MULTIPLYING BY THE PAGE NUMBER.
 Job cpu time:       0 days  0 hours  3 minutes 25.8 seconds.
 Elapsed time:       0 days  0 hours  0 minutes 52.0 seconds.
 File lengths (MBytes):  RWF=    264 Int=      0 D2E=      0 Chk=     40 Scr=     16
 Normal termination of Gaussian 16 at Tue May 24 19:13:50 2022.
