 Entering Gaussian System, Link 0=/opt/software/Gaussian/g16-AVX2-C.01/g16/g16
 Input=charge-conf-304.com
 Output=charge-conf-304.log
 Initial command:
 /opt/software/Gaussian/g16-AVX2-C.01/g16/l1.exe "/mnt/gs18/scratch/users/kengmith/Gau-11517.inp" -scrdir="/mnt/gs18/scratch/users/kengmith/"
 Entering Link 1 = /opt/software/Gaussian/g16-AVX2-C.01/g16/l1.exe PID=     11538.
  
 Copyright (c) 1988-2019, Gaussian, Inc.  All Rights Reserved.
  
 This is part of the Gaussian(R) 16 program.  It is based on
 the Gaussian(R) 09 system (copyright 2009, Gaussian, Inc.),
 the Gaussian(R) 03 system (copyright 2003, Gaussian, Inc.),
 the Gaussian(R) 98 system (copyright 1998, Gaussian, Inc.),
 the Gaussian(R) 94 system (copyright 1995, Gaussian, Inc.),
 the Gaussian 92(TM) system (copyright 1992, Gaussian, Inc.),
 the Gaussian 90(TM) system (copyright 1990, Gaussian, Inc.),
 the Gaussian 88(TM) system (copyright 1988, Gaussian, Inc.),
 the Gaussian 86(TM) system (copyright 1986, Carnegie Mellon
 University), and the Gaussian 82(TM) system (copyright 1983,
 Carnegie Mellon University). Gaussian is a federally registered
 trademark of Gaussian, Inc.
  
 This software contains proprietary and confidential information,
 including trade secrets, belonging to Gaussian, Inc.
  
 This software is provided under written license and may be
 used, copied, transmitted, or stored only in accord with that
 written license.
  
 The following legend is applicable only to US Government
 contracts under FAR:
  
                    RESTRICTED RIGHTS LEGEND
  
 Use, reproduction and disclosure by the US Government is
 subject to restrictions as set forth in subparagraphs (a)
 and (c) of the Commercial Computer Software - Restricted
 Rights clause in FAR 52.227-19.
  
 Gaussian, Inc.
 340 Quinnipiac St., Bldg. 40, Wallingford CT 06492
  
  
 ---------------------------------------------------------------
 Warning -- This program may not be used in any manner that
 competes with the business of Gaussian, Inc. or will provide
 assistance to any competitor of Gaussian, Inc.  The licensee
 of this program is prohibited from giving any competitor of
 Gaussian, Inc. access to this program.  By using this program,
 the user acknowledges that Gaussian, Inc. is engaged in the
 business of creating and licensing software in the field of
 computational chemistry and represents and warrants to the
 licensee that it is not a competitor of Gaussian, Inc. and that
 it will not use this program in any manner prohibited above.
 ---------------------------------------------------------------
  

 Cite this work as:
 Gaussian 16, Revision C.01,
 M. J. Frisch, G. W. Trucks, H. B. Schlegel, G. E. Scuseria, 
 M. A. Robb, J. R. Cheeseman, G. Scalmani, V. Barone, 
 G. A. Petersson, H. Nakatsuji, X. Li, M. Caricato, A. V. Marenich, 
 J. Bloino, B. G. Janesko, R. Gomperts, B. Mennucci, H. P. Hratchian, 
 J. V. Ortiz, A. F. Izmaylov, J. L. Sonnenberg, D. Williams-Young, 
 F. Ding, F. Lipparini, F. Egidi, J. Goings, B. Peng, A. Petrone, 
 T. Henderson, D. Ranasinghe, V. G. Zakrzewski, J. Gao, N. Rega, 
 G. Zheng, W. Liang, M. Hada, M. Ehara, K. Toyota, R. Fukuda, 
 J. Hasegawa, M. Ishida, T. Nakajima, Y. Honda, O. Kitao, H. Nakai, 
 T. Vreven, K. Throssell, J. A. Montgomery, Jr., J. E. Peralta, 
 F. Ogliaro, M. J. Bearpark, J. J. Heyd, E. N. Brothers, K. N. Kudin, 
 V. N. Staroverov, T. A. Keith, R. Kobayashi, J. Normand, 
 K. Raghavachari, A. P. Rendell, J. C. Burant, S. S. Iyengar, 
 J. Tomasi, M. Cossi, J. M. Millam, M. Klene, C. Adamo, R. Cammi, 
 J. W. Ochterski, R. L. Martin, K. Morokuma, O. Farkas, 
 J. B. Foresman, and D. J. Fox, Gaussian, Inc., Wallingford CT, 2019.
 
 ******************************************
 Gaussian 16:  ES64L-G16RevC.01  3-Jul-2019
                24-May-2022 
 ******************************************
 %mem=8gb
 %nproc=4
 Will use up to    4 processors via shared memory.
 %chk=conf-304.chk
 ----------------------------------------------------------------------
 # B3LYP/6-31G* empiricaldispersion=gd3 guess=read geom=check nosymm in
 tegral(ultrafinegrid)
 ----------------------------------------------------------------------
 1/29=2,38=1,172=1/1;
 2/12=2,15=1,40=1/2;
 3/5=1,6=6,7=1,11=2,14=-4,25=1,30=1,74=-5,75=-5,116=-2,124=31/1,2,3;
 4/5=1/1;
 5/5=2,38=6/2;
 6/7=2,8=2,9=2,10=2,28=1/1;
 99/5=1,9=1/99;
 ------------------------------------------------------
 Candidate Structure: Conf:304 Charge calc in gas phase
 ------------------------------------------------------
 Structure from the checkpoint file:  "conf-304.chk"
 Charge =  1 Multiplicity = 1
 Redundant internal coordinates found in file.  (old form).
 N,0,0.7848498132,-89.7854349338,128.6066088061
 C,0,0.3865551413,-88.6550892251,129.4469156858
 C,0,-1.1378372297,-88.4633440158,129.4134228006
 O,0,-1.6875317753,-87.5923673234,130.1295194386
 C,0,0.8890071875,-88.7084869968,130.9055905738
 C,0,2.3929731134,-88.4617790504,131.0282668888
 C,0,2.778920927,-87.0152199239,130.798056158
 O,0,1.9989756979,-86.0818615021,130.6866984113
 O,0,4.1051494445,-86.8590081551,130.7411044567
 H,0,4.2990898607,-85.9095865774,130.6169912748
 H,0,0.9163276868,-90.6337035077,129.1531740566
 H,0,0.7740574559,-87.7380482876,128.9821026107
 H,0,0.6460707968,-89.6937118809,131.3227475398
 H,0,0.3468089968,-87.9725572535,131.5043239984
 H,0,2.9698105938,-89.0862277521,130.3355875903
 H,0,2.7517818731,-88.7293970206,132.0301435456
 H,0,1.6440160098,-89.6054901774,128.0974579281
 N,0,-1.8116201932,-89.2279529901,128.5530815865
 C,0,-3.2473770358,-89.0710875549,128.2772424613
 C,0,-3.3788509826,-87.8154284654,127.392873163
 O,0,-3.3351940455,-87.8703612342,126.159848502
 C,0,-3.8243729935,-90.3168725249,127.5950889117
 C,0,-5.3315623597,-90.2311378105,127.4814459737
 C,0,-5.9476588723,-89.7560106478,126.3185474245
 C,0,-6.1455281442,-90.5899836598,128.5666119742
 C,0,-7.3351600927,-89.6458167851,126.2352021487
 C,0,-7.5296874893,-90.4831139507,128.4996199943
 C,0,-8.1320732934,-90.0096148305,127.3266985337
 O,0,-9.4918309054,-89.9284547124,127.3170799404
 H,0,-1.2307116944,-89.834672856,127.9740229217
 H,0,-3.7494701933,-88.9033074905,129.2346060136
 H,0,-3.3657944426,-90.4168499306,126.6055300798
 H,0,-3.5320241157,-91.1897197663,128.1908985181
 H,0,-5.3357913248,-89.4610765787,125.4714074258
 H,0,-5.6889536402,-90.9727630943,129.4775404784
 H,0,-7.7985789882,-89.2821961613,125.3202946917
 H,0,-8.1618508575,-90.7705398907,129.3333409207
 H,0,-9.7956993137,-89.6285658644,126.4460449486
 N,0,-3.4383114525,-86.6445769494,128.0808919826
 C,0,-3.3024563098,-85.3561238139,127.38720396
 C,0,-1.8185840129,-85.2347309046,126.9678424114
 O,0,-0.9694843499,-84.6100830261,127.5874932702
 C,0,-3.9089841623,-84.1674528159,128.1615578135
 C,0,-3.1540886353,-83.5000318648,129.3288170727
 C,0,-2.9781479328,-84.3205373077,130.6363253634
 C,0,-1.556028434,-84.2799392626,131.2003362307
 N,0,-0.6217542467,-85.0663290865,130.3255659944
 O,0,-1.4730447259,-85.9404742655,125.8976092372
 H,0,-2.2123884076,-86.5446008826,125.6305136739
 H,0,-3.1943492996,-86.7013751585,129.0639977272
 H,0,-3.8898478755,-85.4620873054,126.4698133994
 H,0,-4.086441311,-83.3845373308,127.4150498037
 H,0,-4.9009473212,-84.4959142312,128.4963993229
 H,0,-3.7138563503,-82.5908947716,129.5732017692
 H,0,-2.1857966528,-83.154019984,128.960062039
 H,0,-3.6426892551,-83.928649163,131.4134289926
 H,0,-3.273266252,-85.3690494657,130.517854436
 H,0,-1.1768992804,-83.2558862114,131.256739742
 H,0,-1.5056240404,-84.7251883193,132.1972661295
 H,0,-0.9202410422,-86.07096097,130.3114584302
 H,0,0.3582667352,-85.0688211563,130.6382680413
 H,0,-0.6560033711,-84.7419533508,129.3377430204
 Recover connectivity data from disk.
                           ----------------------------
                           !    Current Parameters    !
                           ! (Angstroms and Degrees)  !
 --------------------------                            --------------------------
 ! Name  Definition              Value                                          !
 --------------------------------------------------------------------------------
 ! R1    R(1,2)                  1.4637                                         !
 ! R2    R(1,11)                 1.0176                                         !
 ! R3    R(1,17)                 1.0148                                         !
 ! R4    R(2,3)                  1.5368                                         !
 ! R5    R(2,5)                  1.5437                                         !
 ! R6    R(2,12)                 1.0987                                         !
 ! R7    R(3,4)                  1.2544                                         !
 ! R8    R(3,18)                 1.3337                                         !
 ! R9    R(5,6)                  1.529                                          !
 ! R10   R(5,13)                 1.0971                                         !
 ! R11   R(5,14)                 1.0927                                         !
 ! R12   R(6,7)                  1.5148                                         !
 ! R13   R(6,15)                 1.0966                                         !
 ! R14   R(6,16)                 1.0973                                         !
 ! R15   R(7,8)                  1.2214                                         !
 ! R16   R(7,9)                  1.3366                                         !
 ! R17   R(9,10)                 0.9769                                         !
 ! R18   R(18,19)                1.4704                                         !
 ! R19   R(18,30)                1.0202                                         !
 ! R20   R(19,20)                1.5415                                         !
 ! R21   R(19,22)                1.533                                          !
 ! R22   R(19,31)                1.094                                          !
 ! R23   R(20,21)                1.235                                          !
 ! R24   R(20,39)                1.3593                                         !
 ! R25   R(22,23)                1.5139                                         !
 ! R26   R(22,32)                1.0952                                         !
 ! R27   R(22,33)                1.0965                                         !
 ! R28   R(23,24)                1.3992                                         !
 ! R29   R(23,25)                1.4032                                         !
 ! R30   R(24,26)                1.3944                                         !
 ! R31   R(24,34)                1.0858                                         !
 ! R32   R(25,27)                1.3899                                         !
 ! R33   R(25,35)                1.0885                                         !
 ! R34   R(26,28)                1.3996                                         !
 ! R35   R(26,36)                1.0881                                         !
 ! R36   R(27,28)                1.401                                          !
 ! R37   R(27,37)                1.0851                                         !
 ! R38   R(28,29)                1.3622                                         !
 ! R39   R(29,38)                0.97                                           !
 ! R40   R(39,40)                1.4696                                         !
 ! R41   R(39,50)                1.0145                                         !
 ! R42   R(40,41)                1.5468                                         !
 ! R43   R(40,43)                1.5429                                         !
 ! R44   R(40,51)                1.0945                                         !
 ! R45   R(41,42)                1.2228                                         !
 ! R46   R(41,48)                1.3277                                         !
 ! R47   R(43,44)                1.542                                          !
 ! R48   R(43,52)                1.0962                                         !
 ! R49   R(43,53)                1.0973                                         !
 ! R50   R(44,45)                1.5536                                         !
 ! R51   R(44,54)                1.0953                                         !
 ! R52   R(44,55)                1.0924                                         !
 ! R53   R(45,46)                1.5304                                         !
 ! R54   R(45,56)                1.095                                          !
 ! R55   R(45,57)                1.0957                                         !
 ! R56   R(46,47)                1.5022                                         !
 ! R57   R(46,58)                1.0934                                         !
 ! R58   R(46,59)                1.093                                          !
 ! R59   R(47,60)                1.0481                                         !
 ! R60   R(47,61)                1.0287                                         !
 ! R61   R(47,62)                1.0403                                         !
 ! R62   R(48,49)                0.9914                                         !
 ! A1    A(2,1,11)             111.7487                                         !
 ! A2    A(2,1,17)             112.4261                                         !
 ! A3    A(11,1,17)            107.9329                                         !
 ! A4    A(1,2,3)              110.7178                                         !
 ! A5    A(1,2,5)              115.2894                                         !
 ! A6    A(1,2,12)             107.8011                                         !
 ! A7    A(3,2,5)              110.3511                                         !
 ! A8    A(3,2,12)             103.6792                                         !
 ! A9    A(5,2,12)             108.2899                                         !
 ! A10   A(2,3,4)              120.5885                                         !
 ! A11   A(2,3,18)             116.3371                                         !
 ! A12   A(4,3,18)             123.0192                                         !
 ! A13   A(2,5,6)              112.9786                                         !
 ! A14   A(2,5,13)             108.5583                                         !
 ! A15   A(2,5,14)             109.4477                                         !
 ! A16   A(6,5,13)             109.4018                                         !
 ! A17   A(6,5,14)             109.599                                          !
 ! A18   A(13,5,14)            106.6532                                         !
 ! A19   A(5,6,7)              113.1111                                         !
 ! A20   A(5,6,15)             112.0156                                         !
 ! A21   A(5,6,16)             110.8263                                         !
 ! A22   A(7,6,15)             108.2874                                         !
 ! A23   A(7,6,16)             106.7591                                         !
 ! A24   A(15,6,16)            105.4172                                         !
 ! A25   A(6,7,8)              125.5146                                         !
 ! A26   A(6,7,9)              111.771                                          !
 ! A27   A(8,7,9)              122.711                                          !
 ! A28   A(7,9,10)             108.4193                                         !
 ! A29   A(3,18,19)            123.5827                                         !
 ! A30   A(3,18,30)            114.7971                                         !
 ! A31   A(19,18,30)           120.8599                                         !
 ! A32   A(18,19,20)           106.1297                                         !
 ! A33   A(18,19,22)           111.3635                                         !
 ! A34   A(18,19,31)           107.478                                          !
 ! A35   A(20,19,22)           111.9975                                         !
 ! A36   A(20,19,31)           109.7551                                         !
 ! A37   A(22,19,31)           109.9553                                         !
 ! A38   A(19,20,21)           122.2457                                         !
 ! A39   A(19,20,39)           114.5185                                         !
 ! A40   A(21,20,39)           123.0372                                         !
 ! A41   A(19,22,23)           111.2283                                         !
 ! A42   A(19,22,32)           108.5799                                         !
 ! A43   A(19,22,33)           107.7424                                         !
 ! A44   A(23,22,32)           110.7443                                         !
 ! A45   A(23,22,33)           110.5673                                         !
 ! A46   A(32,22,33)           107.8573                                         !
 ! A47   A(22,23,24)           121.3325                                         !
 ! A48   A(22,23,25)           120.3302                                         !
 ! A49   A(24,23,25)           118.3064                                         !
 ! A50   A(23,24,26)           120.9762                                         !
 ! A51   A(23,24,34)           119.5082                                         !
 ! A52   A(26,24,34)           119.5138                                         !
 ! A53   A(23,25,27)           121.383                                          !
 ! A54   A(23,25,35)           119.5925                                         !
 ! A55   A(27,25,35)           119.0197                                         !
 ! A56   A(24,26,28)           119.963                                          !
 ! A57   A(24,26,36)           120.0301                                         !
 ! A58   A(28,26,36)           120.0061                                         !
 ! A59   A(25,27,28)           119.6389                                         !
 ! A60   A(25,27,37)           121.5206                                         !
 ! A61   A(28,27,37)           118.8359                                         !
 ! A62   A(26,28,27)           119.7321                                         !
 ! A63   A(26,28,29)           123.1875                                         !
 ! A64   A(27,28,29)           117.0804                                         !
 ! A65   A(28,29,38)           109.7216                                         !
 ! A66   A(20,39,40)           120.811                                          !
 ! A67   A(20,39,50)           115.5775                                         !
 ! A68   A(40,39,50)           118.964                                          !
 ! A69   A(39,40,41)           106.5867                                         !
 ! A70   A(39,40,43)           113.7166                                         !
 ! A71   A(39,40,51)           105.1386                                         !
 ! A72   A(41,40,43)           116.9198                                         !
 ! A73   A(41,40,51)           107.1702                                         !
 ! A74   A(43,40,51)           106.5169                                         !
 ! A75   A(40,41,42)           124.6721                                         !
 ! A76   A(40,41,48)           115.2451                                         !
 ! A77   A(42,41,48)           119.954                                          !
 ! A78   A(40,43,44)           121.3945                                         !
 ! A79   A(40,43,52)           105.7888                                         !
 ! A80   A(40,43,53)           106.1363                                         !
 ! A81   A(44,43,52)           106.5953                                         !
 ! A82   A(44,43,53)           109.9461                                         !
 ! A83   A(52,43,53)           105.977                                          !
 ! A84   A(43,44,45)           117.6396                                         !
 ! A85   A(43,44,54)           106.1393                                         !
 ! A86   A(43,44,55)           108.3915                                         !
 ! A87   A(45,44,54)           107.9671                                         !
 ! A88   A(45,44,55)           110.5482                                         !
 ! A89   A(54,44,55)           105.3922                                         !
 ! A90   A(44,45,46)           113.6641                                         !
 ! A91   A(44,45,56)           109.8473                                         !
 ! A92   A(44,45,57)           112.5748                                         !
 ! A93   A(46,45,56)           107.0315                                         !
 ! A94   A(46,45,57)           108.3923                                         !
 ! A95   A(56,45,57)           104.8179                                         !
 ! A96   A(45,46,47)           110.4531                                         !
 ! A97   A(45,46,58)           111.4722                                         !
 ! A98   A(45,46,59)           111.6038                                         !
 ! A99   A(47,46,58)           107.7386                                         !
 ! A100  A(47,46,59)           106.811                                          !
 ! A101  A(58,46,59)           108.5707                                         !
 ! A102  A(46,47,60)           109.4204                                         !
 ! A103  A(46,47,61)           114.6308                                         !
 ! A104  A(46,47,62)           111.67                                           !
 ! A105  A(60,47,61)           105.8472                                         !
 ! A106  A(60,47,62)           106.0644                                         !
 ! A107  A(61,47,62)           108.7094                                         !
 ! A108  A(41,48,49)           110.3023                                         !
 ! D1    D(11,1,2,3)           -97.4596                                         !
 ! D2    D(11,1,2,5)            28.6922                                         !
 ! D3    D(11,1,2,12)          149.773                                          !
 ! D4    D(17,1,2,3)           140.9891                                         !
 ! D5    D(17,1,2,5)           -92.8592                                         !
 ! D6    D(17,1,2,12)           28.2216                                         !
 ! D7    D(1,2,3,4)            175.9291                                         !
 ! D8    D(1,2,3,18)            -6.6917                                         !
 ! D9    D(5,2,3,4)             47.0687                                         !
 ! D10   D(5,2,3,18)          -135.552                                          !
 ! D11   D(12,2,3,4)           -68.7019                                         !
 ! D12   D(12,2,3,18)          108.6774                                         !
 ! D13   D(1,2,5,6)             71.5266                                         !
 ! D14   D(1,2,5,13)           -50.0053                                         !
 ! D15   D(1,2,5,14)          -166.0538                                         !
 ! D16   D(3,2,5,6)           -162.1343                                         !
 ! D17   D(3,2,5,13)            76.3338                                         !
 ! D18   D(3,2,5,14)           -39.7147                                         !
 ! D19   D(12,2,5,6)           -49.2886                                         !
 ! D20   D(12,2,5,13)         -170.8206                                         !
 ! D21   D(12,2,5,14)           73.1309                                         !
 ! D22   D(2,3,18,19)         -172.705                                          !
 ! D23   D(2,3,18,30)           -2.6423                                         !
 ! D24   D(4,3,18,19)            4.6043                                         !
 ! D25   D(4,3,18,30)          174.667                                          !
 ! D26   D(2,5,6,7)             73.0444                                         !
 ! D27   D(2,5,6,15)           -49.6773                                         !
 ! D28   D(2,5,6,16)          -167.1036                                         !
 ! D29   D(13,5,6,7)          -165.9009                                         !
 ! D30   D(13,5,6,15)           71.3774                                         !
 ! D31   D(13,5,6,16)          -46.0489                                         !
 ! D32   D(14,5,6,7)           -49.2905                                         !
 ! D33   D(14,5,6,15)         -172.0122                                         !
 ! D34   D(14,5,6,16)           70.5615                                         !
 ! D35   D(5,6,7,8)              8.6465                                         !
 ! D36   D(5,6,7,9)           -172.007                                          !
 ! D37   D(15,6,7,8)           133.4165                                         !
 ! D38   D(15,6,7,9)           -47.237                                          !
 ! D39   D(16,6,7,8)          -113.5092                                         !
 ! D40   D(16,6,7,9)            65.8373                                         !
 ! D41   D(6,7,9,10)          -178.4421                                         !
 ! D42   D(8,7,9,10)             0.9257                                         !
 ! D43   D(3,18,19,20)          74.9736                                         !
 ! D44   D(3,18,19,22)        -162.8988                                         !
 ! D45   D(3,18,19,31)         -42.4098                                         !
 ! D46   D(30,18,19,20)        -94.5112                                         !
 ! D47   D(30,18,19,22)         27.6163                                         !
 ! D48   D(30,18,19,31)        148.1054                                         !
 ! D49   D(18,19,20,21)         89.9861                                         !
 ! D50   D(18,19,20,39)        -85.0354                                         !
 ! D51   D(22,19,20,21)        -31.737                                          !
 ! D52   D(22,19,20,39)        153.2415                                         !
 ! D53   D(31,19,20,21)       -154.1612                                         !
 ! D54   D(31,19,20,39)         30.8173                                         !
 ! D55   D(18,19,22,23)        172.3313                                         !
 ! D56   D(18,19,22,32)        -65.5653                                         !
 ! D57   D(18,19,22,33)         51.0                                            !
 ! D58   D(20,19,22,23)        -68.9995                                         !
 ! D59   D(20,19,22,32)         53.1039                                         !
 ! D60   D(20,19,22,33)        169.6691                                         !
 ! D61   D(31,19,22,23)         53.3107                                         !
 ! D62   D(31,19,22,32)        175.4141                                         !
 ! D63   D(31,19,22,33)        -68.0207                                         !
 ! D64   D(19,20,39,40)        168.0719                                         !
 ! D65   D(19,20,39,50)         12.4909                                         !
 ! D66   D(21,20,39,40)         -6.9052                                         !
 ! D67   D(21,20,39,50)       -162.4862                                         !
 ! D68   D(19,22,23,24)         95.1393                                         !
 ! D69   D(19,22,23,25)        -82.8013                                         !
 ! D70   D(32,22,23,24)        -25.7006                                         !
 ! D71   D(32,22,23,25)        156.3588                                         !
 ! D72   D(33,22,23,24)       -145.1955                                         !
 ! D73   D(33,22,23,25)         36.8639                                         !
 ! D74   D(22,23,24,26)       -178.2323                                         !
 ! D75   D(22,23,24,34)          1.2617                                         !
 ! D76   D(25,23,24,26)         -0.2512                                         !
 ! D77   D(25,23,24,34)        179.2427                                         !
 ! D78   D(22,23,25,27)        178.1183                                         !
 ! D79   D(22,23,25,35)         -2.6872                                         !
 ! D80   D(24,23,25,27)          0.1162                                         !
 ! D81   D(24,23,25,35)        179.3108                                         !
 ! D82   D(23,24,26,28)          0.1858                                         !
 ! D83   D(23,24,26,36)       -179.4901                                         !
 ! D84   D(34,24,26,28)       -179.3081                                         !
 ! D85   D(34,24,26,36)          1.016                                          !
 ! D86   D(23,25,27,28)          0.0837                                         !
 ! D87   D(23,25,27,37)        179.2975                                         !
 ! D88   D(35,25,27,28)       -179.1153                                         !
 ! D89   D(35,25,27,37)          0.0984                                         !
 ! D90   D(24,26,28,27)          0.0196                                         !
 ! D91   D(24,26,28,29)        179.9915                                         !
 ! D92   D(36,26,28,27)        179.6955                                         !
 ! D93   D(36,26,28,29)         -0.3326                                         !
 ! D94   D(25,27,28,26)         -0.1522                                         !
 ! D95   D(25,27,28,29)        179.8742                                         !
 ! D96   D(37,27,28,26)       -179.3871                                         !
 ! D97   D(37,27,28,29)          0.6393                                         !
 ! D98   D(26,28,29,38)          2.5841                                         !
 ! D99   D(27,28,29,38)       -177.4432                                         !
 ! D100  D(20,39,40,41)        -71.7474                                         !
 ! D101  D(20,39,40,43)        157.9496                                         !
 ! D102  D(20,39,40,51)         41.8112                                         !
 ! D103  D(50,39,40,41)         83.026                                          !
 ! D104  D(50,39,40,43)        -47.2771                                         !
 ! D105  D(50,39,40,51)       -163.4154                                         !
 ! D106  D(39,40,41,42)        -98.0571                                         !
 ! D107  D(39,40,41,48)         77.7971                                         !
 ! D108  D(43,40,41,42)         30.3995                                         !
 ! D109  D(43,40,41,48)       -153.7463                                         !
 ! D110  D(51,40,41,42)        149.7802                                         !
 ! D111  D(51,40,41,48)        -34.3655                                         !
 ! D112  D(39,40,43,44)         79.5235                                         !
 ! D113  D(39,40,43,52)       -159.126                                          !
 ! D114  D(39,40,43,53)        -46.8181                                         !
 ! D115  D(41,40,43,44)        -45.4194                                         !
 ! D116  D(41,40,43,52)         75.9312                                         !
 ! D117  D(41,40,43,53)       -171.761                                          !
 ! D118  D(51,40,43,44)       -165.1489                                         !
 ! D119  D(51,40,43,52)        -43.7984                                         !
 ! D120  D(51,40,43,53)         68.5095                                         !
 ! D121  D(40,41,48,49)         -8.8617                                         !
 ! D122  D(42,41,48,49)        167.2034                                         !
 ! D123  D(40,43,44,45)        -69.0257                                         !
 ! D124  D(40,43,44,54)        170.0415                                         !
 ! D125  D(40,43,44,55)         57.2485                                         !
 ! D126  D(52,43,44,45)        170.0111                                         !
 ! D127  D(52,43,44,54)         49.0783                                         !
 ! D128  D(52,43,44,55)        -63.7147                                         !
 ! D129  D(53,43,44,45)         55.5737                                         !
 ! D130  D(53,43,44,54)        -65.359                                          !
 ! D131  D(53,43,44,55)       -178.152                                          !
 ! D132  D(43,44,45,46)        133.5616                                         !
 ! D133  D(43,44,45,56)       -106.5601                                         !
 ! D134  D(43,44,45,57)          9.8329                                         !
 ! D135  D(54,44,45,46)       -106.4592                                         !
 ! D136  D(54,44,45,56)         13.4191                                         !
 ! D137  D(54,44,45,57)        129.8121                                         !
 ! D138  D(55,44,45,46)          8.3468                                         !
 ! D139  D(55,44,45,56)        128.2251                                         !
 ! D140  D(55,44,45,57)       -115.3819                                         !
 ! D141  D(44,45,46,47)        -70.7143                                         !
 ! D142  D(44,45,46,58)         49.0297                                         !
 ! D143  D(44,45,46,59)        170.6207                                         !
 ! D144  D(56,45,46,47)        167.8241                                         !
 ! D145  D(56,45,46,58)        -72.4319                                         !
 ! D146  D(56,45,46,59)         49.1591                                         !
 ! D147  D(57,45,46,47)         55.2588                                         !
 ! D148  D(57,45,46,58)        175.0029                                         !
 ! D149  D(57,45,46,59)        -63.4061                                         !
 ! D150  D(45,46,47,60)        -62.2674                                         !
 ! D151  D(45,46,47,61)        179.0361                                         !
 ! D152  D(45,46,47,62)         54.8497                                         !
 ! D153  D(58,46,47,60)        175.7622                                         !
 ! D154  D(58,46,47,61)         57.0657                                         !
 ! D155  D(58,46,47,62)        -67.1207                                         !
 ! D156  D(59,46,47,60)         59.2784                                         !
 ! D157  D(59,46,47,61)        -59.4181                                         !
 ! D158  D(59,46,47,62)        176.3955                                         !
 --------------------------------------------------------------------------------
 Symmetry turned off by external request.
 Stoichiometry    C20H31N4O7(1+)
 Framework group  C1[X(C20H31N4O7)]
 Deg. of freedom   180
 Full point group                 C1      NOp   1
                          Input orientation:                          
 ---------------------------------------------------------------------
 Center     Atomic      Atomic             Coordinates (Angstroms)
 Number     Number       Type             X           Y           Z
 ---------------------------------------------------------------------
      1          7           0        0.784850  -89.785435  128.606609
      2          6           0        0.386555  -88.655089  129.446916
      3          6           0       -1.137837  -88.463344  129.413423
      4          8           0       -1.687532  -87.592367  130.129519
      5          6           0        0.889007  -88.708487  130.905591
      6          6           0        2.392973  -88.461779  131.028267
      7          6           0        2.778921  -87.015220  130.798056
      8          8           0        1.998976  -86.081862  130.686698
      9          8           0        4.105149  -86.859008  130.741104
     10          1           0        4.299090  -85.909587  130.616991
     11          1           0        0.916328  -90.633704  129.153174
     12          1           0        0.774057  -87.738048  128.982103
     13          1           0        0.646071  -89.693712  131.322748
     14          1           0        0.346809  -87.972557  131.504324
     15          1           0        2.969811  -89.086228  130.335588
     16          1           0        2.751782  -88.729397  132.030144
     17          1           0        1.644016  -89.605490  128.097458
     18          7           0       -1.811620  -89.227953  128.553082
     19          6           0       -3.247377  -89.071088  128.277242
     20          6           0       -3.378851  -87.815428  127.392873
     21          8           0       -3.335194  -87.870361  126.159849
     22          6           0       -3.824373  -90.316873  127.595089
     23          6           0       -5.331562  -90.231138  127.481446
     24          6           0       -5.947659  -89.756011  126.318547
     25          6           0       -6.145528  -90.589984  128.566612
     26          6           0       -7.335160  -89.645817  126.235202
     27          6           0       -7.529687  -90.483114  128.499620
     28          6           0       -8.132073  -90.009615  127.326699
     29          8           0       -9.491831  -89.928455  127.317080
     30          1           0       -1.230712  -89.834673  127.974023
     31          1           0       -3.749470  -88.903307  129.234606
     32          1           0       -3.365794  -90.416850  126.605530
     33          1           0       -3.532024  -91.189720  128.190899
     34          1           0       -5.335791  -89.461077  125.471407
     35          1           0       -5.688954  -90.972763  129.477540
     36          1           0       -7.798579  -89.282196  125.320295
     37          1           0       -8.161851  -90.770540  129.333341
     38          1           0       -9.795699  -89.628566  126.446045
     39          7           0       -3.438311  -86.644577  128.080892
     40          6           0       -3.302456  -85.356124  127.387204
     41          6           0       -1.818584  -85.234731  126.967842
     42          8           0       -0.969484  -84.610083  127.587493
     43          6           0       -3.908984  -84.167453  128.161558
     44          6           0       -3.154089  -83.500032  129.328817
     45          6           0       -2.978148  -84.320537  130.636325
     46          6           0       -1.556028  -84.279939  131.200336
     47          7           0       -0.621754  -85.066329  130.325566
     48          8           0       -1.473045  -85.940474  125.897609
     49          1           0       -2.212388  -86.544601  125.630514
     50          1           0       -3.194349  -86.701375  129.063998
     51          1           0       -3.889848  -85.462087  126.469813
     52          1           0       -4.086441  -83.384537  127.415050
     53          1           0       -4.900947  -84.495914  128.496399
     54          1           0       -3.713856  -82.590895  129.573202
     55          1           0       -2.185797  -83.154020  128.960062
     56          1           0       -3.642689  -83.928649  131.413429
     57          1           0       -3.273266  -85.369049  130.517854
     58          1           0       -1.176899  -83.255886  131.256740
     59          1           0       -1.505624  -84.725188  132.197266
     60          1           0       -0.920241  -86.070961  130.311458
     61          1           0        0.358267  -85.068821  130.638268
     62          1           0       -0.656003  -84.741953  129.337743
 ---------------------------------------------------------------------
 Rotational constants (GHZ):           0.2151259           0.0792110           0.0680736
 Standard basis: 6-31G(d) (6D, 7F)
   527 basis functions,   992 primitive gaussians,   527 cartesian basis functions
   117 alpha electrons      117 beta electrons
       nuclear repulsion energy      3353.9954192920 Hartrees.
 NAtoms=   62 NActive=   62 NUniq=   62 SFac= 1.00D+00 NAtFMM=   60 NAOKFM=T Big=T
 Integral buffers will be    131072 words long.
 Raffenetti 2 integral format.
 Two-electron integral symmetry is turned off.
 Nuclear repulsion after empirical dispersion term =     3353.9137945693 Hartrees.
 One-electron integrals computed using PRISM.
 NBasis=   527 RedAO= T EigKep=  4.34D-04  NBF=   527
 NBsUse=   527 1.00D-06 EigRej= -1.00D+00 NBFU=   527
 Initial guess from the checkpoint file:  "conf-304.chk"
 B after Tr=     0.000000    0.000000    0.000000
         Rot=    1.000000    0.000000    0.000000    0.000000 Ang=   0.00 deg.
 Requested convergence on RMS density matrix=1.00D-08 within 128 cycles.
 Requested convergence on MAX density matrix=1.00D-06.
 Requested convergence on             energy=1.00D-06.
 No special actions if energy rises.
 SCF Done:  E(RB3LYP) =  -1526.33416561     A.U. after    1 cycles
            NFock=  1  Conv=0.71D-08     -V/T= 2.0093

 **********************************************************************

            Population analysis using the SCF Density.

 **********************************************************************

 Alpha  occ. eigenvalues --  -19.31865 -19.29507 -19.27262 -19.25961 -19.25636
 Alpha  occ. eigenvalues --  -19.24566 -19.24565 -14.53738 -14.49065 -14.48331
 Alpha  occ. eigenvalues --  -14.45075 -10.45195 -10.43851 -10.42032 -10.41091
 Alpha  occ. eigenvalues --  -10.36475 -10.35781 -10.35626 -10.35061 -10.32274
 Alpha  occ. eigenvalues --  -10.32050 -10.31488 -10.31436 -10.30621 -10.29901
 Alpha  occ. eigenvalues --  -10.28891 -10.26814 -10.26543 -10.26342 -10.26017
 Alpha  occ. eigenvalues --  -10.25576  -1.23242  -1.21383  -1.17275  -1.15967
 Alpha  occ. eigenvalues --   -1.14247  -1.12945  -1.12707  -1.09556  -1.05888
 Alpha  occ. eigenvalues --   -1.04904  -1.01804  -0.93127  -0.92253  -0.91567
 Alpha  occ. eigenvalues --   -0.89662  -0.87950  -0.84367  -0.83148  -0.81956
 Alpha  occ. eigenvalues --   -0.81213  -0.77244  -0.76583  -0.74927  -0.72910
 Alpha  occ. eigenvalues --   -0.71767  -0.71228  -0.70248  -0.70083  -0.69381
 Alpha  occ. eigenvalues --   -0.68703  -0.67670  -0.66205  -0.65863  -0.64251
 Alpha  occ. eigenvalues --   -0.63034  -0.62381  -0.61688  -0.61491  -0.61306
 Alpha  occ. eigenvalues --   -0.60831  -0.60520  -0.59577  -0.59291  -0.57861
 Alpha  occ. eigenvalues --   -0.57086  -0.56128  -0.55899  -0.55280  -0.54799
 Alpha  occ. eigenvalues --   -0.54274  -0.54187  -0.54027  -0.53537  -0.52855
 Alpha  occ. eigenvalues --   -0.52437  -0.51697  -0.51204  -0.50768  -0.50308
 Alpha  occ. eigenvalues --   -0.49779  -0.49241  -0.49050  -0.48762  -0.48181
 Alpha  occ. eigenvalues --   -0.48104  -0.47407  -0.47215  -0.46829  -0.45836
 Alpha  occ. eigenvalues --   -0.44979  -0.44690  -0.44514  -0.44422  -0.43330
 Alpha  occ. eigenvalues --   -0.42563  -0.41602  -0.40924  -0.40808  -0.40531
 Alpha  occ. eigenvalues --   -0.40241  -0.40042  -0.37356  -0.36932  -0.36517
 Alpha  occ. eigenvalues --   -0.32380  -0.28997
 Alpha virt. eigenvalues --   -0.12678  -0.11895  -0.11292  -0.09729  -0.07436
 Alpha virt. eigenvalues --   -0.06361  -0.04888  -0.04162  -0.03244  -0.02504
 Alpha virt. eigenvalues --   -0.01550  -0.00983   0.00073   0.00514   0.00889
 Alpha virt. eigenvalues --    0.01256   0.01802   0.02168   0.02502   0.02939
 Alpha virt. eigenvalues --    0.03304   0.03717   0.03986   0.04449   0.04566
 Alpha virt. eigenvalues --    0.05325   0.05889   0.06154   0.06490   0.06563
 Alpha virt. eigenvalues --    0.06826   0.07455   0.07744   0.08343   0.08487
 Alpha virt. eigenvalues --    0.09233   0.09819   0.10519   0.10978   0.11350
 Alpha virt. eigenvalues --    0.11444   0.12125   0.12368   0.12690   0.12720
 Alpha virt. eigenvalues --    0.13733   0.14635   0.15038   0.15339   0.16465
 Alpha virt. eigenvalues --    0.16610   0.17113   0.17882   0.18529   0.18897
 Alpha virt. eigenvalues --    0.19646   0.22506   0.23789   0.24407   0.24949
 Alpha virt. eigenvalues --    0.26086   0.26613   0.27443   0.28358   0.29161
 Alpha virt. eigenvalues --    0.29943   0.33203   0.35107   0.36725   0.37667
 Alpha virt. eigenvalues --    0.38947   0.39339   0.40156   0.40642   0.41418
 Alpha virt. eigenvalues --    0.42040   0.42144   0.42635   0.43806   0.44760
 Alpha virt. eigenvalues --    0.45265   0.45618   0.45993   0.46549   0.47077
 Alpha virt. eigenvalues --    0.47370   0.47506   0.48588   0.48844   0.49615
 Alpha virt. eigenvalues --    0.49691   0.50268   0.50877   0.51062   0.51478
 Alpha virt. eigenvalues --    0.51995   0.52230   0.53092   0.53586   0.54090
 Alpha virt. eigenvalues --    0.54478   0.54493   0.55203   0.56272   0.56996
 Alpha virt. eigenvalues --    0.57178   0.57810   0.57939   0.58265   0.58738
 Alpha virt. eigenvalues --    0.59155   0.59943   0.60273   0.61083   0.62310
 Alpha virt. eigenvalues --    0.63151   0.63623   0.64848   0.66422   0.66716
 Alpha virt. eigenvalues --    0.67151   0.67568   0.68279   0.68667   0.68971
 Alpha virt. eigenvalues --    0.70446   0.70915   0.71087   0.71618   0.73154
 Alpha virt. eigenvalues --    0.73480   0.73540   0.74712   0.75067   0.75413
 Alpha virt. eigenvalues --    0.75604   0.76110   0.76529   0.76830   0.77656
 Alpha virt. eigenvalues --    0.77911   0.78123   0.78415   0.78957   0.79542
 Alpha virt. eigenvalues --    0.79798   0.80220   0.80633   0.80794   0.81682
 Alpha virt. eigenvalues --    0.81980   0.82406   0.83188   0.83347   0.83798
 Alpha virt. eigenvalues --    0.84000   0.84331   0.84720   0.85233   0.85621
 Alpha virt. eigenvalues --    0.86228   0.87018   0.87529   0.87751   0.88291
 Alpha virt. eigenvalues --    0.89000   0.89442   0.89886   0.90509   0.91127
 Alpha virt. eigenvalues --    0.91901   0.92873   0.93558   0.95069   0.95966
 Alpha virt. eigenvalues --    0.96816   0.97502   0.97976   0.98800   0.99493
 Alpha virt. eigenvalues --    0.99972   1.01000   1.01948   1.04973   1.05097
 Alpha virt. eigenvalues --    1.05821   1.07110   1.08414   1.09225   1.10522
 Alpha virt. eigenvalues --    1.11443   1.12086   1.12828   1.14583   1.14875
 Alpha virt. eigenvalues --    1.16356   1.16626   1.18589   1.18825   1.19681
 Alpha virt. eigenvalues --    1.20451   1.21646   1.22718   1.25036   1.25413
 Alpha virt. eigenvalues --    1.26786   1.27467   1.27948   1.28873   1.29545
 Alpha virt. eigenvalues --    1.30004   1.31027   1.31939   1.32852   1.33195
 Alpha virt. eigenvalues --    1.34463   1.35016   1.36731   1.37875   1.39350
 Alpha virt. eigenvalues --    1.39540   1.40581   1.41422   1.43202   1.43548
 Alpha virt. eigenvalues --    1.44249   1.44712   1.46754   1.50339   1.50731
 Alpha virt. eigenvalues --    1.51116   1.52363   1.53895   1.54902   1.55539
 Alpha virt. eigenvalues --    1.55880   1.57936   1.58284   1.59114   1.59843
 Alpha virt. eigenvalues --    1.61220   1.61726   1.62712   1.63068   1.63560
 Alpha virt. eigenvalues --    1.65498   1.65874   1.66586   1.66759   1.67976
 Alpha virt. eigenvalues --    1.68404   1.68650   1.69220   1.70831   1.71198
 Alpha virt. eigenvalues --    1.71734   1.72557   1.72864   1.73287   1.74016
 Alpha virt. eigenvalues --    1.74506   1.75926   1.76451   1.77555   1.78881
 Alpha virt. eigenvalues --    1.79022   1.80359   1.80842   1.81374   1.82053
 Alpha virt. eigenvalues --    1.82425   1.82528   1.83160   1.83626   1.84850
 Alpha virt. eigenvalues --    1.85381   1.86033   1.86657   1.87321   1.88060
 Alpha virt. eigenvalues --    1.88397   1.88899   1.89287   1.90176   1.90746
 Alpha virt. eigenvalues --    1.91127   1.91842   1.92400   1.92712   1.93525
 Alpha virt. eigenvalues --    1.95052   1.96326   1.96610   1.99134   1.99856
 Alpha virt. eigenvalues --    2.00318   2.01161   2.02250   2.04010   2.05542
 Alpha virt. eigenvalues --    2.06478   2.07083   2.07623   2.08175   2.09689
 Alpha virt. eigenvalues --    2.11179   2.11600   2.13319   2.16842   2.18875
 Alpha virt. eigenvalues --    2.19925   2.21495   2.21599   2.21994   2.22882
 Alpha virt. eigenvalues --    2.24221   2.25129   2.25188   2.25812   2.26451
 Alpha virt. eigenvalues --    2.26731   2.27329   2.28389   2.29645   2.30449
 Alpha virt. eigenvalues --    2.31999   2.32522   2.33101   2.33484   2.34799
 Alpha virt. eigenvalues --    2.34983   2.35532   2.36779   2.38821   2.40653
 Alpha virt. eigenvalues --    2.41556   2.43066   2.44346   2.46542   2.47082
 Alpha virt. eigenvalues --    2.48306   2.48840   2.49493   2.51110   2.52576
 Alpha virt. eigenvalues --    2.53019   2.53694   2.55479   2.55582   2.56324
 Alpha virt. eigenvalues --    2.58314   2.59110   2.59555   2.61007   2.61372
 Alpha virt. eigenvalues --    2.61688   2.64883   2.66959   2.67567   2.69600
 Alpha virt. eigenvalues --    2.71557   2.73077   2.77083   2.77653   2.79954
 Alpha virt. eigenvalues --    2.81803   2.82859   2.86677   2.88314   2.90279
 Alpha virt. eigenvalues --    2.91540   2.93057   2.93722   2.96582   2.97520
 Alpha virt. eigenvalues --    3.03857   3.05271   3.05908   3.34424   3.71275
 Alpha virt. eigenvalues --    3.74478   3.82141   3.87310   3.88302   3.92148
 Alpha virt. eigenvalues --    3.94235   4.01367   4.03640   4.04208   4.04803
 Alpha virt. eigenvalues --    4.05228   4.09797   4.13075   4.14118   4.18060
 Alpha virt. eigenvalues --    4.18590   4.21708   4.25451   4.25761   4.28292
 Alpha virt. eigenvalues --    4.33016   4.33738   4.35479   4.42462   4.44011
 Alpha virt. eigenvalues --    4.44553   4.50879   4.53974   4.58921   4.68695
          Condensed to atoms (all electrons):
 Mulliken charges:
               1
     1  N   -0.752508
     2  C   -0.077733
     3  C    0.642272
     4  O   -0.604839
     5  C   -0.276596
     6  C   -0.364267
     7  C    0.600449
     8  O   -0.509653
     9  O   -0.532761
    10  H    0.430663
    11  H    0.329374
    12  H    0.183495
    13  H    0.164217
    14  H    0.170539
    15  H    0.186937
    16  H    0.215762
    17  H    0.338826
    18  N   -0.587431
    19  C   -0.051780
    20  C    0.642116
    21  O   -0.546244
    22  C   -0.380273
    23  C    0.141987
    24  C   -0.185881
    25  C   -0.189899
    26  C   -0.194974
    27  C   -0.156246
    28  C    0.355269
    29  O   -0.631719
    30  H    0.384753
    31  H    0.188410
    32  H    0.178919
    33  H    0.164902
    34  H    0.154534
    35  H    0.127355
    36  H    0.133618
    37  H    0.154585
    38  H    0.415090
    39  N   -0.616210
    40  C   -0.094753
    41  C    0.621353
    42  O   -0.497381
    43  C   -0.301744
    44  C   -0.296132
    45  C   -0.300003
    46  C   -0.187140
    47  N   -0.831817
    48  O   -0.555193
    49  H    0.458331
    50  H    0.388131
    51  H    0.201344
    52  H    0.178895
    53  H    0.175183
    54  H    0.173994
    55  H    0.173584
    56  H    0.190343
    57  H    0.162757
    58  H    0.203879
    59  H    0.198130
    60  H    0.428814
    61  H    0.426406
    62  H    0.437963
 Sum of Mulliken charges =   1.00000
 Mulliken charges with hydrogens summed into heavy atoms:
               1
     1  N   -0.084309
     2  C    0.105762
     3  C    0.642272
     4  O   -0.604839
     5  C    0.058160
     6  C    0.038432
     7  C    0.600449
     8  O   -0.509653
     9  O   -0.102098
    18  N   -0.202678
    19  C    0.136630
    20  C    0.642116
    21  O   -0.546244
    22  C   -0.036452
    23  C    0.141987
    24  C   -0.031347
    25  C   -0.062544
    26  C   -0.061356
    27  C   -0.001662
    28  C    0.355269
    29  O   -0.216629
    39  N   -0.228080
    40  C    0.106591
    41  C    0.621353
    42  O   -0.497381
    43  C    0.052334
    44  C    0.051446
    45  C    0.053097
    46  C    0.214870
    47  N    0.461367
    48  O   -0.096862
 Electronic spatial extent (au):  <R**2>=       20254996.4762
 Charge=              1.0000 electrons
 Dipole moment (field-independent basis, Debye):
    X=             -4.7401    Y=           -417.0104    Z=            623.2257  Tot=            749.8869
 Quadrupole moment (field-independent basis, Debye-Ang):
   XX=           -118.1851   YY=          36059.7220   ZZ=          80702.4278
   XY=            400.1841   XZ=           -587.8228   YZ=         -54099.5216
 Traceless Quadrupole moment (field-independent basis, Debye-Ang):
   XX=         -38999.5067   YY=          -2821.5996   ZZ=          41821.1062
   XY=            400.1841   XZ=           -587.8228   YZ=         -54099.5216
 Octapole moment (field-independent basis, Debye-Ang**2):
  XXX=           1085.3436  YYY=       -3105132.6673  ZZZ=       10429715.5804  XYY=         -33330.1095
  XXY=          10420.5286  XXZ=         -15348.4524  XZZ=         -72418.4026  YZZ=       -7004211.1312
  YYZ=        4677566.5541  XYZ=          49545.4886
 Hexadecapole moment (field-independent basis, Debye-Ang**3):
 XXXX=         -15443.5887 YYYY=      266200150.8448 ZZZZ=     1345285488.8868 XXXY=         -96360.5888
 XXXZ=         139600.3298 YYYX=        2731111.2758 YYYZ=     -402761796.8080 ZZZX=       -8857436.7485
 ZZZY=     -905027707.4868 XXYY=        -922509.7713 XXZZ=       -1995841.5236 YYZZ=      605514273.4086
 XXYZ=        1353244.3695 YYXZ=       -4117714.7700 ZZXY=        6091303.7998
 N-N= 3.353913794569D+03 E-N=-1.024131171705D+04  KE= 1.512266216753D+03
 Unable to Open any file for archive entry.
 1\1\GINC-VIM-002\SP\RB3LYP\6-31G(d)\C20H31N4O7(1+)\KENGMITH\24-May-202
 2\0\\# B3LYP/6-31G* empiricaldispersion=gd3 guess=read geom=check nosy
 mm integral(ultrafinegrid)\\Candidate Structure: Conf:304 Charge calc 
 in gas phase\\1,1\N,0,0.7848498132,-89.7854349338,128.6066088061\C,0,0
 .3865551413,-88.6550892251,129.4469156858\C,0,-1.1378372297,-88.463344
 0158,129.4134228006\O,0,-1.6875317753,-87.5923673234,130.1295194386\C,
 0,0.8890071875,-88.7084869968,130.9055905738\C,0,2.3929731134,-88.4617
 790504,131.0282668888\C,0,2.778920927,-87.0152199239,130.798056158\O,0
 ,1.9989756979,-86.0818615021,130.6866984113\O,0,4.1051494445,-86.85900
 81551,130.7411044567\H,0,4.2990898607,-85.9095865774,130.6169912748\H,
 0,0.9163276868,-90.6337035077,129.1531740566\H,0,0.7740574559,-87.7380
 482876,128.9821026107\H,0,0.6460707968,-89.6937118809,131.3227475398\H
 ,0,0.3468089968,-87.9725572535,131.5043239984\H,0,2.9698105938,-89.086
 2277521,130.3355875903\H,0,2.7517818731,-88.7293970206,132.0301435456\
 H,0,1.6440160098,-89.6054901774,128.0974579281\N,0,-1.8116201932,-89.2
 279529901,128.5530815865\C,0,-3.2473770358,-89.0710875549,128.27724246
 13\C,0,-3.3788509826,-87.8154284654,127.392873163\O,0,-3.3351940455,-8
 7.8703612342,126.159848502\C,0,-3.8243729935,-90.3168725249,127.595088
 9117\C,0,-5.3315623597,-90.2311378105,127.4814459737\C,0,-5.9476588723
 ,-89.7560106478,126.3185474245\C,0,-6.1455281442,-90.5899836598,128.56
 66119742\C,0,-7.3351600927,-89.6458167851,126.2352021487\C,0,-7.529687
 4893,-90.4831139507,128.4996199943\C,0,-8.1320732934,-90.0096148305,12
 7.3266985337\O,0,-9.4918309054,-89.9284547124,127.3170799404\H,0,-1.23
 07116944,-89.834672856,127.9740229217\H,0,-3.7494701933,-88.9033074905
 ,129.2346060136\H,0,-3.3657944426,-90.4168499306,126.6055300798\H,0,-3
 .5320241157,-91.1897197663,128.1908985181\H,0,-5.3357913248,-89.461076
 5787,125.4714074258\H,0,-5.6889536402,-90.9727630943,129.4775404784\H,
 0,-7.7985789882,-89.2821961613,125.3202946917\H,0,-8.1618508575,-90.77
 05398907,129.3333409207\H,0,-9.7956993137,-89.6285658644,126.446044948
 6\N,0,-3.4383114525,-86.6445769494,128.0808919826\C,0,-3.3024563098,-8
 5.3561238139,127.38720396\C,0,-1.8185840129,-85.2347309046,126.9678424
 114\O,0,-0.9694843499,-84.6100830261,127.5874932702\C,0,-3.9089841623,
 -84.1674528159,128.1615578135\C,0,-3.1540886353,-83.5000318648,129.328
 8170727\C,0,-2.9781479328,-84.3205373077,130.6363253634\C,0,-1.5560284
 34,-84.2799392626,131.2003362307\N,0,-0.6217542467,-85.0663290865,130.
 3255659944\O,0,-1.4730447259,-85.9404742655,125.8976092372\H,0,-2.2123
 884076,-86.5446008826,125.6305136739\H,0,-3.1943492996,-86.7013751585,
 129.0639977272\H,0,-3.8898478755,-85.4620873054,126.4698133994\H,0,-4.
 086441311,-83.3845373308,127.4150498037\H,0,-4.9009473212,-84.49591423
 12,128.4963993229\H,0,-3.7138563503,-82.5908947716,129.5732017692\H,0,
 -2.1857966528,-83.154019984,128.960062039\H,0,-3.6426892551,-83.928649
 163,131.4134289926\H,0,-3.273266252,-85.3690494657,130.517854436\H,0,-
 1.1768992804,-83.2558862114,131.256739742\H,0,-1.5056240404,-84.725188
 3193,132.1972661295\H,0,-0.9202410422,-86.07096097,130.3114584302\H,0,
 0.3582667352,-85.0688211563,130.6382680413\H,0,-0.6560033711,-84.74195
 33508,129.3377430204\\Version=ES64L-G16RevC.01\HF=-1526.3341656\RMSD=7
 .077e-09\Dipole=2.68194,1.330302,2.054042\Quadrupole=-28995.1773646,-2
 097.7901162,31092.9674807,297.5270802,-437.0318306,-40221.6683468\PG=C
 01 [X(C20H31N4O7)]\\@
 The archive entry for this job was punched.


 I (ERNEST RUTHERFORD) CAME INTO THE ROOM, WHICH WAS HALF DARK, AND PRESENTLY
 SPOTTED LORD KELVIN IN THE AUDIENCE AND REALIZED I WAS IN TROUBLE AT
 THE LAST PART OF MY SPEECH DEALING THE AGE OF THE EARTH, WHERE MY VIEWS
 CONFLICTED WITH HIS.  TO MY RELIEF KELVIN FELL FAST ASLEEP, BUT AS I CAME
 TO THE IMPORTANT POINT, I SAW THE OLD BIRD SIT UP AND COCK A BALEFUL GLANCE
 AT ME! THEN A SUDDEN INSPIRATION CAME AND I SAID LORD KELVIN HAD LIMITED
 THE AGE OF THE EARTH PROVIDED NO NEW SOURCE WAS DISCOVERED. THAT
 PROPHETIC UTTERANCE REFERS TO WHAT WE ARE NOW CONSIDERING TONIGHT, RADIUM!
 BEHOLD!  THE OLD BOY BEAMED UPON ME.
 Job cpu time:       0 days  0 hours  1 minutes 31.7 seconds.
 Elapsed time:       0 days  0 hours  0 minutes 23.5 seconds.
 File lengths (MBytes):  RWF=    264 Int=      0 D2E=      0 Chk=     40 Scr=     16
 Normal termination of Gaussian 16 at Tue May 24 19:13:20 2022.
