 Entering Gaussian System, Link 0=/opt/software/Gaussian/g16-AVX2-C.01/g16/g16
 Input=charge-conf-430.com
 Output=charge-conf-430.log
 Initial command:
 /opt/software/Gaussian/g16-AVX2-C.01/g16/l1.exe "/mnt/gs18/scratch/users/kengmith/Gau-11552.inp" -scrdir="/mnt/gs18/scratch/users/kengmith/"
 Entering Link 1 = /opt/software/Gaussian/g16-AVX2-C.01/g16/l1.exe PID=     11575.
  
 Copyright (c) 1988-2019, Gaussian, Inc.  All Rights Reserved.
  
 This is part of the Gaussian(R) 16 program.  It is based on
 the Gaussian(R) 09 system (copyright 2009, Gaussian, Inc.),
 the Gaussian(R) 03 system (copyright 2003, Gaussian, Inc.),
 the Gaussian(R) 98 system (copyright 1998, Gaussian, Inc.),
 the Gaussian(R) 94 system (copyright 1995, Gaussian, Inc.),
 the Gaussian 92(TM) system (copyright 1992, Gaussian, Inc.),
 the Gaussian 90(TM) system (copyright 1990, Gaussian, Inc.),
 the Gaussian 88(TM) system (copyright 1988, Gaussian, Inc.),
 the Gaussian 86(TM) system (copyright 1986, Carnegie Mellon
 University), and the Gaussian 82(TM) system (copyright 1983,
 Carnegie Mellon University). Gaussian is a federally registered
 trademark of Gaussian, Inc.
  
 This software contains proprietary and confidential information,
 including trade secrets, belonging to Gaussian, Inc.
  
 This software is provided under written license and may be
 used, copied, transmitted, or stored only in accord with that
 written license.
  
 The following legend is applicable only to US Government
 contracts under FAR:
  
                    RESTRICTED RIGHTS LEGEND
  
 Use, reproduction and disclosure by the US Government is
 subject to restrictions as set forth in subparagraphs (a)
 and (c) of the Commercial Computer Software - Restricted
 Rights clause in FAR 52.227-19.
  
 Gaussian, Inc.
 340 Quinnipiac St., Bldg. 40, Wallingford CT 06492
  
  
 ---------------------------------------------------------------
 Warning -- This program may not be used in any manner that
 competes with the business of Gaussian, Inc. or will provide
 assistance to any competitor of Gaussian, Inc.  The licensee
 of this program is prohibited from giving any competitor of
 Gaussian, Inc. access to this program.  By using this program,
 the user acknowledges that Gaussian, Inc. is engaged in the
 business of creating and licensing software in the field of
 computational chemistry and represents and warrants to the
 licensee that it is not a competitor of Gaussian, Inc. and that
 it will not use this program in any manner prohibited above.
 ---------------------------------------------------------------
  

 Cite this work as:
 Gaussian 16, Revision C.01,
 M. J. Frisch, G. W. Trucks, H. B. Schlegel, G. E. Scuseria, 
 M. A. Robb, J. R. Cheeseman, G. Scalmani, V. Barone, 
 G. A. Petersson, H. Nakatsuji, X. Li, M. Caricato, A. V. Marenich, 
 J. Bloino, B. G. Janesko, R. Gomperts, B. Mennucci, H. P. Hratchian, 
 J. V. Ortiz, A. F. Izmaylov, J. L. Sonnenberg, D. Williams-Young, 
 F. Ding, F. Lipparini, F. Egidi, J. Goings, B. Peng, A. Petrone, 
 T. Henderson, D. Ranasinghe, V. G. Zakrzewski, J. Gao, N. Rega, 
 G. Zheng, W. Liang, M. Hada, M. Ehara, K. Toyota, R. Fukuda, 
 J. Hasegawa, M. Ishida, T. Nakajima, Y. Honda, O. Kitao, H. Nakai, 
 T. Vreven, K. Throssell, J. A. Montgomery, Jr., J. E. Peralta, 
 F. Ogliaro, M. J. Bearpark, J. J. Heyd, E. N. Brothers, K. N. Kudin, 
 V. N. Staroverov, T. A. Keith, R. Kobayashi, J. Normand, 
 K. Raghavachari, A. P. Rendell, J. C. Burant, S. S. Iyengar, 
 J. Tomasi, M. Cossi, J. M. Millam, M. Klene, C. Adamo, R. Cammi, 
 J. W. Ochterski, R. L. Martin, K. Morokuma, O. Farkas, 
 J. B. Foresman, and D. J. Fox, Gaussian, Inc., Wallingford CT, 2019.
 
 ******************************************
 Gaussian 16:  ES64L-G16RevC.01  3-Jul-2019
                24-May-2022 
 ******************************************
 %mem=8gb
 %nproc=4
 Will use up to    4 processors via shared memory.
 %chk=conf-430.chk
 ----------------------------------------------------------------------
 # B3LYP/6-31G* empiricaldispersion=gd3 guess=read geom=check nosymm in
 tegral(ultrafinegrid)
 ----------------------------------------------------------------------
 1/29=2,38=1,172=1/1;
 2/12=2,15=1,40=1/2;
 3/5=1,6=6,7=1,11=2,14=-4,25=1,30=1,74=-5,75=-5,116=-2,124=31/1,2,3;
 4/5=1/1;
 5/5=2,38=6/2;
 6/7=2,8=2,9=2,10=2,28=1/1;
 99/5=1,9=1/99;
 ------------------------------------------------------
 Candidate Structure: Conf:430 Charge calc in gas phase
 ------------------------------------------------------
 Structure from the checkpoint file:  "conf-430.chk"
 Charge =  1 Multiplicity = 1
 Redundant internal coordinates found in file.  (old form).
 N,0,-3.4433116158,-88.5346033686,133.2273871325
 C,0,-3.9756151593,-88.8955676143,131.9126350828
 C,0,-2.9378553287,-88.5571062221,130.8394000755
 O,0,-2.8992798946,-89.1810601278,129.7535877277
 C,0,-4.539329453,-90.3276233513,131.7835040424
 C,0,-5.3695504858,-90.5956421816,130.5055060668
 C,0,-4.6364337329,-91.1713598189,129.3156338069
 O,0,-4.9110898794,-90.9380979437,128.1406856782
 O,0,-3.7161328527,-92.0764719498,129.6496462816
 H,0,-3.32232532,-92.4254783472,128.8277937121
 H,0,-2.7968304192,-89.2472446175,133.5635533196
 H,0,-4.7989894262,-88.192826512,131.7104617263
 H,0,-5.1925546943,-90.4772443622,132.649761736
 H,0,-3.7303925588,-91.0604180762,131.865621751
 H,0,-5.8804852745,-89.6916841987,130.1609754549
 H,0,-6.1517139484,-91.3322189329,130.736953506
 H,0,-4.1897735303,-88.4583672158,133.9140311397
 N,0,-2.1597830881,-87.501495138,131.0905102107
 C,0,-1.3094571749,-86.8589613221,130.0784168671
 C,0,-2.2182122582,-86.4724128501,128.8859734639
 O,0,-3.0454598529,-85.5756042491,128.9614482735
 C,0,-0.6356664559,-85.6091712606,130.6660323419
 C,0,0.330725681,-84.9874362005,129.6818054479
 C,0,1.6698296785,-85.3907788671,129.6424215719
 C,0,-0.1029630198,-84.0283379116,128.7532147285
 C,0,2.5576918304,-84.8574835585,128.7090864765
 C,0,0.7705814602,-83.4884775981,127.8158534532
 C,0,2.1083870924,-83.9017776081,127.790138623
 O,0,2.9164129585,-83.3362121465,126.8495086811
 H,0,-2.2686638298,-87.0804239206,132.0104172616
 H,0,-0.5433167611,-87.5741690839,129.7580795564
 H,0,-1.4256749763,-84.8990913086,130.9352809439
 H,0,-0.1140105557,-85.8998691679,131.5862492075
 H,0,2.0341486617,-86.1252294276,130.3580032141
 H,0,-1.1403422944,-83.7058784726,128.7656222787
 H,0,3.5982816858,-85.1754725792,128.7003583466
 H,0,0.4412572582,-82.7395496814,127.1029783496
 H,0,3.822331654,-83.666369047,126.9553848538
 N,0,-2.0782366993,-87.2587941601,127.7781865627
 C,0,-3.0730957734,-87.2542170067,126.7191418426
 C,0,-4.5116510527,-87.292089662,127.2278582609
 O,0,-5.436086898,-86.8625164605,126.5488893883
 C,0,-2.8634012796,-88.5370942165,125.8678211118
 C,0,-3.8743677797,-88.774615238,124.7132514563
 C,0,-4.7231635733,-90.0729336024,124.8449614204
 C,0,-6.2280052773,-89.9152581682,125.0843544407
 N,0,-6.571672166,-89.3952566534,126.4638551297
 O,0,-4.7871480232,-88.0232471786,128.3054900183
 H,0,-3.9845847155,-88.4322750966,128.7293236349
 H,0,-1.5510049255,-88.1127598532,127.9036816001
 H,0,-2.9846882807,-86.3570954654,126.101254863
 H,0,-1.8443548492,-88.4827586887,125.4701887619
 H,0,-2.8820126495,-89.3898568525,126.5601475531
 H,0,-3.3117317619,-88.8363084605,123.7779776892
 H,0,-4.529151776,-87.9044257429,124.603063461
 H,0,-4.6520231625,-90.6428724244,123.9117084505
 H,0,-4.3177871496,-90.7283752726,125.6247923551
 H,0,-6.6833488207,-89.2247849575,124.3692666434
 H,0,-6.7211131628,-90.8862622376,124.9919805882
 H,0,-7.568416239,-89.5171778737,126.6611928651
 H,0,-6.3569240242,-88.3736953109,126.5469999946
 H,0,-6.0272419906,-89.8941190673,127.204151677
 Recover connectivity data from disk.
                           ----------------------------
                           !    Current Parameters    !
                           ! (Angstroms and Degrees)  !
 --------------------------                            --------------------------
 ! Name  Definition              Value                                          !
 --------------------------------------------------------------------------------
 ! R1    R(1,2)                  1.4636                                         !
 ! R2    R(1,11)                 1.0192                                         !
 ! R3    R(1,17)                 1.0171                                         !
 ! R4    R(2,3)                  1.5308                                         !
 ! R5    R(2,5)                  1.5444                                         !
 ! R6    R(2,12)                 1.1012                                         !
 ! R7    R(3,4)                  1.2529                                         !
 ! R8    R(3,18)                 1.3352                                         !
 ! R9    R(5,6)                  1.5474                                         !
 ! R10   R(5,13)                 1.0952                                         !
 ! R11   R(5,14)                 1.0946                                         !
 ! R12   R(6,7)                  1.5115                                         !
 ! R13   R(6,15)                 1.094                                          !
 ! R14   R(6,16)                 1.099                                          !
 ! R15   R(7,8)                  1.229                                          !
 ! R16   R(7,9)                  1.3333                                         !
 ! R17   R(9,10)                 0.9759                                         !
 ! R18   R(18,19)                1.4698                                         !
 ! R19   R(18,30)                1.0175                                         !
 ! R20   R(19,20)                1.5483                                         !
 ! R21   R(19,22)                1.5366                                         !
 ! R22   R(19,31)                1.096                                          !
 ! R23   R(20,21)                1.2224                                         !
 ! R24   R(20,39)                1.3657                                         !
 ! R25   R(22,23)                1.513                                          !
 ! R26   R(22,32)                1.0958                                         !
 ! R27   R(22,33)                1.097                                          !
 ! R28   R(23,24)                1.3991                                         !
 ! R29   R(23,25)                1.4037                                         !
 ! R30   R(24,26)                1.3942                                         !
 ! R31   R(24,34)                1.0882                                         !
 ! R32   R(25,27)                1.3904                                         !
 ! R33   R(25,35)                1.0864                                         !
 ! R34   R(26,28)                1.3999                                         !
 ! R35   R(26,36)                1.0881                                         !
 ! R36   R(27,28)                1.4004                                         !
 ! R37   R(27,37)                1.0851                                         !
 ! R38   R(28,29)                1.3629                                         !
 ! R39   R(29,38)                0.97                                           !
 ! R40   R(39,40)                1.453                                          !
 ! R41   R(39,50)                1.0114                                         !
 ! R42   R(40,41)                1.5263                                         !
 ! R43   R(40,43)                1.5539                                         !
 ! R44   R(40,51)                1.0929                                         !
 ! R45   R(41,42)                1.2248                                         !
 ! R46   R(41,48)                1.3311                                         !
 ! R47   R(43,44)                1.5529                                         !
 ! R48   R(43,52)                1.0952                                         !
 ! R49   R(43,53)                1.0986                                         !
 ! R50   R(44,45)                1.5567                                         !
 ! R51   R(44,54)                1.0932                                         !
 ! R52   R(44,55)                1.0946                                         !
 ! R53   R(45,46)                1.5319                                         !
 ! R54   R(45,56)                1.0958                                         !
 ! R55   R(45,57)                1.0964                                         !
 ! R56   R(46,47)                1.5138                                         !
 ! R57   R(46,58)                1.0934                                         !
 ! R58   R(46,59)                1.0929                                         !
 ! R59   R(47,60)                1.0234                                         !
 ! R60   R(47,61)                1.0472                                         !
 ! R61   R(47,62)                1.0456                                         !
 ! R62   R(48,49)                0.9955                                         !
 ! A1    A(2,1,11)             110.7642                                         !
 ! A2    A(2,1,17)             110.9774                                         !
 ! A3    A(11,1,17)            107.1729                                         !
 ! A4    A(1,2,3)              109.19                                           !
 ! A5    A(1,2,5)              115.8828                                         !
 ! A6    A(1,2,12)             106.2281                                         !
 ! A7    A(3,2,5)              113.1935                                         !
 ! A8    A(3,2,12)             103.7136                                         !
 ! A9    A(5,2,12)             107.6657                                         !
 ! A10   A(2,3,4)              121.2219                                         !
 ! A11   A(2,3,18)             115.9763                                         !
 ! A12   A(4,3,18)             122.5996                                         !
 ! A13   A(2,5,6)              115.1822                                         !
 ! A14   A(2,5,13)             106.1553                                         !
 ! A15   A(2,5,14)             110.1662                                         !
 ! A16   A(6,5,13)             108.0341                                         !
 ! A17   A(6,5,14)             110.0306                                         !
 ! A18   A(13,5,14)            106.8574                                         !
 ! A19   A(5,6,7)              117.123                                          !
 ! A20   A(5,6,15)             111.5648                                         !
 ! A21   A(5,6,16)             108.9047                                         !
 ! A22   A(7,6,15)             107.057                                          !
 ! A23   A(7,6,16)             104.8141                                         !
 ! A24   A(15,6,16)            106.7211                                         !
 ! A25   A(6,7,8)              124.8837                                         !
 ! A26   A(6,7,9)              113.3366                                         !
 ! A27   A(8,7,9)              121.5071                                         !
 ! A28   A(7,9,10)             108.0798                                         !
 ! A29   A(3,18,19)            123.5906                                         !
 ! A30   A(3,18,30)            115.7744                                         !
 ! A31   A(19,18,30)           120.2342                                         !
 ! A32   A(18,19,20)           107.4526                                         !
 ! A33   A(18,19,22)           110.2376                                         !
 ! A34   A(18,19,31)           108.6884                                         !
 ! A35   A(20,19,22)           110.4154                                         !
 ! A36   A(20,19,31)           110.3727                                         !
 ! A37   A(22,19,31)           109.6343                                         !
 ! A38   A(19,20,21)           122.1957                                         !
 ! A39   A(19,20,39)           114.8853                                         !
 ! A40   A(21,20,39)           122.8111                                         !
 ! A41   A(19,22,23)           111.4403                                         !
 ! A42   A(19,22,32)           107.7504                                         !
 ! A43   A(19,22,33)           108.286                                          !
 ! A44   A(23,22,32)           110.7342                                         !
 ! A45   A(23,22,33)           110.5387                                         !
 ! A46   A(32,22,33)           107.9643                                         !
 ! A47   A(22,23,24)           120.743                                          !
 ! A48   A(22,23,25)           120.9162                                         !
 ! A49   A(24,23,25)           118.3                                            !
 ! A50   A(23,24,26)           121.2043                                         !
 ! A51   A(23,24,34)           119.7684                                         !
 ! A52   A(26,24,34)           119.0234                                         !
 ! A53   A(23,25,27)           121.144                                          !
 ! A54   A(23,25,35)           119.359                                          !
 ! A55   A(27,25,35)           119.4966                                         !
 ! A56   A(24,26,28)           119.7483                                         !
 ! A57   A(24,26,36)           120.1714                                         !
 ! A58   A(28,26,36)           120.0779                                         !
 ! A59   A(25,27,28)           119.8657                                         !
 ! A60   A(25,27,37)           121.3455                                         !
 ! A61   A(28,27,37)           118.7857                                         !
 ! A62   A(26,28,27)           119.7377                                         !
 ! A63   A(26,28,29)           123.0971                                         !
 ! A64   A(27,28,29)           117.1652                                         !
 ! A65   A(28,29,38)           109.7018                                         !
 ! A66   A(20,39,40)           121.2791                                         !
 ! A67   A(20,39,50)           116.0365                                         !
 ! A68   A(40,39,50)           116.7434                                         !
 ! A69   A(39,40,41)           113.7222                                         !
 ! A70   A(39,40,43)           107.7171                                         !
 ! A71   A(39,40,51)           111.055                                          !
 ! A72   A(41,40,43)           106.8165                                         !
 ! A73   A(41,40,51)           106.5614                                         !
 ! A74   A(43,40,51)           110.9188                                         !
 ! A75   A(40,41,42)           121.1916                                         !
 ! A76   A(40,41,48)           118.5896                                         !
 ! A77   A(42,41,48)           119.0282                                         !
 ! A78   A(40,43,44)           116.4722                                         !
 ! A79   A(40,43,52)           106.4701                                         !
 ! A80   A(40,43,53)           107.0564                                         !
 ! A81   A(44,43,52)           110.0837                                         !
 ! A82   A(44,43,53)           109.8034                                         !
 ! A83   A(52,43,53)           106.4438                                         !
 ! A84   A(43,44,45)           114.8106                                         !
 ! A85   A(43,44,54)           108.0385                                         !
 ! A86   A(43,44,55)           110.0408                                         !
 ! A87   A(45,44,54)           107.8144                                         !
 ! A88   A(45,44,55)           110.2049                                         !
 ! A89   A(54,44,55)           105.463                                          !
 ! A90   A(44,45,46)           117.5801                                         !
 ! A91   A(44,45,56)           109.0449                                         !
 ! A92   A(44,45,57)           110.926                                          !
 ! A93   A(46,45,56)           104.5007                                         !
 ! A94   A(46,45,57)           108.2755                                         !
 ! A95   A(56,45,57)           105.713                                          !
 ! A96   A(45,46,47)           113.6271                                         !
 ! A97   A(45,46,58)           111.8328                                         !
 ! A98   A(45,46,59)           109.7886                                         !
 ! A99   A(47,46,58)           106.5308                                         !
 ! A100  A(47,46,59)           106.247                                          !
 ! A101  A(58,46,59)           108.5348                                         !
 ! A102  A(46,47,60)           110.8496                                         !
 ! A103  A(46,47,61)           111.1556                                         !
 ! A104  A(46,47,62)           111.2908                                         !
 ! A105  A(60,47,61)           107.4962                                         !
 ! A106  A(60,47,62)           108.2863                                         !
 ! A107  A(61,47,62)           107.6037                                         !
 ! A108  A(41,48,49)           113.7979                                         !
 ! D1    D(11,1,2,3)           -79.5155                                         !
 ! D2    D(11,1,2,5)            49.7101                                         !
 ! D3    D(11,1,2,12)          169.2163                                         !
 ! D4    D(17,1,2,3)           161.5671                                         !
 ! D5    D(17,1,2,5)           -69.2074                                         !
 ! D6    D(17,1,2,12)           50.2988                                         !
 ! D7    D(1,2,3,4)            153.0148                                         !
 ! D8    D(1,2,3,18)           -32.0241                                         !
 ! D9    D(5,2,3,4)             22.3237                                         !
 ! D10   D(5,2,3,18)          -162.7152                                         !
 ! D11   D(12,2,3,4)           -94.0607                                         !
 ! D12   D(12,2,3,18)           80.9005                                         !
 ! D13   D(1,2,5,6)            167.2179                                         !
 ! D14   D(1,2,5,13)            47.7218                                         !
 ! D15   D(1,2,5,14)           -67.62                                           !
 ! D16   D(3,2,5,6)            -65.5268                                         !
 ! D17   D(3,2,5,13)           174.9771                                         !
 ! D18   D(3,2,5,14)            59.6353                                         !
 ! D19   D(12,2,5,6)            48.4983                                         !
 ! D20   D(12,2,5,13)          -70.9978                                         !
 ! D21   D(12,2,5,14)          173.6604                                         !
 ! D22   D(2,3,18,19)         -166.8825                                         !
 ! D23   D(2,3,18,30)            5.8472                                         !
 ! D24   D(4,3,18,19)            8.0025                                         !
 ! D25   D(4,3,18,30)         -179.2679                                         !
 ! D26   D(2,5,6,7)             93.4148                                         !
 ! D27   D(2,5,6,15)           -30.4208                                         !
 ! D28   D(2,5,6,16)          -147.96                                           !
 ! D29   D(13,5,6,7)          -148.1327                                         !
 ! D30   D(13,5,6,15)           88.0317                                         !
 ! D31   D(13,5,6,16)          -29.5075                                         !
 ! D32   D(14,5,6,7)           -31.8176                                         !
 ! D33   D(14,5,6,15)         -155.6532                                         !
 ! D34   D(14,5,6,16)           86.8076                                         !
 ! D35   D(5,6,7,8)           -147.521                                          !
 ! D36   D(5,6,7,9)             38.4226                                         !
 ! D37   D(15,6,7,8)           -21.4258                                         !
 ! D38   D(15,6,7,9)           164.5178                                         !
 ! D39   D(16,6,7,8)            91.6808                                         !
 ! D40   D(16,6,7,9)           -82.3756                                         !
 ! D41   D(6,7,9,10)           177.4062                                         !
 ! D42   D(8,7,9,10)             3.1241                                         !
 ! D43   D(3,18,19,20)          55.033                                          !
 ! D44   D(3,18,19,22)         175.4056                                         !
 ! D45   D(3,18,19,31)         -64.4114                                         !
 ! D46   D(30,18,19,20)       -117.3875                                         !
 ! D47   D(30,18,19,22)          2.9852                                         !
 ! D48   D(30,18,19,31)        123.1681                                         !
 ! D49   D(18,19,20,21)         70.2258                                         !
 ! D50   D(18,19,20,39)       -106.0958                                         !
 ! D51   D(22,19,20,21)        -50.0342                                         !
 ! D52   D(22,19,20,39)        133.6441                                         !
 ! D53   D(31,19,20,21)       -171.4119                                         !
 ! D54   D(31,19,20,39)         12.2665                                         !
 ! D55   D(18,19,22,23)        175.5267                                         !
 ! D56   D(18,19,22,32)        -62.8                                            !
 ! D57   D(18,19,22,33)         53.7413                                         !
 ! D58   D(20,19,22,23)        -65.8993                                         !
 ! D59   D(20,19,22,32)         55.774                                          !
 ! D60   D(20,19,22,33)        172.3154                                         !
 ! D61   D(31,19,22,23)         55.9154                                         !
 ! D62   D(31,19,22,32)        177.5887                                         !
 ! D63   D(31,19,22,33)        -65.87                                           !
 ! D64   D(19,20,39,40)        164.0645                                         !
 ! D65   D(19,20,39,50)         12.085                                          !
 ! D66   D(21,20,39,40)        -12.2319                                         !
 ! D67   D(21,20,39,50)       -164.2114                                         !
 ! D68   D(19,22,23,24)        -89.1112                                         !
 ! D69   D(19,22,23,25)         88.5271                                         !
 ! D70   D(32,22,23,24)        150.963                                          !
 ! D71   D(32,22,23,25)        -31.3988                                         !
 ! D72   D(33,22,23,24)         31.3595                                         !
 ! D73   D(33,22,23,25)       -151.0022                                         !
 ! D74   D(22,23,24,26)        177.7788                                         !
 ! D75   D(22,23,24,34)         -2.942                                          !
 ! D76   D(25,23,24,26)          0.08                                           !
 ! D77   D(25,23,24,34)        179.3592                                         !
 ! D78   D(22,23,25,27)       -177.7165                                         !
 ! D79   D(22,23,25,35)          2.0435                                         !
 ! D80   D(24,23,25,27)         -0.0219                                         !
 ! D81   D(24,23,25,35)        179.7382                                         !
 ! D82   D(23,24,26,28)         -0.081                                          !
 ! D83   D(23,24,26,36)        179.3459                                         !
 ! D84   D(34,24,26,28)       -179.3655                                         !
 ! D85   D(34,24,26,36)          0.0614                                         !
 ! D86   D(23,25,27,28)         -0.0346                                         !
 ! D87   D(23,25,27,37)       -179.3774                                         !
 ! D88   D(35,25,27,28)       -179.7944                                         !
 ! D89   D(35,25,27,37)          0.8629                                         !
 ! D90   D(24,26,28,27)          0.0227                                         !
 ! D91   D(24,26,28,29)       -179.9951                                         !
 ! D92   D(36,26,28,27)       -179.4048                                         !
 ! D93   D(36,26,28,29)          0.5774                                         !
 ! D94   D(25,27,28,26)          0.0343                                         !
 ! D95   D(25,27,28,29)       -179.949                                          !
 ! D96   D(37,27,28,26)        179.3938                                         !
 ! D97   D(37,27,28,29)         -0.5894                                         !
 ! D98   D(26,28,29,38)         -2.6521                                         !
 ! D99   D(27,28,29,38)        177.3305                                         !
 ! D100  D(20,39,40,41)        -44.1368                                         !
 ! D101  D(20,39,40,43)       -162.3093                                         !
 ! D102  D(20,39,40,51)         76.0479                                         !
 ! D103  D(50,39,40,41)        107.6553                                         !
 ! D104  D(50,39,40,43)        -10.5172                                         !
 ! D105  D(50,39,40,51)       -132.16                                           !
 ! D106  D(39,40,41,42)        155.6617                                         !
 ! D107  D(39,40,41,48)        -36.9293                                         !
 ! D108  D(43,40,41,42)        -85.6488                                         !
 ! D109  D(43,40,41,48)         81.7602                                         !
 ! D110  D(51,40,41,42)         32.9724                                         !
 ! D111  D(51,40,41,48)       -159.6186                                         !
 ! D112  D(39,40,43,44)        176.9528                                         !
 ! D113  D(39,40,43,52)        -59.8685                                         !
 ! D114  D(39,40,43,53)         53.6768                                         !
 ! D115  D(41,40,43,44)         54.4219                                         !
 ! D116  D(41,40,43,52)        177.6006                                         !
 ! D117  D(41,40,43,53)        -68.8541                                         !
 ! D118  D(51,40,43,44)        -61.3197                                         !
 ! D119  D(51,40,43,52)         61.859                                          !
 ! D120  D(51,40,43,53)        175.4043                                         !
 ! D121  D(40,41,48,49)          4.6017                                         !
 ! D122  D(42,41,48,49)        172.2878                                         !
 ! D123  D(40,43,44,45)       -118.0088                                         !
 ! D124  D(40,43,44,54)        121.6588                                         !
 ! D125  D(40,43,44,55)          6.9968                                         !
 ! D126  D(52,43,44,45)        120.7058                                         !
 ! D127  D(52,43,44,54)          0.3733                                         !
 ! D128  D(52,43,44,55)       -114.2887                                         !
 ! D129  D(53,43,44,45)          3.8333                                         !
 ! D130  D(53,43,44,54)       -116.4991                                         !
 ! D131  D(53,43,44,55)        128.8389                                         !
 ! D132  D(43,44,45,46)        112.9185                                         !
 ! D133  D(43,44,45,56)       -128.4505                                         !
 ! D134  D(43,44,45,57)        -12.4274                                         !
 ! D135  D(54,44,45,46)       -126.6255                                         !
 ! D136  D(54,44,45,56)         -7.9944                                         !
 ! D137  D(54,44,45,57)        108.0287                                         !
 ! D138  D(55,44,45,46)        -12.0011                                         !
 ! D139  D(55,44,45,56)        106.63                                           !
 ! D140  D(55,44,45,57)       -137.3469                                         !
 ! D141  D(44,45,46,47)        -70.4933                                         !
 ! D142  D(44,45,46,58)         50.1586                                         !
 ! D143  D(44,45,46,59)        170.6948                                         !
 ! D144  D(56,45,46,47)        168.4857                                         !
 ! D145  D(56,45,46,58)        -70.8623                                         !
 ! D146  D(56,45,46,59)         49.6738                                         !
 ! D147  D(57,45,46,47)         56.152                                          !
 ! D148  D(57,45,46,58)        176.8039                                         !
 ! D149  D(57,45,46,59)        -62.6599                                         !
 ! D150  D(45,46,47,60)       -166.3494                                         !
 ! D151  D(45,46,47,61)         74.156                                          !
 ! D152  D(45,46,47,62)        -45.7679                                         !
 ! D153  D(58,46,47,60)         70.0594                                         !
 ! D154  D(58,46,47,61)        -49.4353                                         !
 ! D155  D(58,46,47,62)       -169.3591                                         !
 ! D156  D(59,46,47,60)        -45.527                                          !
 ! D157  D(59,46,47,61)       -165.0216                                         !
 ! D158  D(59,46,47,62)         75.0546                                         !
 --------------------------------------------------------------------------------
 Symmetry turned off by external request.
 Stoichiometry    C20H31N4O7(1+)
 Framework group  C1[X(C20H31N4O7)]
 Deg. of freedom   180
 Full point group                 C1      NOp   1
                          Input orientation:                          
 ---------------------------------------------------------------------
 Center     Atomic      Atomic             Coordinates (Angstroms)
 Number     Number       Type             X           Y           Z
 ---------------------------------------------------------------------
      1          7           0       -3.443312  -88.534603  133.227387
      2          6           0       -3.975615  -88.895568  131.912635
      3          6           0       -2.937855  -88.557106  130.839400
      4          8           0       -2.899280  -89.181060  129.753588
      5          6           0       -4.539329  -90.327623  131.783504
      6          6           0       -5.369550  -90.595642  130.505506
      7          6           0       -4.636434  -91.171360  129.315634
      8          8           0       -4.911090  -90.938098  128.140686
      9          8           0       -3.716133  -92.076472  129.649646
     10          1           0       -3.322325  -92.425478  128.827794
     11          1           0       -2.796830  -89.247245  133.563553
     12          1           0       -4.798989  -88.192827  131.710462
     13          1           0       -5.192555  -90.477244  132.649762
     14          1           0       -3.730393  -91.060418  131.865622
     15          1           0       -5.880485  -89.691684  130.160975
     16          1           0       -6.151714  -91.332219  130.736954
     17          1           0       -4.189774  -88.458367  133.914031
     18          7           0       -2.159783  -87.501495  131.090510
     19          6           0       -1.309457  -86.858961  130.078417
     20          6           0       -2.218212  -86.472413  128.885973
     21          8           0       -3.045460  -85.575604  128.961448
     22          6           0       -0.635666  -85.609171  130.666032
     23          6           0        0.330726  -84.987436  129.681805
     24          6           0        1.669830  -85.390779  129.642422
     25          6           0       -0.102963  -84.028338  128.753215
     26          6           0        2.557692  -84.857484  128.709086
     27          6           0        0.770581  -83.488478  127.815853
     28          6           0        2.108387  -83.901778  127.790139
     29          8           0        2.916413  -83.336212  126.849509
     30          1           0       -2.268664  -87.080424  132.010417
     31          1           0       -0.543317  -87.574169  129.758080
     32          1           0       -1.425675  -84.899091  130.935281
     33          1           0       -0.114011  -85.899869  131.586249
     34          1           0        2.034149  -86.125229  130.358003
     35          1           0       -1.140342  -83.705878  128.765622
     36          1           0        3.598282  -85.175473  128.700358
     37          1           0        0.441257  -82.739550  127.102978
     38          1           0        3.822332  -83.666369  126.955385
     39          7           0       -2.078237  -87.258794  127.778187
     40          6           0       -3.073096  -87.254217  126.719142
     41          6           0       -4.511651  -87.292090  127.227858
     42          8           0       -5.436087  -86.862516  126.548889
     43          6           0       -2.863401  -88.537094  125.867821
     44          6           0       -3.874368  -88.774615  124.713251
     45          6           0       -4.723164  -90.072934  124.844961
     46          6           0       -6.228005  -89.915258  125.084354
     47          7           0       -6.571672  -89.395257  126.463855
     48          8           0       -4.787148  -88.023247  128.305490
     49          1           0       -3.984585  -88.432275  128.729324
     50          1           0       -1.551005  -88.112760  127.903682
     51          1           0       -2.984688  -86.357095  126.101255
     52          1           0       -1.844355  -88.482759  125.470189
     53          1           0       -2.882013  -89.389857  126.560148
     54          1           0       -3.311732  -88.836308  123.777978
     55          1           0       -4.529152  -87.904426  124.603063
     56          1           0       -4.652023  -90.642872  123.911708
     57          1           0       -4.317787  -90.728375  125.624792
     58          1           0       -6.683349  -89.224785  124.369267
     59          1           0       -6.721113  -90.886262  124.991981
     60          1           0       -7.568416  -89.517178  126.661193
     61          1           0       -6.356924  -88.373695  126.547000
     62          1           0       -6.027242  -89.894119  127.204152
 ---------------------------------------------------------------------
 Rotational constants (GHZ):           0.1979771           0.0927575           0.0716713
 Standard basis: 6-31G(d) (6D, 7F)
   527 basis functions,   992 primitive gaussians,   527 cartesian basis functions
   117 alpha electrons      117 beta electrons
       nuclear repulsion energy      3421.9727969698 Hartrees.
 NAtoms=   62 NActive=   62 NUniq=   62 SFac= 1.00D+00 NAtFMM=   60 NAOKFM=T Big=T
 Integral buffers will be    131072 words long.
 Raffenetti 2 integral format.
 Two-electron integral symmetry is turned off.
 Nuclear repulsion after empirical dispersion term =     3421.8877141544 Hartrees.
 One-electron integrals computed using PRISM.
 NBasis=   527 RedAO= T EigKep=  4.33D-04  NBF=   527
 NBsUse=   527 1.00D-06 EigRej= -1.00D+00 NBFU=   527
 Initial guess from the checkpoint file:  "conf-430.chk"
 B after Tr=     0.000000    0.000000    0.000000
         Rot=    1.000000    0.000000    0.000000    0.000000 Ang=   0.00 deg.
 Requested convergence on RMS density matrix=1.00D-08 within 128 cycles.
 Requested convergence on MAX density matrix=1.00D-06.
 Requested convergence on             energy=1.00D-06.
 No special actions if energy rises.
 SCF Done:  E(RB3LYP) =  -1526.32035849     A.U. after    1 cycles
            NFock=  1  Conv=0.47D-08     -V/T= 2.0093

 **********************************************************************

            Population analysis using the SCF Density.

 **********************************************************************

 Alpha  occ. eigenvalues --  -19.31687 -19.29871 -19.26945 -19.25256 -19.24542
 Alpha  occ. eigenvalues --  -19.24267 -19.22145 -14.55508 -14.47897 -14.46747
 Alpha  occ. eigenvalues --  -14.43730 -10.45103 -10.43421 -10.40948 -10.39034
 Alpha  occ. eigenvalues --  -10.37057 -10.35037 -10.34322 -10.34105 -10.31840
 Alpha  occ. eigenvalues --  -10.31704 -10.31425 -10.31231 -10.30516 -10.30147
 Alpha  occ. eigenvalues --  -10.28341 -10.26419 -10.26334 -10.25820 -10.25765
 Alpha  occ. eigenvalues --  -10.25092  -1.23118  -1.21655  -1.16148  -1.14084
 Alpha  occ. eigenvalues --   -1.13812  -1.12747  -1.12388  -1.10501  -1.04574
 Alpha  occ. eigenvalues --   -1.03670  -1.00532  -0.92719  -0.92348  -0.90782
 Alpha  occ. eigenvalues --   -0.89136  -0.87549  -0.83176  -0.82674  -0.81593
 Alpha  occ. eigenvalues --   -0.80579  -0.76281  -0.75996  -0.74694  -0.72753
 Alpha  occ. eigenvalues --   -0.72475  -0.72129  -0.70033  -0.69613  -0.69134
 Alpha  occ. eigenvalues --   -0.68892  -0.67544  -0.65801  -0.64985  -0.64121
 Alpha  occ. eigenvalues --   -0.62515  -0.61716  -0.61049  -0.60808  -0.60556
 Alpha  occ. eigenvalues --   -0.59730  -0.59621  -0.58848  -0.58203  -0.57938
 Alpha  occ. eigenvalues --   -0.56738  -0.55720  -0.55270  -0.55001  -0.54561
 Alpha  occ. eigenvalues --   -0.54139  -0.53342  -0.53051  -0.52744  -0.51785
 Alpha  occ. eigenvalues --   -0.51239  -0.50999  -0.50526  -0.50100  -0.49878
 Alpha  occ. eigenvalues --   -0.49325  -0.48924  -0.48757  -0.48300  -0.47636
 Alpha  occ. eigenvalues --   -0.47147  -0.46683  -0.46621  -0.46168  -0.45796
 Alpha  occ. eigenvalues --   -0.45324  -0.44852  -0.44315  -0.44118  -0.42772
 Alpha  occ. eigenvalues --   -0.42608  -0.40812  -0.40457  -0.39948  -0.39633
 Alpha  occ. eigenvalues --   -0.38835  -0.38769  -0.36273  -0.35871  -0.34850
 Alpha  occ. eigenvalues --   -0.32009  -0.28658
 Alpha virt. eigenvalues --   -0.11430  -0.11185  -0.11122  -0.08610  -0.07272
 Alpha virt. eigenvalues --   -0.06870  -0.06068  -0.04249  -0.02392  -0.01922
 Alpha virt. eigenvalues --   -0.01597  -0.00771  -0.00065   0.00307   0.00787
 Alpha virt. eigenvalues --    0.01261   0.01411   0.02304   0.02373   0.02731
 Alpha virt. eigenvalues --    0.02890   0.03515   0.04423   0.04524   0.04885
 Alpha virt. eigenvalues --    0.05754   0.06085   0.06280   0.06776   0.07025
 Alpha virt. eigenvalues --    0.07497   0.07873   0.08308   0.08546   0.09151
 Alpha virt. eigenvalues --    0.09617   0.10172   0.10495   0.11068   0.11262
 Alpha virt. eigenvalues --    0.11543   0.12880   0.13065   0.13271   0.13781
 Alpha virt. eigenvalues --    0.14055   0.14420   0.14922   0.16453   0.16792
 Alpha virt. eigenvalues --    0.17418   0.18129   0.18734   0.18866   0.19353
 Alpha virt. eigenvalues --    0.21510   0.24050   0.24592   0.25279   0.26558
 Alpha virt. eigenvalues --    0.26823   0.27210   0.27790   0.29195   0.29241
 Alpha virt. eigenvalues --    0.31144   0.31892   0.34391   0.38101   0.38872
 Alpha virt. eigenvalues --    0.40241   0.40636   0.41049   0.41546   0.42150
 Alpha virt. eigenvalues --    0.42829   0.43215   0.44379   0.44557   0.45199
 Alpha virt. eigenvalues --    0.45654   0.46011   0.46322   0.46540   0.47099
 Alpha virt. eigenvalues --    0.47742   0.48205   0.48388   0.49412   0.49704
 Alpha virt. eigenvalues --    0.50675   0.50882   0.51575   0.52151   0.52373
 Alpha virt. eigenvalues --    0.52825   0.53034   0.54114   0.54343   0.54622
 Alpha virt. eigenvalues --    0.55184   0.55274   0.55985   0.56378   0.56907
 Alpha virt. eigenvalues --    0.57587   0.58293   0.58947   0.59041   0.59397
 Alpha virt. eigenvalues --    0.60020   0.60462   0.61283   0.61871   0.62546
 Alpha virt. eigenvalues --    0.63861   0.64602   0.65691   0.66053   0.66328
 Alpha virt. eigenvalues --    0.66837   0.68361   0.68750   0.68964   0.69636
 Alpha virt. eigenvalues --    0.70515   0.70860   0.71782   0.71815   0.72260
 Alpha virt. eigenvalues --    0.73234   0.73591   0.74528   0.74665   0.75098
 Alpha virt. eigenvalues --    0.75798   0.76353   0.76474   0.76727   0.77089
 Alpha virt. eigenvalues --    0.77629   0.78121   0.78488   0.78785   0.79189
 Alpha virt. eigenvalues --    0.79677   0.80342   0.80446   0.80914   0.81232
 Alpha virt. eigenvalues --    0.81472   0.82104   0.82348   0.82561   0.83374
 Alpha virt. eigenvalues --    0.83778   0.83801   0.84831   0.85173   0.86187
 Alpha virt. eigenvalues --    0.86710   0.87207   0.87361   0.89013   0.89807
 Alpha virt. eigenvalues --    0.90338   0.90586   0.91031   0.92013   0.92447
 Alpha virt. eigenvalues --    0.93379   0.93761   0.94248   0.95683   0.96385
 Alpha virt. eigenvalues --    0.97334   0.98220   0.98596   0.99203   1.00768
 Alpha virt. eigenvalues --    1.01285   1.02340   1.02716   1.04721   1.05598
 Alpha virt. eigenvalues --    1.06943   1.07102   1.08784   1.10638   1.11708
 Alpha virt. eigenvalues --    1.12688   1.13863   1.14389   1.15947   1.16747
 Alpha virt. eigenvalues --    1.17675   1.17986   1.18879   1.20376   1.21077
 Alpha virt. eigenvalues --    1.21871   1.24263   1.24792   1.25848   1.26114
 Alpha virt. eigenvalues --    1.28221   1.28735   1.29303   1.30313   1.30980
 Alpha virt. eigenvalues --    1.32430   1.32986   1.34096   1.34346   1.34867
 Alpha virt. eigenvalues --    1.36432   1.36717   1.38395   1.38904   1.39630
 Alpha virt. eigenvalues --    1.39845   1.41702   1.42454   1.44372   1.44761
 Alpha virt. eigenvalues --    1.46034   1.47280   1.49590   1.50557   1.51434
 Alpha virt. eigenvalues --    1.52985   1.53780   1.55002   1.55709   1.56707
 Alpha virt. eigenvalues --    1.57218   1.58880   1.59568   1.60075   1.61473
 Alpha virt. eigenvalues --    1.62413   1.63472   1.63980   1.64740   1.64819
 Alpha virt. eigenvalues --    1.66610   1.66877   1.67019   1.67825   1.68003
 Alpha virt. eigenvalues --    1.69294   1.69375   1.70287   1.71135   1.72616
 Alpha virt. eigenvalues --    1.72833   1.73666   1.74052   1.74104   1.75098
 Alpha virt. eigenvalues --    1.75225   1.76600   1.76866   1.77613   1.79275
 Alpha virt. eigenvalues --    1.80372   1.80632   1.81030   1.82460   1.83263
 Alpha virt. eigenvalues --    1.83662   1.84028   1.85392   1.85490   1.87434
 Alpha virt. eigenvalues --    1.87854   1.88172   1.88987   1.89010   1.90069
 Alpha virt. eigenvalues --    1.90313   1.90750   1.91748   1.91986   1.92609
 Alpha virt. eigenvalues --    1.93262   1.93979   1.95129   1.95995   1.96354
 Alpha virt. eigenvalues --    1.97157   1.98889   1.99381   2.00143   2.00602
 Alpha virt. eigenvalues --    2.01653   2.02038   2.04656   2.05413   2.06276
 Alpha virt. eigenvalues --    2.07783   2.08204   2.09006   2.10126   2.11383
 Alpha virt. eigenvalues --    2.13037   2.15985   2.16983   2.17757   2.18878
 Alpha virt. eigenvalues --    2.19429   2.19939   2.21374   2.21831   2.22456
 Alpha virt. eigenvalues --    2.23626   2.24744   2.25440   2.25789   2.26350
 Alpha virt. eigenvalues --    2.27452   2.29110   2.29253   2.30121   2.30667
 Alpha virt. eigenvalues --    2.32003   2.33091   2.33875   2.34675   2.34831
 Alpha virt. eigenvalues --    2.37282   2.38256   2.39087   2.40857   2.42786
 Alpha virt. eigenvalues --    2.44247   2.45229   2.46778   2.47896   2.48607
 Alpha virt. eigenvalues --    2.49403   2.51036   2.51781   2.52496   2.54069
 Alpha virt. eigenvalues --    2.54509   2.55145   2.55887   2.56894   2.58008
 Alpha virt. eigenvalues --    2.58768   2.59223   2.59448   2.60832   2.63135
 Alpha virt. eigenvalues --    2.64750   2.65996   2.67880   2.70289   2.71799
 Alpha virt. eigenvalues --    2.72312   2.75355   2.75974   2.79154   2.80318
 Alpha virt. eigenvalues --    2.82537   2.82907   2.86294   2.89697   2.91386
 Alpha virt. eigenvalues --    2.92698   2.94191   2.95814   2.96402   3.00452
 Alpha virt. eigenvalues --    3.05204   3.08026   3.08194   3.34772   3.72173
 Alpha virt. eigenvalues --    3.74168   3.82494   3.85601   3.87612   3.93784
 Alpha virt. eigenvalues --    4.00249   4.01193   4.03889   4.05638   4.07573
 Alpha virt. eigenvalues --    4.08946   4.11127   4.13567   4.16579   4.20201
 Alpha virt. eigenvalues --    4.22255   4.26186   4.27566   4.29495   4.31583
 Alpha virt. eigenvalues --    4.35583   4.41466   4.42752   4.43969   4.44858
 Alpha virt. eigenvalues --    4.50732   4.56266   4.60347   4.65993   4.69610
          Condensed to atoms (all electrons):
 Mulliken charges:
               1
     1  N   -0.737925
     2  C   -0.083473
     3  C    0.633983
     4  O   -0.615206
     5  C   -0.274812
     6  C   -0.374440
     7  C    0.647475
     8  O   -0.529553
     9  O   -0.532748
    10  H    0.425485
    11  H    0.323476
    12  H    0.191483
    13  H    0.159280
    14  H    0.184228
    15  H    0.180609
    16  H    0.198625
    17  H    0.331956
    18  N   -0.579064
    19  C   -0.013992
    20  C    0.612375
    21  O   -0.509701
    22  C   -0.399816
    23  C    0.144781
    24  C   -0.191067
    25  C   -0.190996
    26  C   -0.191825
    27  C   -0.161317
    28  C    0.354975
    29  O   -0.632705
    30  H    0.379201
    31  H    0.167086
    32  H    0.186848
    33  H    0.162291
    34  H    0.128785
    35  H    0.159318
    36  H    0.132126
    37  H    0.154090
    38  H    0.414072
    39  N   -0.605147
    40  C   -0.024601
    41  C    0.640565
    42  O   -0.504318
    43  C   -0.339767
    44  C   -0.307695
    45  C   -0.300054
    46  C   -0.190076
    47  N   -0.800655
    48  O   -0.642221
    49  H    0.494193
    50  H    0.348444
    51  H    0.210918
    52  H    0.188690
    53  H    0.159150
    54  H    0.178734
    55  H    0.189617
    56  H    0.186429
    57  H    0.180436
    58  H    0.209482
    59  H    0.199392
    60  H    0.394220
    61  H    0.433017
    62  H    0.447339
 Sum of Mulliken charges =   1.00000
 Mulliken charges with hydrogens summed into heavy atoms:
               1
     1  N   -0.082493
     2  C    0.108010
     3  C    0.633983
     4  O   -0.615206
     5  C    0.068696
     6  C    0.004795
     7  C    0.647475
     8  O   -0.529553
     9  O   -0.107263
    18  N   -0.199863
    19  C    0.153095
    20  C    0.612375
    21  O   -0.509701
    22  C   -0.050677
    23  C    0.144781
    24  C   -0.062282
    25  C   -0.031678
    26  C   -0.059700
    27  C   -0.007227
    28  C    0.354975
    29  O   -0.218634
    39  N   -0.256703
    40  C    0.186317
    41  C    0.640565
    42  O   -0.504318
    43  C    0.008073
    44  C    0.060656
    45  C    0.066811
    46  C    0.218798
    47  N    0.473921
    48  O   -0.148028
 Electronic spatial extent (au):  <R**2>=       20270257.5925
 Charge=              1.0000 electrons
 Dipole moment (field-independent basis, Debye):
    X=            -18.9600    Y=           -432.1594    Z=            616.9444  Tot=            753.4863
 Quadrupole moment (field-independent basis, Debye-Ang):
   XX=            -40.0468   YY=          38699.2842   ZZ=          79121.3325
   XY=           1727.2557   XZ=          -2423.8422   YZ=         -55502.1743
 Traceless Quadrupole moment (field-independent basis, Debye-Ang):
   XX=         -39300.2368   YY=           -560.9057   ZZ=          39861.1425
   XY=           1727.2557   XZ=          -2423.8422   YZ=         -55502.1743
 Octapole moment (field-independent basis, Debye-Ang**2):
  XXX=            614.2059  YYY=       -3450227.9386  ZZZ=       10131411.6329  XYY=        -156771.3136
  XXY=           3184.0108  XXZ=          -5306.2424  XZZ=        -309648.9303  YZZ=       -7117575.9346
  YYZ=        4969564.1355  XYZ=         220801.9504
 Hexadecapole moment (field-independent basis, Debye-Ang**3):
 XXXX=          -8538.9114 YYYY=      306322539.9448 ZZZZ=     1295288990.5718 XXXY=         -54059.5049
 XXXZ=          79693.7309 YYYX=       14178773.7630 YYYZ=     -443006430.9124 ZZZX=      -39530540.0882
 ZZZY=     -911394531.7779 XXYY=        -253261.7283 XXZZ=        -704463.7302 YYZZ=      637247592.3405
 XXYZ=         423557.3133 YYXZ=      -20039606.0261 ZZXY=       28206716.2980
 N-N= 3.421887714154D+03 E-N=-1.037849708103D+04  KE= 1.512273430488D+03
 Unable to Open any file for archive entry.
 1\1\GINC-VIM-002\SP\RB3LYP\6-31G(d)\C20H31N4O7(1+)\KENGMITH\24-May-202
 2\0\\# B3LYP/6-31G* empiricaldispersion=gd3 guess=read geom=check nosy
 mm integral(ultrafinegrid)\\Candidate Structure: Conf:430 Charge calc 
 in gas phase\\1,1\N,0,-3.4433116158,-88.5346033686,133.2273871325\C,0,
 -3.9756151593,-88.8955676143,131.9126350828\C,0,-2.9378553287,-88.5571
 062221,130.8394000755\O,0,-2.8992798946,-89.1810601278,129.7535877277\
 C,0,-4.539329453,-90.3276233513,131.7835040424\C,0,-5.3695504858,-90.5
 956421816,130.5055060668\C,0,-4.6364337329,-91.1713598189,129.31563380
 69\O,0,-4.9110898794,-90.9380979437,128.1406856782\O,0,-3.7161328527,-
 92.0764719498,129.6496462816\H,0,-3.32232532,-92.4254783472,128.827793
 7121\H,0,-2.7968304192,-89.2472446175,133.5635533196\H,0,-4.7989894262
 ,-88.192826512,131.7104617263\H,0,-5.1925546943,-90.4772443622,132.649
 761736\H,0,-3.7303925588,-91.0604180762,131.865621751\H,0,-5.880485274
 5,-89.6916841987,130.1609754549\H,0,-6.1517139484,-91.3322189329,130.7
 36953506\H,0,-4.1897735303,-88.4583672158,133.9140311397\N,0,-2.159783
 0881,-87.501495138,131.0905102107\C,0,-1.3094571749,-86.8589613221,130
 .0784168671\C,0,-2.2182122582,-86.4724128501,128.8859734639\O,0,-3.045
 4598529,-85.5756042491,128.9614482735\C,0,-0.6356664559,-85.6091712606
 ,130.6660323419\C,0,0.330725681,-84.9874362005,129.6818054479\C,0,1.66
 98296785,-85.3907788671,129.6424215719\C,0,-0.1029630198,-84.028337911
 6,128.7532147285\C,0,2.5576918304,-84.8574835585,128.7090864765\C,0,0.
 7705814602,-83.4884775981,127.8158534532\C,0,2.1083870924,-83.90177760
 81,127.790138623\O,0,2.9164129585,-83.3362121465,126.8495086811\H,0,-2
 .2686638298,-87.0804239206,132.0104172616\H,0,-0.5433167611,-87.574169
 0839,129.7580795564\H,0,-1.4256749763,-84.8990913086,130.9352809439\H,
 0,-0.1140105557,-85.8998691679,131.5862492075\H,0,2.0341486617,-86.125
 2294276,130.3580032141\H,0,-1.1403422944,-83.7058784726,128.7656222787
 \H,0,3.5982816858,-85.1754725792,128.7003583466\H,0,0.4412572582,-82.7
 395496814,127.1029783496\H,0,3.822331654,-83.666369047,126.9553848538\
 N,0,-2.0782366993,-87.2587941601,127.7781865627\C,0,-3.0730957734,-87.
 2542170067,126.7191418426\C,0,-4.5116510527,-87.292089662,127.22785826
 09\O,0,-5.436086898,-86.8625164605,126.5488893883\C,0,-2.8634012796,-8
 8.5370942165,125.8678211118\C,0,-3.8743677797,-88.774615238,124.713251
 4563\C,0,-4.7231635733,-90.0729336024,124.8449614204\C,0,-6.2280052773
 ,-89.9152581682,125.0843544407\N,0,-6.571672166,-89.3952566534,126.463
 8551297\O,0,-4.7871480232,-88.0232471786,128.3054900183\H,0,-3.9845847
 155,-88.4322750966,128.7293236349\H,0,-1.5510049255,-88.1127598532,127
 .9036816001\H,0,-2.9846882807,-86.3570954654,126.101254863\H,0,-1.8443
 548492,-88.4827586887,125.4701887619\H,0,-2.8820126495,-89.3898568525,
 126.5601475531\H,0,-3.3117317619,-88.8363084605,123.7779776892\H,0,-4.
 529151776,-87.9044257429,124.603063461\H,0,-4.6520231625,-90.642872424
 4,123.9117084505\H,0,-4.3177871496,-90.7283752726,125.6247923551\H,0,-
 6.6833488207,-89.2247849575,124.3692666434\H,0,-6.7211131628,-90.88626
 22376,124.9919805882\H,0,-7.568416239,-89.5171778737,126.6611928651\H,
 0,-6.3569240242,-88.3736953109,126.5469999946\H,0,-6.0272419906,-89.89
 41190673,127.204151677\\Version=ES64L-G16RevC.01\HF=-1526.3203585\RMSD
 =4.739e-09\Dipole=-2.3833591,-4.2655257,-0.307627\Quadrupole=-29218.76
 28144,-417.0196683,29635.7824827,1284.1722492,-1802.06728,-41264.50628
 73\PG=C01 [X(C20H31N4O7)]\\@
 The archive entry for this job was punched.


 YOU KNOW YOU'RE A TEACHER WHEN YOU SAY 2, WRITE 3, AND MEAN 4.
 -- RONALD ANSTROM, HIGH SCHOOL TEACHER, UNDERWOOD, N.D. 1974
 Job cpu time:       0 days  0 hours  1 minutes 34.3 seconds.
 Elapsed time:       0 days  0 hours  0 minutes 24.1 seconds.
 File lengths (MBytes):  RWF=    264 Int=      0 D2E=      0 Chk=     40 Scr=     16
 Normal termination of Gaussian 16 at Tue May 24 19:13:21 2022.
