 Entering Gaussian System, Link 0=/opt/software/Gaussian/g16-AVX2-C.01/g16/g16
 Input=charge-conf-684.com
 Output=charge-conf-684.log
 Initial command:
 /opt/software/Gaussian/g16-AVX2-C.01/g16/l1.exe "/mnt/gs18/scratch/users/kengmith/Gau-127296.inp" -scrdir="/mnt/gs18/scratch/users/kengmith/"
 Entering Link 1 = /opt/software/Gaussian/g16-AVX2-C.01/g16/l1.exe PID=    127313.
  
 Copyright (c) 1988-2019, Gaussian, Inc.  All Rights Reserved.
  
 This is part of the Gaussian(R) 16 program.  It is based on
 the Gaussian(R) 09 system (copyright 2009, Gaussian, Inc.),
 the Gaussian(R) 03 system (copyright 2003, Gaussian, Inc.),
 the Gaussian(R) 98 system (copyright 1998, Gaussian, Inc.),
 the Gaussian(R) 94 system (copyright 1995, Gaussian, Inc.),
 the Gaussian 92(TM) system (copyright 1992, Gaussian, Inc.),
 the Gaussian 90(TM) system (copyright 1990, Gaussian, Inc.),
 the Gaussian 88(TM) system (copyright 1988, Gaussian, Inc.),
 the Gaussian 86(TM) system (copyright 1986, Carnegie Mellon
 University), and the Gaussian 82(TM) system (copyright 1983,
 Carnegie Mellon University). Gaussian is a federally registered
 trademark of Gaussian, Inc.
  
 This software contains proprietary and confidential information,
 including trade secrets, belonging to Gaussian, Inc.
  
 This software is provided under written license and may be
 used, copied, transmitted, or stored only in accord with that
 written license.
  
 The following legend is applicable only to US Government
 contracts under FAR:
  
                    RESTRICTED RIGHTS LEGEND
  
 Use, reproduction and disclosure by the US Government is
 subject to restrictions as set forth in subparagraphs (a)
 and (c) of the Commercial Computer Software - Restricted
 Rights clause in FAR 52.227-19.
  
 Gaussian, Inc.
 340 Quinnipiac St., Bldg. 40, Wallingford CT 06492
  
  
 ---------------------------------------------------------------
 Warning -- This program may not be used in any manner that
 competes with the business of Gaussian, Inc. or will provide
 assistance to any competitor of Gaussian, Inc.  The licensee
 of this program is prohibited from giving any competitor of
 Gaussian, Inc. access to this program.  By using this program,
 the user acknowledges that Gaussian, Inc. is engaged in the
 business of creating and licensing software in the field of
 computational chemistry and represents and warrants to the
 licensee that it is not a competitor of Gaussian, Inc. and that
 it will not use this program in any manner prohibited above.
 ---------------------------------------------------------------
  

 Cite this work as:
 Gaussian 16, Revision C.01,
 M. J. Frisch, G. W. Trucks, H. B. Schlegel, G. E. Scuseria, 
 M. A. Robb, J. R. Cheeseman, G. Scalmani, V. Barone, 
 G. A. Petersson, H. Nakatsuji, X. Li, M. Caricato, A. V. Marenich, 
 J. Bloino, B. G. Janesko, R. Gomperts, B. Mennucci, H. P. Hratchian, 
 J. V. Ortiz, A. F. Izmaylov, J. L. Sonnenberg, D. Williams-Young, 
 F. Ding, F. Lipparini, F. Egidi, J. Goings, B. Peng, A. Petrone, 
 T. Henderson, D. Ranasinghe, V. G. Zakrzewski, J. Gao, N. Rega, 
 G. Zheng, W. Liang, M. Hada, M. Ehara, K. Toyota, R. Fukuda, 
 J. Hasegawa, M. Ishida, T. Nakajima, Y. Honda, O. Kitao, H. Nakai, 
 T. Vreven, K. Throssell, J. A. Montgomery, Jr., J. E. Peralta, 
 F. Ogliaro, M. J. Bearpark, J. J. Heyd, E. N. Brothers, K. N. Kudin, 
 V. N. Staroverov, T. A. Keith, R. Kobayashi, J. Normand, 
 K. Raghavachari, A. P. Rendell, J. C. Burant, S. S. Iyengar, 
 J. Tomasi, M. Cossi, J. M. Millam, M. Klene, C. Adamo, R. Cammi, 
 J. W. Ochterski, R. L. Martin, K. Morokuma, O. Farkas, 
 J. B. Foresman, and D. J. Fox, Gaussian, Inc., Wallingford CT, 2019.
 
 ******************************************
 Gaussian 16:  ES64L-G16RevC.01  3-Jul-2019
                 4-Jun-2022 
 ******************************************
 %mem=8gb
 %nproc=4
 Will use up to    4 processors via shared memory.
 %chk=conf-684.chk
 ----------------------------------------------------------------------
 # B3LYP/6-31G* empiricaldispersion=gd3 guess=read geom=check nosymm in
 tegral(ultrafinegrid)
 ----------------------------------------------------------------------
 1/29=2,38=1,172=1/1;
 2/12=2,15=1,40=1/2;
 3/5=1,6=6,7=1,11=2,14=-4,25=1,30=1,74=-5,75=-5,116=-2,124=31/1,2,3;
 4/5=1/1;
 5/5=2,38=6/2;
 6/7=2,8=2,9=2,10=2,28=1/1;
 99/5=1,9=1/99;
 ------------------------------------------------------
 Candidate Structure: Conf:684 Charge calc in gas phase
 ------------------------------------------------------
 Structure from the checkpoint file:  "conf-684.chk"
 Charge =  1 Multiplicity = 1
 Redundant internal coordinates found in file.  (old form).
 N,0,0.2865409589,-11.8844258723,-8.0348379296
 C,0,1.0488357275,-12.7992885975,-8.9786797289
 C,0,0.093893667,-14.0194820891,-9.0346177605
 O,0,-1.1112283342,-13.7840107623,-8.9527156733
 C,0,2.4707740286,-13.0214109679,-8.4828869553
 H,0,-0.7120251083,-11.9880279261,-8.3044704346
 H,0,1.0397021978,-12.3040125003,-9.9549515682
 H,0,3.0225246974,-13.6447401807,-9.1930819685
 H,0,2.4784931296,-13.5031053029,-7.500157974
 H,0,3.0152777959,-12.0742676543,-8.4120761739
 H,0,0.5883539751,-10.9073391952,-8.0818421885
 H,0,0.3661710061,-12.2395345961,-7.0582238102
 N,0,0.6089559337,-15.2605566862,-9.0596597578
 C,0,-0.25509229,-16.3906556282,-8.6742360861
 C,0,-0.8656411127,-16.1345147147,-7.2750115853
 O,0,-1.9777423634,-16.5309303677,-6.9877427016
 C,0,0.5293278714,-17.7022897467,-8.7118744337
 H,0,1.6054496259,-15.4095061872,-9.1438857514
 H,0,-1.1072765874,-16.433361377,-9.355842158
 H,0,-0.1270687869,-18.5228964645,-8.4120860725
 H,0,0.8962134415,-17.908294716,-9.7222842443
 H,0,1.3821384397,-17.6818620569,-8.0218463826
 N,0,-0.0690625781,-15.4194946109,-6.4048945995
 C,0,-0.5195879733,-15.169265918,-5.0449770435
 C,0,0.1119218234,-13.91400327,-4.4608944505
 O,0,0.1230811858,-13.6266836504,-3.296895888
 C,0,-0.3112749411,-16.3610333132,-4.0973219318
 O,0,0.7280249179,-13.0628583944,-5.3894475087
 H,0,1.1198433145,-12.366809367,-4.8228328535
 H,0,0.9274059451,-15.4001981311,-6.5749530777
 H,0,-1.5969942459,-14.9707956033,-5.1159136007
 H,0,-0.865663707,-17.2160189658,-4.4906007137
 H,0,0.750271961,-16.6212117608,-4.0258198535
 H,0,-0.6779621055,-16.1223050652,-3.0967148599
 Recover connectivity data from disk.
                           ----------------------------
                           !    Current Parameters    !
                           ! (Angstroms and Degrees)  !
 --------------------------                            --------------------------
 ! Name  Definition              Value                                          !
 --------------------------------------------------------------------------------
 ! R1    R(1,2)                  1.5195                                         !
 ! R2    R(1,6)                  1.0395                                         !
 ! R3    R(1,11)                 1.0237                                         !
 ! R4    R(1,12)                 1.0422                                         !
 ! R5    R(2,3)                  1.5505                                         !
 ! R6    R(2,5)                  1.5222                                         !
 ! R7    R(2,7)                  1.0948                                         !
 ! R8    R(3,4)                  1.2306                                         !
 ! R9    R(3,13)                 1.3439                                         !
 ! R10   R(5,8)                  1.0942                                         !
 ! R11   R(5,9)                  1.0945                                         !
 ! R12   R(5,10)                 1.0948                                         !
 ! R13   R(13,14)                1.4739                                         !
 ! R14   R(13,18)                1.0111                                         !
 ! R15   R(14,15)                1.548                                          !
 ! R16   R(14,17)                1.5288                                         !
 ! R17   R(14,19)                1.0921                                         !
 ! R18   R(15,16)                1.2151                                         !
 ! R19   R(15,23)                1.3795                                         !
 ! R20   R(17,20)                1.0928                                         !
 ! R21   R(17,21)                1.0945                                         !
 ! R22   R(17,22)                1.0972                                         !
 ! R23   R(23,24)                1.4543                                         !
 ! R24   R(23,30)                1.0111                                         !
 ! R25   R(24,25)                1.5217                                         !
 ! R26   R(24,27)                1.5368                                         !
 ! R27   R(24,31)                1.0978                                         !
 ! R28   R(25,26)                1.199                                          !
 ! R29   R(25,28)                1.4022                                         !
 ! R30   R(27,32)                1.0923                                         !
 ! R31   R(27,33)                1.0953                                         !
 ! R32   R(27,34)                1.0921                                         !
 ! R33   R(28,29)                0.9793                                         !
 ! A1    A(2,1,6)              105.117                                          !
 ! A2    A(2,1,11)             113.4675                                         !
 ! A3    A(2,1,12)             109.7903                                         !
 ! A4    A(6,1,11)             111.4953                                         !
 ! A5    A(6,1,12)             106.4092                                         !
 ! A6    A(11,1,12)            110.2247                                         !
 ! A7    A(1,2,3)              100.7926                                         !
 ! A8    A(1,2,5)              110.7429                                         !
 ! A9    A(1,2,7)              106.1023                                         !
 ! A10   A(3,2,5)              118.181                                          !
 ! A11   A(3,2,7)              108.586                                          !
 ! A12   A(5,2,7)              111.3627                                         !
 ! A13   A(2,3,4)              116.7536                                         !
 ! A14   A(2,3,13)             119.4312                                         !
 ! A15   A(4,3,13)             123.5893                                         !
 ! A16   A(2,5,8)              110.0448                                         !
 ! A17   A(2,5,9)              111.3012                                         !
 ! A18   A(2,5,10)             111.0649                                         !
 ! A19   A(8,5,9)              109.1781                                         !
 ! A20   A(8,5,10)             106.5001                                         !
 ! A21   A(9,5,10)             108.6132                                         !
 ! A22   A(3,13,14)            118.5889                                         !
 ! A23   A(3,13,18)            121.0183                                         !
 ! A24   A(14,13,18)           119.1187                                         !
 ! A25   A(13,14,15)           109.9214                                         !
 ! A26   A(13,14,17)           110.5248                                         !
 ! A27   A(13,14,19)           108.9195                                         !
 ! A28   A(15,14,17)           111.5062                                         !
 ! A29   A(15,14,19)           105.2396                                         !
 ! A30   A(17,14,19)           110.5778                                         !
 ! A31   A(14,15,16)           121.3797                                         !
 ! A32   A(14,15,23)           115.3512                                         !
 ! A33   A(16,15,23)           123.2638                                         !
 ! A34   A(14,17,20)           109.2278                                         !
 ! A35   A(14,17,21)           110.8674                                         !
 ! A36   A(14,17,22)           111.553                                          !
 ! A37   A(20,17,21)           108.2563                                         !
 ! A38   A(20,17,22)           107.9588                                         !
 ! A39   A(21,17,22)           108.8769                                         !
 ! A40   A(15,23,24)           120.0087                                         !
 ! A41   A(15,23,30)           118.2243                                         !
 ! A42   A(24,23,30)           117.3432                                         !
 ! A43   A(23,24,25)           111.8571                                         !
 ! A44   A(23,24,27)           113.6533                                         !
 ! A45   A(23,24,31)           105.9448                                         !
 ! A46   A(25,24,27)           110.2891                                         !
 ! A47   A(25,24,31)           106.4363                                         !
 ! A48   A(27,24,31)           108.2443                                         !
 ! A49   A(24,25,26)           125.0412                                         !
 ! A50   A(24,25,28)           115.3962                                         !
 ! A51   A(26,25,28)           119.5595                                         !
 ! A52   A(24,27,32)           108.4333                                         !
 ! A53   A(24,27,33)           110.8447                                         !
 ! A54   A(24,27,34)           110.4845                                         !
 ! A55   A(32,27,33)           109.2377                                         !
 ! A56   A(32,27,34)           109.3045                                         !
 ! A57   A(33,27,34)           108.5137                                         !
 ! A58   A(25,28,29)           102.9486                                         !
 ! D1    D(6,1,2,3)            -39.8279                                         !
 ! D2    D(6,1,2,5)           -165.7214                                         !
 ! D3    D(6,1,2,7)             73.2976                                         !
 ! D4    D(11,1,2,3)          -161.9052                                         !
 ! D5    D(11,1,2,5)            72.2013                                         !
 ! D6    D(11,1,2,7)           -48.7797                                         !
 ! D7    D(12,1,2,3)            74.2635                                         !
 ! D8    D(12,1,2,5)           -51.63                                           !
 ! D9    D(12,1,2,7)          -172.611                                          !
 ! D10   D(1,2,3,4)             33.4222                                         !
 ! D11   D(1,2,3,13)          -141.3139                                         !
 ! D12   D(5,2,3,4)            154.164                                          !
 ! D13   D(5,2,3,13)           -20.572                                          !
 ! D14   D(7,2,3,4)            -77.8                                            !
 ! D15   D(7,2,3,13)           107.464                                          !
 ! D16   D(1,2,5,8)           -177.4888                                         !
 ! D17   D(1,2,5,9)             61.3405                                         !
 ! D18   D(1,2,5,10)           -59.8103                                         !
 ! D19   D(3,2,5,8)             67.0392                                         !
 ! D20   D(3,2,5,9)            -54.1314                                         !
 ! D21   D(3,2,5,10)          -175.2823                                         !
 ! D22   D(7,2,5,8)            -59.6754                                         !
 ! D23   D(7,2,5,9)            179.1539                                         !
 ! D24   D(7,2,5,10)            58.0031                                         !
 ! D25   D(2,3,13,14)          160.288                                          !
 ! D26   D(2,3,13,18)           -6.706                                          !
 ! D27   D(4,3,13,14)          -14.0682                                         !
 ! D28   D(4,3,13,18)          178.9378                                         !
 ! D29   D(3,13,14,15)         -54.1184                                         !
 ! D30   D(3,13,14,17)        -177.626                                          !
 ! D31   D(3,13,14,19)          60.702                                          !
 ! D32   D(18,13,14,15)        113.1271                                         !
 ! D33   D(18,13,14,17)        -10.3805                                         !
 ! D34   D(18,13,14,19)       -132.0525                                         !
 ! D35   D(13,14,15,16)        146.7335                                         !
 ! D36   D(13,14,15,23)        -32.4561                                         !
 ! D37   D(17,14,15,16)        -90.3346                                         !
 ! D38   D(17,14,15,23)         90.4758                                         !
 ! D39   D(19,14,15,16)         29.5925                                         !
 ! D40   D(19,14,15,23)       -149.5971                                         !
 ! D41   D(13,14,17,20)        179.3593                                         !
 ! D42   D(13,14,17,21)        -61.4299                                         !
 ! D43   D(13,14,17,22)         60.0936                                         !
 ! D44   D(15,14,17,20)         56.7729                                         !
 ! D45   D(15,14,17,21)        175.9837                                         !
 ! D46   D(15,14,17,22)        -62.4928                                         !
 ! D47   D(19,14,17,20)        -59.9525                                         !
 ! D48   D(19,14,17,21)         59.2583                                         !
 ! D49   D(19,14,17,22)       -179.2182                                         !
 ! D50   D(14,15,23,24)       -177.4296                                         !
 ! D51   D(14,15,23,30)        -21.6473                                         !
 ! D52   D(16,15,23,24)          3.3978                                         !
 ! D53   D(16,15,23,30)        159.1801                                         !
 ! D54   D(15,23,24,25)       -154.125                                          !
 ! D55   D(15,23,24,27)         80.1727                                         !
 ! D56   D(15,23,24,31)        -38.5516                                         !
 ! D57   D(30,23,24,25)         49.885                                          !
 ! D58   D(30,23,24,27)        -75.8174                                         !
 ! D59   D(30,23,24,31)        165.4584                                         !
 ! D60   D(23,24,25,26)       -164.5458                                         !
 ! D61   D(23,24,25,28)         14.8115                                         !
 ! D62   D(27,24,25,26)        -37.0166                                         !
 ! D63   D(27,24,25,28)        142.3407                                         !
 ! D64   D(31,24,25,26)         80.181                                          !
 ! D65   D(31,24,25,28)       -100.4617                                         !
 ! D66   D(23,24,27,32)        -59.5033                                         !
 ! D67   D(23,24,27,33)         60.4                                            !
 ! D68   D(23,24,27,34)       -179.2722                                         !
 ! D69   D(25,24,27,32)        173.9663                                         !
 ! D70   D(25,24,27,33)        -66.1305                                         !
 ! D71   D(25,24,27,34)         54.1974                                         !
 ! D72   D(31,24,27,32)         57.8943                                         !
 ! D73   D(31,24,27,33)        177.7976                                         !
 ! D74   D(31,24,27,34)        -61.8746                                         !
 ! D75   D(24,25,28,29)       -176.0574                                         !
 ! D76   D(26,25,28,29)          3.3376                                         !
 --------------------------------------------------------------------------------
                          Input orientation:                          
 ---------------------------------------------------------------------
 Center     Atomic      Atomic             Coordinates (Angstroms)
 Number     Number       Type             X           Y           Z
 ---------------------------------------------------------------------
      1          7           0        0.286541  -11.884426   -8.034838
      2          6           0        1.048836  -12.799289   -8.978680
      3          6           0        0.093894  -14.019482   -9.034618
      4          8           0       -1.111228  -13.784011   -8.952716
      5          6           0        2.470774  -13.021411   -8.482887
      6          1           0       -0.712025  -11.988028   -8.304470
      7          1           0        1.039702  -12.304013   -9.954952
      8          1           0        3.022525  -13.644740   -9.193082
      9          1           0        2.478493  -13.503105   -7.500158
     10          1           0        3.015278  -12.074268   -8.412076
     11          1           0        0.588354  -10.907339   -8.081842
     12          1           0        0.366171  -12.239535   -7.058224
     13          7           0        0.608956  -15.260557   -9.059660
     14          6           0       -0.255092  -16.390656   -8.674236
     15          6           0       -0.865641  -16.134515   -7.275012
     16          8           0       -1.977742  -16.530930   -6.987743
     17          6           0        0.529328  -17.702290   -8.711874
     18          1           0        1.605450  -15.409506   -9.143886
     19          1           0       -1.107277  -16.433361   -9.355842
     20          1           0       -0.127069  -18.522896   -8.412086
     21          1           0        0.896213  -17.908295   -9.722284
     22          1           0        1.382138  -17.681862   -8.021846
     23          7           0       -0.069063  -15.419495   -6.404895
     24          6           0       -0.519588  -15.169266   -5.044977
     25          6           0        0.111922  -13.914003   -4.460894
     26          8           0        0.123081  -13.626684   -3.296896
     27          6           0       -0.311275  -16.361033   -4.097322
     28          8           0        0.728025  -13.062858   -5.389448
     29          1           0        1.119843  -12.366809   -4.822833
     30          1           0        0.927406  -15.400198   -6.574953
     31          1           0       -1.596994  -14.970796   -5.115914
     32          1           0       -0.865664  -17.216019   -4.490601
     33          1           0        0.750272  -16.621212   -4.025820
     34          1           0       -0.677962  -16.122305   -3.096715
 ---------------------------------------------------------------------
                    Distance matrix (angstroms):
                    1          2          3          4          5
     1  N    0.000000
     2  C    1.519508   0.000000
     3  C    2.365404   1.550457   0.000000
     4  O    2.530747   2.374074   1.230640   0.000000
     5  C    2.502870   1.522188   2.636307   3.692294   0.000000
     6  H    1.039504   2.052640   2.304219   1.950677   3.351108
     7  H    2.104790   1.094755   2.164348   2.796672   2.174765
     8  H    3.453381   2.157824   2.956759   4.143077   1.094233
     9  H    2.776808   2.173777   2.882278   3.882645   1.094461
    10  H    2.761223   2.171080   3.564534   4.499285   1.094796
    11  H    1.023718   2.143790   3.292067   3.452860   2.858958
    12  H    1.042218   2.113648   2.673664   2.856084   2.659013
    13  N    3.542947   2.501578   1.343943   2.269506   2.968637
    14  C    4.583482   3.832862   2.423660   2.757738   4.338061
    15  C    4.468570   4.206119   2.913809   2.898253   4.720386
    16  O    5.273840   5.200880   3.845614   3.486765   5.860160
    17  C    5.862155   4.937661   3.722477   4.254684   5.072699
    18  H    3.923735   2.674013   2.056431   3.171612   2.624634
    19  H    4.937671   4.242353   2.715292   2.679848   5.020548
    20  H    6.662033   5.870559   4.551605   4.870101   6.084418
    21  H    6.285393   5.165093   4.029822   4.650997   5.281759
    22  H    5.900065   4.986596   4.012270   4.719814   4.808065
    23  N    3.908949   3.839212   2.983628   3.201923   4.064434
    24  C    4.514342   4.852913   4.197094   4.188006   5.037338
    25  C    4.113727   4.746660   4.574975   4.657194   4.747350
    26  O    5.050770   5.815864   5.751226   5.791077   5.724729
    27  C    5.991780   6.193834   5.479408   5.554801   6.174630
    28  O    2.929454   3.613167   3.821586   4.074284   3.550811
    29  H    3.353217   4.178893   4.639292   4.903272   3.955947
    30  H    3.860392   3.543639   2.941270   3.524464   3.417722
    31  H    4.646881   5.161087   4.372681   4.045427   5.628796
    32  H    6.505004   6.581464   5.637969   5.634665   6.683181
    33  H    6.222894   6.263151   5.682243   5.982407   5.981985
    34  H    6.578370   6.972932   6.346362   6.320450   6.967132
                    6          7          8          9         10
     6  H    0.000000
     7  H    2.427444   0.000000
     8  H    4.181051   2.511888   0.000000
     9  H    3.622400   3.087710   1.783822   0.000000
    10  H    3.729853   2.517170   1.753969   1.778007   0.000000
    11  H    1.705414   2.379695   3.827977   3.263278   2.713068
    12  H    1.667001   2.974699   3.686250   2.500764   2.979597
    13  N    3.608981   3.119013   2.907573   3.002641   4.045020
    14  C    4.441694   4.474078   4.307206   4.145949   5.421739
    15  C    4.275130   5.048283   4.999580   4.261249   5.730624
    16  O    4.896302   5.981315   6.180314   5.411869   6.842574
    17  C    5.861717   5.563014   4.786575   4.785463   6.159907
    18  H    4.216850   3.259139   2.263829   2.664284   3.694181
    19  H    4.585040   4.692544   4.985796   4.988758   6.073537
    20  H    6.561879   6.512780   5.858865   5.728776   7.173504
    21  H    6.296522   5.610945   4.793657   5.181423   6.343733
    22  H    6.073314   5.724982   4.512318   4.351570   5.853592
    23  N    3.974513   4.851648   4.525666   3.370785   4.973176
    24  C    4.558685   5.894821   5.663702   4.218115   5.780281
    25  C    4.377367   5.799785   5.562168   3.873838   5.236978
    26  O    5.334641   6.849771   6.570549   4.819818   6.077818
    27  C    6.081437   7.252336   6.667776   5.246890   6.932490
    28  O    3.424378   4.638622   4.480061   2.777239   3.917285
    29  H    3.952343   5.133129   4.934813   3.210166   4.069511
    30  H    4.161955   4.585124   3.784938   2.619320   4.335440
    31  H    4.454994   6.122107   6.302514   4.944526   6.366130
    32  H    6.473106   7.590610   7.070033   5.833228   7.541703
    33  H    6.473913   7.340067   6.381466   4.977988   6.711497
    34  H    6.649370   8.035244   7.549677   6.017784   7.634114
                   11         12         13         14         15
    11  H    0.000000
    12  H    1.694669   0.000000
    13  N    4.461732   3.631978   0.000000
    14  C    5.579345   4.497696   1.473857   0.000000
    15  C    5.485293   4.090871   2.474512   1.547969   0.000000
    16  O    6.277474   4.890294   3.549324   2.414842   1.215088
    17  C    6.824352   5.709893   2.467662   1.528763   2.543311
    18  H    4.736236   3.991806   1.011078   2.155189   3.181920
    19  H    5.919051   5.003827   2.099678   1.092075   2.116023
    20  H    7.656213   6.446461   3.406456   2.152107   2.746415
    21  H    7.197167   6.285937   2.744468   2.174198   3.498510
    22  H    6.821133   5.619581   2.745467   2.184800   2.829233
    23  N    4.858384   3.275426   2.744585   2.475413   1.379454
    24  C    5.349215   3.663476   4.171285   3.838394   2.454488
    25  C    4.730569   3.100743   4.817561   4.901097   3.715583
    26  O    5.523316   4.016325   6.009581   6.057916   4.805434
    27  C    6.813847   5.119827   5.165527   4.577355   3.233627
    28  O    3.451776   1.895683   4.279546   4.778137   3.940837
    29  H    3.610218   2.362455   5.156111   5.737168   4.914360
    30  H    4.750942   3.246279   2.508920   2.605052   2.060175
    31  H    5.484903   3.884118   4.528058   4.059355   2.559458
    32  H    7.403420   5.733716   5.184075   4.307764   2.987071
    33  H    7.008985   5.342481   5.216406   4.761479   3.661324
    34  H    7.324679   5.644437   6.160802   5.599962   4.182527
                   16         17         18         19         20
    16  O    0.000000
    17  C    3.260386   0.000000
    18  H    4.329643   2.569344   0.000000
    19  H    2.524901   2.168720   2.907248   0.000000
    20  H    3.069475   1.092760   3.637355   2.493520   0.000000
    21  H    4.199342   1.094519   2.661110   2.514693   1.772417
    22  H    3.699029   1.097197   2.544099   3.087958   1.771252
    23  N    2.284307   3.300209   3.210321   3.288450   3.696388
    24  C    2.784723   4.578490   4.623262   4.530659   4.768473
    25  C    4.195231   5.709306   5.137856   5.638628   6.075436
    26  O    5.144945   6.789521   6.289926   6.789849   7.085241
    27  C    3.340735   4.878491   5.481518   5.318918   4.829573
    28  O    4.680091   5.709845   4.513584   5.519140   6.299170
    29  H    5.623324   6.628778   5.307100   6.484218   7.234289
    30  H    3.144652   3.166153   2.656924   3.597319   3.773357
    31  H    2.466320   4.991316   5.164559   4.511753   5.063877
    32  H    2.818117   4.472316   5.569825   4.933711   4.198988
    33  H    4.027803   4.814214   5.328617   5.647558   4.860603
    34  H    4.122681   5.956838   6.503101   6.281540   5.858284
                   21         22         23         24         25
    21  H    0.000000
    22  H    1.782942   0.000000
    23  N    4.258046   3.136690   0.000000
    24  C    5.602140   4.334911   1.454291   0.000000
    25  C    6.652195   5.337658   2.465440   1.521723   0.000000
    26  O    7.759867   6.352547   3.593153   2.418341   1.198987
    27  C    5.957537   4.473715   2.504008   1.536800   2.509828
    28  O    6.502308   5.356546   2.687046   2.472276   1.402227
    29  H    7.400182   6.209048   3.638036   3.254358   1.881679
    30  H    4.024576   2.739758   1.011060   2.118478   2.709803
    31  H    6.005301   4.966846   2.048750   1.097828   2.113351
    32  H    5.563629   4.211807   2.743464   2.148558   3.443815
    33  H    5.841882   4.182399   2.788446   2.181599   2.815272
    34  H    7.040309   5.561758   3.436387   2.174647   2.713208
                   26         27         28         29         30
    26  O    0.000000
    27  C    2.882016   0.000000
    28  O    2.250028   3.691570   0.000000
    29  H    2.215694   4.304450   0.979315   0.000000
    30  H    3.812866   2.931926   2.628371   3.508334   0.000000
    31  H    2.841500   2.150201   3.020059   3.774632   2.947165
    32  H    3.909716   1.092253   4.538338   5.250471   3.294970
    33  H    3.145139   1.095302   3.810755   4.344163   2.832019
    34  H    2.628663   1.092092   4.073529   4.507254   3.898306
                   31         32         33         34
    31  H    0.000000
    32  H    2.442722   0.000000
    33  H    3.069501   1.783554   0.000000
    34  H    2.499551   1.781673   1.775386   0.000000
 Symmetry turned off by external request.
 Stoichiometry    C9H18N3O4(1+)
 Framework group  C1[X(C9H18N3O4)]
 Deg. of freedom    96
 Full point group                 C1      NOp   1
 Rotational constants (GHZ):           0.5796422           0.4687922           0.3139908
 Standard basis: 6-31G(d) (6D, 7F)
   276 basis functions,   520 primitive gaussians,   276 cartesian basis functions
    62 alpha electrons       62 beta electrons
       nuclear repulsion energy      1254.2428481087 Hartrees.
 NAtoms=   34 NActive=   34 NUniq=   34 SFac= 1.00D+00 NAtFMM=   60 NAOKFM=F Big=F
 Integral buffers will be    131072 words long.
 Raffenetti 2 integral format.
 Two-electron integral symmetry is turned off.
 Nuclear repulsion after empirical dispersion term =     1254.2037103830 Hartrees.
 One-electron integrals computed using PRISM.
 NBasis=   276 RedAO= T EigKep=  2.05D-03  NBF=   276
 NBsUse=   276 1.00D-06 EigRej= -1.00D+00 NBFU=   276
 Initial guess from the checkpoint file:  "conf-684.chk"
 B after Tr=     0.000000    0.000000    0.000000
         Rot=    1.000000    0.000000    0.000000    0.000000 Ang=   0.00 deg.
 Requested convergence on RMS density matrix=1.00D-08 within 128 cycles.
 Requested convergence on MAX density matrix=1.00D-06.
 Requested convergence on             energy=1.00D-06.
 No special actions if energy rises.
 SCF Done:  E(RB3LYP) =  -818.799012341     A.U. after    2 cycles
            NFock=  2  Conv=0.86D-08     -V/T= 2.0093

 **********************************************************************

            Population analysis using the SCF Density.

 **********************************************************************

 Alpha  occ. eigenvalues --  -19.35427 -19.28496 -19.28362 -19.24002 -14.61935
 Alpha  occ. eigenvalues --  -14.52542 -14.49025 -10.46297 -10.45821 -10.43478
 Alpha  occ. eigenvalues --  -10.41250 -10.36952 -10.36942 -10.36417 -10.31297
 Alpha  occ. eigenvalues --  -10.29011  -1.24897  -1.21433  -1.16440  -1.16179
 Alpha  occ. eigenvalues --   -1.15717  -1.08892  -1.05372  -0.95820  -0.91242
 Alpha  occ. eigenvalues --   -0.88816  -0.83999  -0.80095  -0.78738  -0.76729
 Alpha  occ. eigenvalues --   -0.75825  -0.73898  -0.72742  -0.71399  -0.68405
 Alpha  occ. eigenvalues --   -0.66657  -0.65207  -0.62942  -0.62793  -0.60884
 Alpha  occ. eigenvalues --   -0.60131  -0.59777  -0.57198  -0.56655  -0.56431
 Alpha  occ. eigenvalues --   -0.55915  -0.55560  -0.55074  -0.53742  -0.53071
 Alpha  occ. eigenvalues --   -0.52057  -0.51398  -0.49874  -0.49216  -0.48549
 Alpha  occ. eigenvalues --   -0.47423  -0.46550  -0.42995  -0.42407  -0.41965
 Alpha  occ. eigenvalues --   -0.38573  -0.36806
 Alpha virt. eigenvalues --   -0.15949  -0.13580  -0.11858  -0.10038  -0.08499
 Alpha virt. eigenvalues --   -0.07444  -0.05980  -0.04765  -0.03417  -0.01574
 Alpha virt. eigenvalues --   -0.01027  -0.00348   0.00458   0.01291   0.01476
 Alpha virt. eigenvalues --    0.02855   0.03244   0.03510   0.04076   0.05460
 Alpha virt. eigenvalues --    0.05961   0.06856   0.06908   0.07570   0.08848
 Alpha virt. eigenvalues --    0.09042   0.10235   0.11339   0.12991   0.15130
 Alpha virt. eigenvalues --    0.18299   0.19390   0.20130   0.24355   0.26906
 Alpha virt. eigenvalues --    0.29179   0.32438   0.33751   0.35298   0.36065
 Alpha virt. eigenvalues --    0.36930   0.38597   0.39912   0.41325   0.42406
 Alpha virt. eigenvalues --    0.43095   0.44588   0.45566   0.46509   0.48625
 Alpha virt. eigenvalues --    0.49220   0.49651   0.50559   0.51004   0.53132
 Alpha virt. eigenvalues --    0.54154   0.55205   0.56396   0.58107   0.58983
 Alpha virt. eigenvalues --    0.59191   0.61001   0.61548   0.62034   0.63404
 Alpha virt. eigenvalues --    0.64490   0.65062   0.65674   0.67808   0.68825
 Alpha virt. eigenvalues --    0.69591   0.70709   0.71844   0.72758   0.73847
 Alpha virt. eigenvalues --    0.74687   0.75729   0.75867   0.76219   0.77541
 Alpha virt. eigenvalues --    0.78079   0.79166   0.79583   0.80172   0.81434
 Alpha virt. eigenvalues --    0.82441   0.83362   0.83833   0.84333   0.85702
 Alpha virt. eigenvalues --    0.86057   0.88706   0.90172   0.91368   0.94318
 Alpha virt. eigenvalues --    0.94976   0.98138   0.98301   0.99370   1.01255
 Alpha virt. eigenvalues --    1.04721   1.06237   1.08860   1.09564   1.10360
 Alpha virt. eigenvalues --    1.15035   1.16593   1.19272   1.20275   1.21874
 Alpha virt. eigenvalues --    1.22915   1.27353   1.27710   1.30132   1.32289
 Alpha virt. eigenvalues --    1.35364   1.37496   1.40459   1.42001   1.46830
 Alpha virt. eigenvalues --    1.48954   1.49930   1.51675   1.54096   1.55081
 Alpha virt. eigenvalues --    1.57718   1.57957   1.59740   1.60489   1.63012
 Alpha virt. eigenvalues --    1.64515   1.64659   1.65530   1.67942   1.68607
 Alpha virt. eigenvalues --    1.69416   1.70429   1.71706   1.72325   1.74405
 Alpha virt. eigenvalues --    1.77135   1.77257   1.78552   1.79884   1.81854
 Alpha virt. eigenvalues --    1.83055   1.83992   1.85842   1.87282   1.87584
 Alpha virt. eigenvalues --    1.89722   1.90830   1.91246   1.92651   1.93287
 Alpha virt. eigenvalues --    1.95482   1.96534   1.98454   2.00543   2.06267
 Alpha virt. eigenvalues --    2.08303   2.09683   2.10163   2.13342   2.13705
 Alpha virt. eigenvalues --    2.15687   2.17098   2.17845   2.19780   2.21889
 Alpha virt. eigenvalues --    2.24254   2.25100   2.29565   2.30450   2.32018
 Alpha virt. eigenvalues --    2.35053   2.37248   2.37506   2.40573   2.41694
 Alpha virt. eigenvalues --    2.46400   2.49430   2.50276   2.52693   2.55176
 Alpha virt. eigenvalues --    2.55365   2.58023   2.62021   2.64867   2.71584
 Alpha virt. eigenvalues --    2.75288   2.78398   2.84892   2.86304   2.88624
 Alpha virt. eigenvalues --    2.98423   3.00799   3.03103   3.65786   3.76398
 Alpha virt. eigenvalues --    3.88353   3.90057   3.96815   4.01676   4.04535
 Alpha virt. eigenvalues --    4.05893   4.08730   4.13795   4.19971   4.22959
 Alpha virt. eigenvalues --    4.31578   4.41204   4.50619   4.56003
          Condensed to atoms (all electrons):
               1          2          3          4          5          6
     1  N    6.962711   0.216284  -0.047414  -0.032437  -0.051319   0.249550
     2  C    0.216284   5.259398   0.299772  -0.088474   0.329803  -0.038110
     3  C   -0.047414   0.299772   4.361324   0.523035  -0.035071  -0.006137
     4  O   -0.032437  -0.088474   0.523035   8.108594   0.002465   0.062141
     5  C   -0.051319   0.329803  -0.035071   0.002465   5.159025   0.004995
     6  H    0.249550  -0.038110  -0.006137   0.062141   0.004995   0.307844
     7  H   -0.036761   0.375360  -0.026355   0.000777  -0.032183   0.000483
     8  H    0.003765  -0.025907  -0.003185  -0.000000   0.372056  -0.000099
     9  H   -0.003575  -0.035754  -0.004214   0.000045   0.370150   0.000028
    10  H   -0.002936  -0.023946   0.002698  -0.000064   0.370412  -0.000182
    11  H    0.299003  -0.020165   0.004728   0.000922   0.000124  -0.008927
    12  H    0.230263  -0.019271  -0.000813   0.001494  -0.002281  -0.006512
    13  N    0.000045  -0.114200   0.319721  -0.087060   0.005841   0.002419
    14  C   -0.000032   0.007400  -0.035690   0.004031  -0.000277  -0.000100
    15  C    0.000114  -0.001083  -0.005179   0.008755  -0.000008   0.000055
    16  O   -0.000000  -0.000011  -0.000613  -0.000857   0.000000   0.000004
    17  C    0.000001  -0.000174   0.005373   0.000501  -0.000033  -0.000001
    18  H    0.000151  -0.002049  -0.022542   0.002750   0.004518  -0.000107
    19  H   -0.000011   0.000174  -0.002755   0.004091   0.000003  -0.000015
    20  H   -0.000000   0.000003  -0.000046   0.000001  -0.000000  -0.000000
    21  H    0.000000   0.000003  -0.000013  -0.000001  -0.000004   0.000000
    22  H   -0.000000  -0.000004  -0.000162  -0.000009   0.000003   0.000000
    23  N   -0.000063  -0.000427   0.010412  -0.004723  -0.000534   0.000089
    24  C   -0.000087  -0.000001  -0.000226  -0.000018   0.000018   0.000004
    25  C    0.000103   0.000001  -0.000072  -0.000003   0.000011   0.000005
    26  O   -0.000009   0.000000   0.000000  -0.000000  -0.000001   0.000000
    27  C   -0.000000  -0.000001   0.000024   0.000001   0.000000   0.000000
    28  O   -0.022989   0.000645   0.000222  -0.000051  -0.002280   0.000110
    29  H    0.000889  -0.000035  -0.000009   0.000001   0.000156   0.000007
    30  H   -0.000067   0.000103  -0.001858  -0.000259   0.000381  -0.000003
    31  H    0.000013  -0.000006  -0.000107   0.000124  -0.000001   0.000004
    32  H   -0.000000  -0.000000  -0.000000   0.000000   0.000000   0.000000
    33  H    0.000000   0.000000  -0.000001   0.000000  -0.000000  -0.000000
    34  H    0.000000   0.000000  -0.000000   0.000000   0.000000  -0.000000
               7          8          9         10         11         12
     1  N   -0.036761   0.003765  -0.003575  -0.002936   0.299003   0.230263
     2  C    0.375360  -0.025907  -0.035754  -0.023946  -0.020165  -0.019271
     3  C   -0.026355  -0.003185  -0.004214   0.002698   0.004728  -0.000813
     4  O    0.000777  -0.000000   0.000045  -0.000064   0.000922   0.001494
     5  C   -0.032183   0.372056   0.370150   0.370412   0.000124  -0.002281
     6  H    0.000483  -0.000099   0.000028  -0.000182  -0.008927  -0.006512
     7  H    0.477257  -0.002376   0.003995  -0.002841  -0.003318   0.003136
     8  H   -0.002376   0.488520  -0.022813  -0.020663  -0.000074   0.000025
     9  H    0.003995  -0.022813   0.514553  -0.025379  -0.000195   0.003509
    10  H   -0.002841  -0.020663  -0.025379   0.501243   0.001706  -0.000259
    11  H   -0.003318  -0.000074  -0.000195   0.001706   0.324172  -0.009314
    12  H    0.003136   0.000025   0.003509  -0.000259  -0.009314   0.296491
    13  N    0.000734   0.000142   0.001111   0.000196  -0.000087   0.000229
    14  C   -0.000161   0.000098  -0.000230   0.000001   0.000002  -0.000052
    15  C   -0.000007   0.000005   0.000049  -0.000001   0.000001  -0.000006
    16  O    0.000000  -0.000000   0.000000  -0.000000  -0.000000  -0.000002
    17  C    0.000003  -0.000013   0.000003   0.000000  -0.000000   0.000001
    18  H    0.000103   0.003749   0.000038  -0.000048  -0.000006  -0.000005
    19  H    0.000013  -0.000004  -0.000000   0.000000  -0.000000  -0.000001
    20  H   -0.000000  -0.000000  -0.000000   0.000000   0.000000  -0.000000
    21  H   -0.000000   0.000002  -0.000000  -0.000000   0.000000  -0.000000
    22  H    0.000000  -0.000007  -0.000001   0.000000  -0.000000   0.000000
    23  N    0.000009   0.000008   0.000615   0.000004   0.000007   0.001354
    24  C   -0.000001   0.000001  -0.000136  -0.000000   0.000001   0.000282
    25  C    0.000000   0.000000   0.000208  -0.000000   0.000002   0.000414
    26  O   -0.000000   0.000000   0.000004   0.000000   0.000000   0.000255
    27  C    0.000000  -0.000000  -0.000002   0.000000   0.000000   0.000011
    28  O   -0.000009   0.000037   0.006954  -0.000002   0.000253   0.064056
    29  H    0.000001  -0.000001  -0.000030   0.000005   0.000006  -0.001982
    30  H    0.000017  -0.000052   0.002674  -0.000003  -0.000005  -0.000149
    31  H   -0.000000   0.000000   0.000000  -0.000000   0.000000  -0.000054
    32  H   -0.000000   0.000000  -0.000000   0.000000   0.000000   0.000000
    33  H   -0.000000   0.000000  -0.000001   0.000000  -0.000000  -0.000001
    34  H   -0.000000  -0.000000  -0.000000  -0.000000  -0.000000  -0.000001
              13         14         15         16         17         18
     1  N    0.000045  -0.000032   0.000114  -0.000000   0.000001   0.000151
     2  C   -0.114200   0.007400  -0.001083  -0.000011  -0.000174  -0.002049
     3  C    0.319721  -0.035690  -0.005179  -0.000613   0.005373  -0.022542
     4  O   -0.087060   0.004031   0.008755  -0.000857   0.000501   0.002750
     5  C    0.005841  -0.000277  -0.000008   0.000000  -0.000033   0.004518
     6  H    0.002419  -0.000100   0.000055   0.000004  -0.000001  -0.000107
     7  H    0.000734  -0.000161  -0.000007   0.000000   0.000003   0.000103
     8  H    0.000142   0.000098   0.000005  -0.000000  -0.000013   0.003749
     9  H    0.001111  -0.000230   0.000049   0.000000   0.000003   0.000038
    10  H    0.000196   0.000001  -0.000001  -0.000000   0.000000  -0.000048
    11  H   -0.000087   0.000002   0.000001  -0.000000  -0.000000  -0.000006
    12  H    0.000229  -0.000052  -0.000006  -0.000002   0.000001  -0.000005
    13  N    7.155681   0.171086  -0.048941   0.002799  -0.039093   0.295425
    14  C    0.171086   5.113588   0.350664  -0.063178   0.349105  -0.019711
    15  C   -0.048941   0.350664   4.400105   0.572983  -0.036957   0.001251
    16  O    0.002799  -0.063178   0.572983   8.030415  -0.001297  -0.000067
    17  C   -0.039093   0.349105  -0.036957  -0.001297   5.127110  -0.002279
    18  H    0.295425  -0.019711   0.001251  -0.000067  -0.002279   0.379682
    19  H   -0.040741   0.371768  -0.037020   0.004445  -0.027552   0.002810
    20  H    0.003673  -0.029336   0.000090   0.002261   0.377360  -0.000156
    21  H   -0.002032  -0.028548   0.004065  -0.000051   0.373636   0.001686
    22  H   -0.004351  -0.033564  -0.007872  -0.000016   0.367499   0.003353
    23  N   -0.002398  -0.125772   0.216970  -0.100592  -0.000038  -0.000353
    24  C    0.000077   0.005596  -0.016591   0.007590  -0.000216   0.000021
    25  C    0.000004   0.000005   0.003516   0.000670  -0.000005   0.000003
    26  O   -0.000000   0.000000  -0.000038  -0.000000  -0.000000   0.000000
    27  C   -0.000011  -0.000478  -0.002769  -0.004549   0.000063  -0.000001
    28  O   -0.000048  -0.000008   0.000002  -0.000002   0.000000  -0.000009
    29  H    0.000001  -0.000001   0.000025   0.000000  -0.000000   0.000000
    30  H    0.007942  -0.000853  -0.021752   0.003074   0.000703   0.000651
    31  H   -0.000091   0.000785  -0.001947   0.013765  -0.000009   0.000002
    32  H   -0.000003   0.000061   0.003791   0.005905  -0.000011   0.000000
    33  H   -0.000003   0.000009  -0.000077   0.000019  -0.000002   0.000000
    34  H    0.000000   0.000005  -0.000011  -0.000028  -0.000000   0.000000
              19         20         21         22         23         24
     1  N   -0.000011  -0.000000   0.000000  -0.000000  -0.000063  -0.000087
     2  C    0.000174   0.000003   0.000003  -0.000004  -0.000427  -0.000001
     3  C   -0.002755  -0.000046  -0.000013  -0.000162   0.010412  -0.000226
     4  O    0.004091   0.000001  -0.000001  -0.000009  -0.004723  -0.000018
     5  C    0.000003  -0.000000  -0.000004   0.000003  -0.000534   0.000018
     6  H   -0.000015  -0.000000   0.000000   0.000000   0.000089   0.000004
     7  H    0.000013  -0.000000  -0.000000   0.000000   0.000009  -0.000001
     8  H   -0.000004  -0.000000   0.000002  -0.000007   0.000008   0.000001
     9  H   -0.000000  -0.000000  -0.000000  -0.000001   0.000615  -0.000136
    10  H    0.000000   0.000000  -0.000000   0.000000   0.000004  -0.000000
    11  H   -0.000000   0.000000   0.000000  -0.000000   0.000007   0.000001
    12  H   -0.000001  -0.000000  -0.000000   0.000000   0.001354   0.000282
    13  N   -0.040741   0.003673  -0.002032  -0.004351  -0.002398   0.000077
    14  C    0.371768  -0.029336  -0.028548  -0.033564  -0.125772   0.005596
    15  C   -0.037020   0.000090   0.004065  -0.007872   0.216970  -0.016591
    16  O    0.004445   0.002261  -0.000051  -0.000016  -0.100592   0.007590
    17  C   -0.027552   0.377360   0.373636   0.367499  -0.000038  -0.000216
    18  H    0.002810  -0.000156   0.001686   0.003353  -0.000353   0.000021
    19  H    0.494757  -0.001682  -0.005096   0.004608   0.005015  -0.000120
    20  H   -0.001682   0.473610  -0.020290  -0.023577   0.000385  -0.000026
    21  H   -0.005096  -0.020290   0.517291  -0.030863  -0.000128   0.000005
    22  H    0.004608  -0.023577  -0.030863   0.567624   0.002797  -0.000154
    23  N    0.005015   0.000385  -0.000128   0.002797   7.269371   0.201216
    24  C   -0.000120  -0.000026   0.000005  -0.000154   0.201216   5.065603
    25  C    0.000001  -0.000000   0.000000   0.000000  -0.029142   0.311025
    26  O   -0.000000   0.000000   0.000000  -0.000000   0.001965  -0.068641
    27  C   -0.000000   0.000014  -0.000001   0.000038  -0.058129   0.371826
    28  O    0.000000   0.000000  -0.000000  -0.000000   0.000358  -0.079656
    29  H    0.000000  -0.000000  -0.000000   0.000000  -0.000090   0.008572
    30  H    0.000291  -0.000134  -0.000061   0.002066   0.288279  -0.031995
    31  H   -0.000013  -0.000004   0.000000  -0.000000  -0.047017   0.373476
    32  H   -0.000001   0.000003   0.000001   0.000006  -0.006050  -0.026995
    33  H    0.000000  -0.000001   0.000000   0.000025  -0.002773  -0.036065
    34  H    0.000000  -0.000000   0.000000   0.000000   0.004545  -0.026778
              25         26         27         28         29         30
     1  N    0.000103  -0.000009  -0.000000  -0.022989   0.000889  -0.000067
     2  C    0.000001   0.000000  -0.000001   0.000645  -0.000035   0.000103
     3  C   -0.000072   0.000000   0.000024   0.000222  -0.000009  -0.001858
     4  O   -0.000003  -0.000000   0.000001  -0.000051   0.000001  -0.000259
     5  C    0.000011  -0.000001   0.000000  -0.002280   0.000156   0.000381
     6  H    0.000005   0.000000   0.000000   0.000110   0.000007  -0.000003
     7  H    0.000000  -0.000000   0.000000  -0.000009   0.000001   0.000017
     8  H    0.000000   0.000000  -0.000000   0.000037  -0.000001  -0.000052
     9  H    0.000208   0.000004  -0.000002   0.006954  -0.000030   0.002674
    10  H   -0.000000   0.000000   0.000000  -0.000002   0.000005  -0.000003
    11  H    0.000002   0.000000   0.000000   0.000253   0.000006  -0.000005
    12  H    0.000414   0.000255   0.000011   0.064056  -0.001982  -0.000149
    13  N    0.000004  -0.000000  -0.000011  -0.000048   0.000001   0.007942
    14  C    0.000005   0.000000  -0.000478  -0.000008  -0.000001  -0.000853
    15  C    0.003516  -0.000038  -0.002769   0.000002   0.000025  -0.021752
    16  O    0.000670  -0.000000  -0.004549  -0.000002   0.000000   0.003074
    17  C   -0.000005  -0.000000   0.000063   0.000000  -0.000000   0.000703
    18  H    0.000003   0.000000  -0.000001  -0.000009   0.000000   0.000651
    19  H    0.000001  -0.000000  -0.000000   0.000000   0.000000   0.000291
    20  H   -0.000000   0.000000   0.000014   0.000000  -0.000000  -0.000134
    21  H    0.000000   0.000000  -0.000001  -0.000000  -0.000000  -0.000061
    22  H    0.000000  -0.000000   0.000038  -0.000000   0.000000   0.002066
    23  N   -0.029142   0.001965  -0.058129   0.000358  -0.000090   0.288279
    24  C    0.311025  -0.068641   0.371826  -0.079656   0.008572  -0.031995
    25  C    4.409913   0.581427  -0.048597   0.209902  -0.003626  -0.003614
    26  O    0.581427   7.949949  -0.000874  -0.083941   0.015255  -0.000033
    27  C   -0.048597  -0.000874   5.107044   0.001882  -0.000250   0.000196
    28  O    0.209902  -0.083941   0.001882   8.324546   0.211042   0.003821
    29  H   -0.003626   0.015255  -0.000250   0.211042   0.341976  -0.000219
    30  H   -0.003614  -0.000033   0.000196   0.003821  -0.000219   0.420832
    31  H   -0.031162  -0.001289  -0.031669   0.001175  -0.000240   0.004951
    32  H    0.005101   0.000284   0.371001  -0.000043   0.000005  -0.000317
    33  H   -0.005335   0.000244   0.376494   0.000113  -0.000027   0.002662
    34  H   -0.002537   0.005809   0.367689   0.000121  -0.000015  -0.000071
              31         32         33         34
     1  N    0.000013  -0.000000   0.000000   0.000000
     2  C   -0.000006  -0.000000   0.000000   0.000000
     3  C   -0.000107  -0.000000  -0.000001  -0.000000
     4  O    0.000124   0.000000   0.000000   0.000000
     5  C   -0.000001   0.000000  -0.000000   0.000000
     6  H    0.000004   0.000000  -0.000000  -0.000000
     7  H   -0.000000  -0.000000  -0.000000  -0.000000
     8  H    0.000000   0.000000   0.000000  -0.000000
     9  H    0.000000  -0.000000  -0.000001  -0.000000
    10  H   -0.000000   0.000000   0.000000  -0.000000
    11  H    0.000000   0.000000  -0.000000  -0.000000
    12  H   -0.000054   0.000000  -0.000001  -0.000001
    13  N   -0.000091  -0.000003  -0.000003   0.000000
    14  C    0.000785   0.000061   0.000009   0.000005
    15  C   -0.001947   0.003791  -0.000077  -0.000011
    16  O    0.013765   0.005905   0.000019  -0.000028
    17  C   -0.000009  -0.000011  -0.000002  -0.000000
    18  H    0.000002   0.000000   0.000000   0.000000
    19  H   -0.000013  -0.000001   0.000000   0.000000
    20  H   -0.000004   0.000003  -0.000001  -0.000000
    21  H    0.000000   0.000001   0.000000   0.000000
    22  H   -0.000000   0.000006   0.000025   0.000000
    23  N   -0.047017  -0.006050  -0.002773   0.004545
    24  C    0.373476  -0.026995  -0.036065  -0.026778
    25  C   -0.031162   0.005101  -0.005335  -0.002537
    26  O   -0.001289   0.000284   0.000244   0.005809
    27  C   -0.031669   0.371001   0.376494   0.367689
    28  O    0.001175  -0.000043   0.000113   0.000121
    29  H   -0.000240   0.000005  -0.000027  -0.000015
    30  H    0.004951  -0.000317   0.002662  -0.000071
    31  H    0.483956  -0.004645   0.004445  -0.000725
    32  H   -0.004645   0.503419  -0.027607  -0.021017
    33  H    0.004445  -0.027607   0.556749  -0.023927
    34  H   -0.000725  -0.021017  -0.023927   0.495511
 Mulliken charges:
               1
     1  N   -0.765191
     2  C   -0.119327
     3  C    0.665155
     4  O   -0.505770
     5  C   -0.495972
     6  H    0.432456
     7  H    0.242122
     8  H    0.206789
     9  H    0.188396
    10  H    0.200059
    11  H    0.411164
    12  H    0.439183
    13  N   -0.628068
    14  C   -0.036213
    15  C    0.617816
    16  O   -0.472665
    17  C   -0.493675
    18  H    0.351141
    19  H    0.227034
    20  H    0.217852
    21  H    0.190399
    22  H    0.152561
    23  N   -0.625172
    24  C   -0.057608
    25  C    0.601781
    26  O   -0.400366
    27  C   -0.448952
    28  O   -0.636201
    29  H    0.428581
    30  H    0.322803
    31  H    0.236284
    32  H    0.197111
    33  H    0.155059
    34  H    0.201432
 Sum of Mulliken charges =   1.00000
 Mulliken charges with hydrogens summed into heavy atoms:
               1
     1  N    0.517613
     2  C    0.122795
     3  C    0.665155
     4  O   -0.505770
     5  C    0.099272
    13  N   -0.276928
    14  C    0.190821
    15  C    0.617816
    16  O   -0.472665
    17  C    0.067138
    23  N   -0.302369
    24  C    0.178677
    25  C    0.601781
    26  O   -0.400366
    27  C    0.104649
    28  O   -0.207619
 Electronic spatial extent (au):  <R**2>=         121009.5090
 Charge=              1.0000 electrons
 Dipole moment (field-independent basis, Debye):
    X=              7.8480    Y=            -62.9474    Z=            -38.5240  Tot=             74.2163
 Quadrupole moment (field-independent basis, Debye-Ang):
   XX=            -88.5099   YY=            761.2505   ZZ=            222.4304
   XY=           -111.7220   XZ=            -64.5703   YZ=            505.4733
 Traceless Quadrupole moment (field-independent basis, Debye-Ang):
   XX=           -386.9002   YY=            462.8602   ZZ=            -75.9600
   XY=           -111.7220   XZ=            -64.5703   YZ=            505.4733
 Octapole moment (field-independent basis, Debye-Ang**2):
  XXX=             -0.1564  YYY=          -7916.9242  ZZZ=           -688.2721  XYY=           1608.9503
  XXY=           1324.4632  XXZ=            620.9883  XZZ=            526.5655  YZZ=          -2796.5211
  YYZ=          -6208.1534  XYZ=            919.6537
 Hexadecapole moment (field-independent basis, Debye-Ang**3):
 XXXX=           -677.7952 YYYY=          52820.9802 ZZZZ=          -7125.1431 XXXY=           -205.9237
 XXXZ=             89.6522 YYYX=         -23603.5356 YYYZ=          67704.8492 ZZZX=          -4186.6407
 ZZZY=           6437.5401 XXYY=         -20191.0276 XXZZ=          -4799.9001 YYZZ=          31534.9172
 XXYZ=          -9284.1705 YYXZ=         -13193.7262 ZZXY=          -7534.9887
 N-N= 1.254203710383D+03 E-N=-4.400595633232D+03  KE= 8.112339289132D+02
 Unable to Open any file for archive entry.
 1\1\GINC-AMR-134\SP\RB3LYP\6-31G(d)\C9H18N3O4(1+)\KENGMITH\04-Jun-2022
 \0\\# B3LYP/6-31G* empiricaldispersion=gd3 guess=read geom=check nosym
 m integral(ultrafinegrid)\\Candidate Structure: Conf:684 Charge calc i
 n gas phase\\1,1\N,0,0.2865409589,-11.8844258723,-8.0348379296\C,0,1.0
 488357275,-12.7992885975,-8.9786797289\C,0,0.093893667,-14.0194820891,
 -9.0346177605\O,0,-1.1112283342,-13.7840107623,-8.9527156733\C,0,2.470
 7740286,-13.0214109679,-8.4828869553\H,0,-0.7120251083,-11.9880279261,
 -8.3044704346\H,0,1.0397021978,-12.3040125003,-9.9549515682\H,0,3.0225
 246974,-13.6447401807,-9.1930819685\H,0,2.4784931296,-13.5031053029,-7
 .500157974\H,0,3.0152777959,-12.0742676543,-8.4120761739\H,0,0.5883539
 751,-10.9073391952,-8.0818421885\H,0,0.3661710061,-12.2395345961,-7.05
 82238102\N,0,0.6089559337,-15.2605566862,-9.0596597578\C,0,-0.25509229
 ,-16.3906556282,-8.6742360861\C,0,-0.8656411127,-16.1345147147,-7.2750
 115853\O,0,-1.9777423634,-16.5309303677,-6.9877427016\C,0,0.5293278714
 ,-17.7022897467,-8.7118744337\H,0,1.6054496259,-15.4095061872,-9.14388
 57514\H,0,-1.1072765874,-16.433361377,-9.355842158\H,0,-0.1270687869,-
 18.5228964645,-8.4120860725\H,0,0.8962134415,-17.908294716,-9.72228424
 43\H,0,1.3821384397,-17.6818620569,-8.0218463826\N,0,-0.0690625781,-15
 .4194946109,-6.4048945995\C,0,-0.5195879733,-15.169265918,-5.044977043
 5\C,0,0.1119218234,-13.91400327,-4.4608944505\O,0,0.1230811858,-13.626
 6836504,-3.296895888\C,0,-0.3112749411,-16.3610333132,-4.0973219318\O,
 0,0.7280249179,-13.0628583944,-5.3894475087\H,0,1.1198433145,-12.36680
 9367,-4.8228328535\H,0,0.9274059451,-15.4001981311,-6.5749530777\H,0,-
 1.5969942459,-14.9707956033,-5.1159136007\H,0,-0.865663707,-17.2160189
 658,-4.4906007137\H,0,0.750271961,-16.6212117608,-4.0258198535\H,0,-0.
 6779621055,-16.1223050652,-3.0967148599\\Version=ES64L-G16RevC.01\HF=-
 818.7990123\RMSD=8.630e-09\Dipole=2.8789267,2.9360723,-1.8322795\Quadr
 upole=-287.6508149,344.1252011,-56.4743862,-83.0625701,-48.0064467,375
 .8069966\PG=C01 [X(C9H18N3O4)]\\@
 The archive entry for this job was punched.


 WHEN IT COMES TO CASH FLOW, IT SEEMS LIKE THE TIDE IS ALWAYS GOING OUT.
 Job cpu time:       0 days  0 hours  0 minutes 33.2 seconds.
 Elapsed time:       0 days  0 hours  0 minutes  8.6 seconds.
 File lengths (MBytes):  RWF=    168 Int=      0 D2E=      0 Chk=     16 Scr=     16
 Normal termination of Gaussian 16 at Sat Jun  4 16:59:07 2022.
