 Entering Gaussian System, Link 0=/opt/software/Gaussian/g16-AVX2-C.01/g16/g16
 Input=charge-conf-472.com
 Output=charge-conf-472.log
 Initial command:
 /opt/software/Gaussian/g16-AVX2-C.01/g16/l1.exe "/mnt/gs18/scratch/users/kengmith/Gau-63165.inp" -scrdir="/mnt/gs18/scratch/users/kengmith/"
 Entering Link 1 = /opt/software/Gaussian/g16-AVX2-C.01/g16/l1.exe PID=     63240.
  
 Copyright (c) 1988-2019, Gaussian, Inc.  All Rights Reserved.
  
 This is part of the Gaussian(R) 16 program.  It is based on
 the Gaussian(R) 09 system (copyright 2009, Gaussian, Inc.),
 the Gaussian(R) 03 system (copyright 2003, Gaussian, Inc.),
 the Gaussian(R) 98 system (copyright 1998, Gaussian, Inc.),
 the Gaussian(R) 94 system (copyright 1995, Gaussian, Inc.),
 the Gaussian 92(TM) system (copyright 1992, Gaussian, Inc.),
 the Gaussian 90(TM) system (copyright 1990, Gaussian, Inc.),
 the Gaussian 88(TM) system (copyright 1988, Gaussian, Inc.),
 the Gaussian 86(TM) system (copyright 1986, Carnegie Mellon
 University), and the Gaussian 82(TM) system (copyright 1983,
 Carnegie Mellon University). Gaussian is a federally registered
 trademark of Gaussian, Inc.
  
 This software contains proprietary and confidential information,
 including trade secrets, belonging to Gaussian, Inc.
  
 This software is provided under written license and may be
 used, copied, transmitted, or stored only in accord with that
 written license.
  
 The following legend is applicable only to US Government
 contracts under FAR:
  
                    RESTRICTED RIGHTS LEGEND
  
 Use, reproduction and disclosure by the US Government is
 subject to restrictions as set forth in subparagraphs (a)
 and (c) of the Commercial Computer Software - Restricted
 Rights clause in FAR 52.227-19.
  
 Gaussian, Inc.
 340 Quinnipiac St., Bldg. 40, Wallingford CT 06492
  
  
 ---------------------------------------------------------------
 Warning -- This program may not be used in any manner that
 competes with the business of Gaussian, Inc. or will provide
 assistance to any competitor of Gaussian, Inc.  The licensee
 of this program is prohibited from giving any competitor of
 Gaussian, Inc. access to this program.  By using this program,
 the user acknowledges that Gaussian, Inc. is engaged in the
 business of creating and licensing software in the field of
 computational chemistry and represents and warrants to the
 licensee that it is not a competitor of Gaussian, Inc. and that
 it will not use this program in any manner prohibited above.
 ---------------------------------------------------------------
  

 Cite this work as:
 Gaussian 16, Revision C.01,
 M. J. Frisch, G. W. Trucks, H. B. Schlegel, G. E. Scuseria, 
 M. A. Robb, J. R. Cheeseman, G. Scalmani, V. Barone, 
 G. A. Petersson, H. Nakatsuji, X. Li, M. Caricato, A. V. Marenich, 
 J. Bloino, B. G. Janesko, R. Gomperts, B. Mennucci, H. P. Hratchian, 
 J. V. Ortiz, A. F. Izmaylov, J. L. Sonnenberg, D. Williams-Young, 
 F. Ding, F. Lipparini, F. Egidi, J. Goings, B. Peng, A. Petrone, 
 T. Henderson, D. Ranasinghe, V. G. Zakrzewski, J. Gao, N. Rega, 
 G. Zheng, W. Liang, M. Hada, M. Ehara, K. Toyota, R. Fukuda, 
 J. Hasegawa, M. Ishida, T. Nakajima, Y. Honda, O. Kitao, H. Nakai, 
 T. Vreven, K. Throssell, J. A. Montgomery, Jr., J. E. Peralta, 
 F. Ogliaro, M. J. Bearpark, J. J. Heyd, E. N. Brothers, K. N. Kudin, 
 V. N. Staroverov, T. A. Keith, R. Kobayashi, J. Normand, 
 K. Raghavachari, A. P. Rendell, J. C. Burant, S. S. Iyengar, 
 J. Tomasi, M. Cossi, J. M. Millam, M. Klene, C. Adamo, R. Cammi, 
 J. W. Ochterski, R. L. Martin, K. Morokuma, O. Farkas, 
 J. B. Foresman, and D. J. Fox, Gaussian, Inc., Wallingford CT, 2019.
 
 ******************************************
 Gaussian 16:  ES64L-G16RevC.01  3-Jul-2019
                 4-Jun-2022 
 ******************************************
 %mem=8gb
 %nproc=4
 Will use up to    4 processors via shared memory.
 %chk=conf-472.chk
 ----------------------------------------------------------------------
 # B3LYP/6-31G* empiricaldispersion=gd3 guess=read geom=check nosymm in
 tegral(ultrafinegrid)
 ----------------------------------------------------------------------
 1/29=2,38=1,172=1/1;
 2/12=2,15=1,40=1/2;
 3/5=1,6=6,7=1,11=2,14=-4,25=1,30=1,74=-5,75=-5,116=-2,124=31/1,2,3;
 4/5=1/1;
 5/5=2,38=6/2;
 6/7=2,8=2,9=2,10=2,28=1/1;
 99/5=1,9=1/99;
 ------------------------------------------------------
 Candidate Structure: Conf:472 Charge calc in gas phase
 ------------------------------------------------------
 Structure from the checkpoint file:  "conf-472.chk"
 Charge =  1 Multiplicity = 1
 Redundant internal coordinates found in file.  (old form).
 N,0,-2.1085227363,-13.2720676024,-10.7659416207
 C,0,-1.9760866023,-13.5118831972,-9.2725196342
 C,0,-0.4397206271,-13.7036804582,-9.1007287596
 O,0,0.2761569065,-13.5056543419,-10.0919246414
 C,0,-2.8260431193,-14.6949967204,-8.8170021161
 H,0,-2.4752861862,-14.0941912351,-11.2569914969
 H,0,-2.2798386371,-12.5850171942,-8.7768787555
 H,0,-2.5009016324,-15.6224047238,-9.3012393338
 H,0,-3.8866513884,-14.5262787282,-9.0273561861
 H,0,-2.7210386931,-14.8396089089,-7.7386663689
 H,0,-1.0929846355,-13.1378739397,-11.0599444552
 H,0,-2.6860112765,-12.463564554,-11.0103758286
 N,0,-0.0072720091,-14.069090559,-7.8978702671
 C,0,1.4033768782,-14.4553247255,-7.6453225066
 C,0,1.2724069057,-15.5735276681,-6.5937852601
 O,0,1.1414418102,-16.7361258262,-6.9379522067
 C,0,2.2754755412,-13.2482017651,-7.2999972134
 H,0,-0.6657770967,-14.2357041978,-7.140750169
 H,0,1.7701660325,-14.933755379,-8.5553587515
 H,0,3.2917406931,-13.5746418483,-7.059363223
 H,0,2.3242281186,-12.5742843886,-8.1598043305
 H,0,1.8808573782,-12.6770869099,-6.4518610354
 N,0,1.1568910276,-15.1472602212,-5.3006372225
 C,0,0.5474141736,-15.9886107164,-4.286732122
 C,0,-0.9782701068,-15.8503322983,-4.2561686092
 O,0,-1.67880215,-16.3763590276,-3.464033164
 C,0,1.1260368048,-15.7238661491,-2.8921144261
 O,0,-1.5000546975,-15.0349192083,-5.2379758382
 H,0,-2.4605120291,-15.0323182528,-5.0572012772
 H,0,1.2390632781,-14.1612995012,-5.0933155454
 H,0,0.7433096536,-17.0256166092,-4.5773991095
 H,0,0.6248978763,-16.3573009388,-2.1574118896
 H,0,2.1962754577,-15.9447704486,-2.8894373642
 H,0,0.9819883375,-14.6781049069,-2.5956317115
 Recover connectivity data from disk.
                           ----------------------------
                           !    Current Parameters    !
                           ! (Angstroms and Degrees)  !
 --------------------------                            --------------------------
 ! Name  Definition              Value                                          !
 --------------------------------------------------------------------------------
 ! R1    R(1,2)                  1.5183                                         !
 ! R2    R(1,6)                  1.0254                                         !
 ! R3    R(1,11)                 1.0657                                         !
 ! R4    R(1,12)                 1.0232                                         !
 ! R5    R(2,3)                  1.5578                                         !
 ! R6    R(2,5)                  1.5263                                         !
 ! R7    R(2,7)                  1.0941                                         !
 ! R8    R(3,4)                  1.2386                                         !
 ! R9    R(3,13)                 1.3294                                         !
 ! R10   R(5,8)                  1.0956                                         !
 ! R11   R(5,9)                  1.0944                                         !
 ! R12   R(5,10)                 1.093                                          !
 ! R13   R(13,14)                1.4842                                         !
 ! R14   R(13,18)                1.0172                                         !
 ! R15   R(14,15)                1.5405                                         !
 ! R16   R(14,17)                1.5287                                         !
 ! R17   R(14,19)                1.0916                                         !
 ! R18   R(15,16)                1.2195                                         !
 ! R19   R(15,23)                1.3665                                         !
 ! R20   R(17,20)                1.0942                                         !
 ! R21   R(17,21)                1.0935                                         !
 ! R22   R(17,22)                1.096                                          !
 ! R23   R(23,24)                1.4517                                         !
 ! R24   R(23,30)                1.0109                                         !
 ! R25   R(24,25)                1.5322                                         !
 ! R26   R(24,27)                1.5329                                         !
 ! R27   R(24,31)                1.0946                                         !
 ! R28   R(25,26)                1.1811                                         !
 ! R29   R(25,28)                1.3788                                         !
 ! R30   R(27,32)                1.0919                                         !
 ! R31   R(27,33)                1.0928                                         !
 ! R32   R(27,34)                1.0965                                         !
 ! R33   R(28,29)                0.9773                                         !
 ! A1    A(2,1,6)              112.0598                                         !
 ! A2    A(2,1,11)             102.0119                                         !
 ! A3    A(2,1,12)             114.1425                                         !
 ! A4    A(6,1,11)             108.0392                                         !
 ! A5    A(6,1,12)             108.4963                                         !
 ! A6    A(11,1,12)            111.865                                          !
 ! A7    A(1,2,3)              102.3533                                         !
 ! A8    A(1,2,5)              111.5553                                         !
 ! A9    A(1,2,7)              106.7122                                         !
 ! A10   A(3,2,5)              114.8887                                         !
 ! A11   A(3,2,7)              109.1571                                         !
 ! A12   A(5,2,7)              111.5225                                         !
 ! A13   A(2,3,4)              117.5216                                         !
 ! A14   A(2,3,13)             117.0284                                         !
 ! A15   A(4,3,13)             125.4499                                         !
 ! A16   A(2,5,8)              111.0377                                         !
 ! A17   A(2,5,9)              111.2737                                         !
 ! A18   A(2,5,10)             110.0891                                         !
 ! A19   A(8,5,9)              109.4615                                         !
 ! A20   A(8,5,10)             107.19                                           !
 ! A21   A(9,5,10)             107.6459                                         !
 ! A22   A(3,13,14)            122.3199                                         !
 ! A23   A(3,13,18)            120.5246                                         !
 ! A24   A(14,13,18)           116.489                                          !
 ! A25   A(13,14,15)           102.9576                                         !
 ! A26   A(13,14,17)           112.034                                          !
 ! A27   A(13,14,19)           106.9511                                         !
 ! A28   A(15,14,17)           117.8701                                         !
 ! A29   A(15,14,19)           106.2293                                         !
 ! A30   A(17,14,19)           110.0425                                         !
 ! A31   A(14,15,16)           120.5618                                         !
 ! A32   A(14,15,23)           115.2587                                         !
 ! A33   A(16,15,23)           123.7365                                         !
 ! A34   A(14,17,20)           110.1177                                         !
 ! A35   A(14,17,21)           109.5394                                         !
 ! A36   A(14,17,22)           112.3877                                         !
 ! A37   A(20,17,21)           108.3829                                         !
 ! A38   A(20,17,22)           108.6439                                         !
 ! A39   A(21,17,22)           107.6598                                         !
 ! A40   A(15,23,24)           121.0412                                         !
 ! A41   A(15,23,30)           119.4374                                         !
 ! A42   A(24,23,30)           117.1408                                         !
 ! A43   A(23,24,25)           112.3137                                         !
 ! A44   A(23,24,27)           112.1389                                         !
 ! A45   A(23,24,31)           106.7659                                         !
 ! A46   A(25,24,27)           110.0058                                         !
 ! A47   A(25,24,31)           105.6038                                         !
 ! A48   A(27,24,31)           109.7332                                         !
 ! A49   A(24,25,26)           124.3175                                         !
 ! A50   A(24,25,28)           114.581                                          !
 ! A51   A(26,25,28)           121.0988                                         !
 ! A52   A(24,27,32)           109.8                                            !
 ! A53   A(24,27,33)           109.6934                                         !
 ! A54   A(24,27,34)           111.1695                                         !
 ! A55   A(32,27,33)           109.3039                                         !
 ! A56   A(32,27,34)           108.1233                                         !
 ! A57   A(33,27,34)           108.7109                                         !
 ! A58   A(25,28,29)           103.9907                                         !
 ! D1    D(6,1,2,3)            104.4879                                         !
 ! D2    D(6,1,2,5)            -18.8615                                         !
 ! D3    D(6,1,2,7)           -140.8976                                         !
 ! D4    D(11,1,2,3)           -10.8422                                         !
 ! D5    D(11,1,2,5)          -134.1916                                         !
 ! D6    D(11,1,2,7)           103.7723                                         !
 ! D7    D(12,1,2,3)          -131.6809                                         !
 ! D8    D(12,1,2,5)           104.9697                                         !
 ! D9    D(12,1,2,7)           -17.0665                                         !
 ! D10   D(1,2,3,4)              6.4565                                         !
 ! D11   D(1,2,3,13)          -173.4648                                         !
 ! D12   D(5,2,3,4)            127.5357                                         !
 ! D13   D(5,2,3,13)           -52.3856                                         !
 ! D14   D(7,2,3,4)           -106.3563                                         !
 ! D15   D(7,2,3,13)            73.7224                                         !
 ! D16   D(1,2,5,8)             62.0368                                         !
 ! D17   D(1,2,5,9)            -60.1597                                         !
 ! D18   D(1,2,5,10)          -179.4196                                         !
 ! D19   D(3,2,5,8)            -53.8661                                         !
 ! D20   D(3,2,5,9)           -176.0626                                         !
 ! D21   D(3,2,5,10)            64.6775                                         !
 ! D22   D(7,2,5,8)           -178.7444                                         !
 ! D23   D(7,2,5,9)             59.0591                                         !
 ! D24   D(7,2,5,10)           -60.2008                                         !
 ! D25   D(2,3,13,14)          171.8669                                         !
 ! D26   D(2,3,13,18)            1.5549                                         !
 ! D27   D(4,3,13,14)           -8.0474                                         !
 ! D28   D(4,3,13,18)         -178.3594                                         !
 ! D29   D(3,13,14,15)        -144.3907                                         !
 ! D30   D(3,13,14,17)          87.9765                                         !
 ! D31   D(3,13,14,19)         -32.6787                                         !
 ! D32   D(18,13,14,15)         26.2884                                         !
 ! D33   D(18,13,14,17)       -101.3445                                         !
 ! D34   D(18,13,14,19)        138.0004                                         !
 ! D35   D(13,14,15,16)         88.9061                                         !
 ! D36   D(13,14,15,23)        -83.7351                                         !
 ! D37   D(17,14,15,16)       -147.2356                                         !
 ! D38   D(17,14,15,23)         40.1232                                         !
 ! D39   D(19,14,15,16)        -23.3387                                         !
 ! D40   D(19,14,15,23)        164.0201                                         !
 ! D41   D(13,14,17,20)        176.4827                                         !
 ! D42   D(13,14,17,21)        -64.4146                                         !
 ! D43   D(13,14,17,22)         55.211                                          !
 ! D44   D(15,14,17,20)         57.2962                                         !
 ! D45   D(15,14,17,21)        176.399                                          !
 ! D46   D(15,14,17,22)        -63.9754                                         !
 ! D47   D(19,14,17,20)        -64.6719                                         !
 ! D48   D(19,14,17,21)         54.4309                                         !
 ! D49   D(19,14,17,22)        174.0565                                         !
 ! D50   D(14,15,23,24)        156.9636                                         !
 ! D51   D(14,15,23,30)         -5.0243                                         !
 ! D52   D(16,15,23,24)        -15.4152                                         !
 ! D53   D(16,15,23,30)       -177.4031                                         !
 ! D54   D(15,23,24,25)        -85.3266                                         !
 ! D55   D(15,23,24,27)        150.1866                                         !
 ! D56   D(15,23,24,31)         29.9701                                         !
 ! D57   D(30,23,24,25)         77.0585                                         !
 ! D58   D(30,23,24,27)        -47.4283                                         !
 ! D59   D(30,23,24,31)       -167.6448                                         !
 ! D60   D(23,24,25,26)       -175.3299                                         !
 ! D61   D(23,24,25,28)          4.0767                                         !
 ! D62   D(27,24,25,26)        -49.6723                                         !
 ! D63   D(27,24,25,28)        129.7343                                         !
 ! D64   D(31,24,25,26)         68.6709                                         !
 ! D65   D(31,24,25,28)       -111.9225                                         !
 ! D66   D(23,24,27,32)        178.6028                                         !
 ! D67   D(23,24,27,33)        -61.2623                                         !
 ! D68   D(23,24,27,34)         59.0019                                         !
 ! D69   D(25,24,27,32)         52.8459                                         !
 ! D70   D(25,24,27,33)        172.9808                                         !
 ! D71   D(25,24,27,34)        -66.755                                          !
 ! D72   D(31,24,27,32)        -62.9212                                         !
 ! D73   D(31,24,27,33)         57.2137                                         !
 ! D74   D(31,24,27,34)        177.4779                                         !
 ! D75   D(24,25,28,29)       -178.0669                                         !
 ! D76   D(26,25,28,29)          1.3607                                         !
 --------------------------------------------------------------------------------
                          Input orientation:                          
 ---------------------------------------------------------------------
 Center     Atomic      Atomic             Coordinates (Angstroms)
 Number     Number       Type             X           Y           Z
 ---------------------------------------------------------------------
      1          7           0       -2.108523  -13.272068  -10.765942
      2          6           0       -1.976087  -13.511883   -9.272520
      3          6           0       -0.439721  -13.703680   -9.100729
      4          8           0        0.276157  -13.505654  -10.091925
      5          6           0       -2.826043  -14.694997   -8.817002
      6          1           0       -2.475286  -14.094191  -11.256991
      7          1           0       -2.279839  -12.585017   -8.776879
      8          1           0       -2.500902  -15.622405   -9.301239
      9          1           0       -3.886651  -14.526279   -9.027356
     10          1           0       -2.721039  -14.839609   -7.738666
     11          1           0       -1.092985  -13.137874  -11.059944
     12          1           0       -2.686011  -12.463565  -11.010376
     13          7           0       -0.007272  -14.069091   -7.897870
     14          6           0        1.403377  -14.455325   -7.645323
     15          6           0        1.272407  -15.573528   -6.593785
     16          8           0        1.141442  -16.736126   -6.937952
     17          6           0        2.275476  -13.248202   -7.299997
     18          1           0       -0.665777  -14.235704   -7.140750
     19          1           0        1.770166  -14.933755   -8.555359
     20          1           0        3.291741  -13.574642   -7.059363
     21          1           0        2.324228  -12.574284   -8.159804
     22          1           0        1.880857  -12.677087   -6.451861
     23          7           0        1.156891  -15.147260   -5.300637
     24          6           0        0.547414  -15.988611   -4.286732
     25          6           0       -0.978270  -15.850332   -4.256169
     26          8           0       -1.678802  -16.376359   -3.464033
     27          6           0        1.126037  -15.723866   -2.892114
     28          8           0       -1.500055  -15.034919   -5.237976
     29          1           0       -2.460512  -15.032318   -5.057201
     30          1           0        1.239063  -14.161300   -5.093316
     31          1           0        0.743310  -17.025617   -4.577399
     32          1           0        0.624898  -16.357301   -2.157412
     33          1           0        2.196275  -15.944770   -2.889437
     34          1           0        0.981988  -14.678105   -2.595632
 ---------------------------------------------------------------------
                    Distance matrix (angstroms):
                    1          2          3          4          5
     1  N    0.000000
     2  C    1.518341   0.000000
     3  C    2.396690   1.557793   0.000000
     4  O    2.489088   2.396678   1.238614   0.000000
     5  C    2.517524   1.526329   2.599566   3.558596   0.000000
     6  H    1.025443   2.127536   2.990902   3.045356   2.537232
     7  H    2.111340   1.094078   2.177687   3.018283   2.179900
     8  H    2.797034   2.174984   2.823150   3.580205   1.095577
     9  H    2.785223   2.177007   3.544486   4.416328   1.094351
    10  H    3.463633   2.161137   2.889630   4.037380   1.093045
    11  H    1.065722   2.028457   2.141359   1.716646   3.234024
    12  H    1.023190   2.150142   3.198509   3.271688   3.132058
    13  N    3.643670   2.465030   1.329438   2.282908   3.030187
    14  C    4.844770   3.867638   2.465803   2.856284   4.395255
    15  C    5.842456   4.688145   3.565456   4.183969   4.744660
    16  O    6.100448   5.056177   4.046406   4.596978   4.841278
    17  C    5.588630   4.694268   3.289739   3.443605   5.515434
    18  H    4.018970   2.604855   2.043445   3.182710   2.772638
    19  H    4.763624   4.070682   2.587298   2.575378   4.609837
    20  H    6.556914   5.714193   4.255306   4.277258   6.463108
    21  H    5.189232   4.539816   3.130541   2.965659   5.608442
    22  H    5.905967   4.850672   3.668171   4.063453   5.640990
    23  N    6.636929   5.316564   4.367355   5.140720   5.332272
    24  C    7.510910   6.112308   5.419401   6.319724   5.794566
    25  C    7.092395   5.623856   5.326154   6.413045   5.054727
    26  O    7.946015   6.483218   6.360100   7.482764   5.726903
    27  C    8.858377   7.431393   6.714137   7.581558   7.195957
    28  O    5.834062   4.338639   4.221062   5.390213   3.831869
    29  H    5.984321   4.507250   4.711580   5.930303   3.792559
    30  H    6.646484   5.312690   4.368878   5.132558   5.538571
    31  H    7.779469   6.464178   5.735445   6.558838   6.012179
    32  H    9.544477   8.092359   7.508979   8.438602   7.682603
    33  H    9.365572   8.004454   7.109930   7.842956   7.869031
    34  H    8.847721   7.395344   6.729565   7.620187   7.294302
                    6          7          8          9         10
     6  H    0.000000
     7  H    2.909771   0.000000
     8  H    2.482148   3.090234   0.000000
     9  H    2.673934   2.532406   1.787962   0.000000
    10  H    3.604810   2.521057   1.761495   1.765659   0.000000
    11  H    1.692373   2.631855   3.353829   3.723393   4.071529
    12  H    1.662579   2.273375   3.596343   3.103014   4.043624
    13  N    4.168383   2.853014   3.255828   4.066244   2.825522
    14  C    5.312118   4.283053   4.398582   5.468039   4.143331
    15  C    6.162721   5.129867   4.644411   5.799559   4.218649
    16  O    6.222109   5.684937   4.482429   5.876287   4.376834
    17  C    6.240452   4.834447   5.696981   6.526029   5.262144
    18  H    4.498643   2.829643   3.155683   3.744028   2.224029
    19  H    5.101720   4.687023   4.390056   5.691081   4.565826
    20  H    7.151826   5.913689   6.540187   7.503860   6.181837
    21  H    5.910839   4.645248   5.820291   6.567949   5.546510
    22  H    6.638784   4.767135   5.999472   6.581553   5.244980
    23  N    7.055482   5.519099   5.441510   6.301696   4.590967
    24  C    7.830074   6.303905   5.879763   6.653786   4.890689
    25  C    7.371337   5.726533   5.274760   5.742476   4.023257
    26  O    8.159220   6.554529   5.942834   6.264819   4.660509
    27  C    9.251840   7.488846   7.364907   8.012643   6.250677
    28  O    6.169651   4.374233   4.225748   4.507101   2.789696
    29  H    6.270383   4.456223   4.285055   4.248774   2.700975
    30  H    7.196652   5.332539   5.816252   6.471695   4.810446
    31  H    7.973053   6.818649   5.899879   6.890961   5.174355
    32  H    9.875989   8.153831   7.832303   8.420383   6.681997
    33  H    9.760333   8.123146   7.954785   8.757178   6.994025
    34  H    9.344135   7.295776   7.614946   8.068072   6.339503
                   11         12         13         14         15
    11  H    0.000000
    12  H    1.730573   0.000000
    13  N    3.470540   4.409200   0.000000
    14  C    4.430253   5.658073   1.484213   0.000000
    15  C    5.610175   6.696807   2.366759   1.540539   0.000000
    16  O    5.910237   7.034828   3.058441   2.402298   1.219523
    17  C    5.049346   6.244911   2.498449   1.528709   2.629073
    18  H    4.092410   4.711245   1.017163   2.141080   2.417747
    19  H    4.206634   5.655658   2.083080   1.091603   2.122462
    20  H    5.951574   7.251104   3.439631   2.164456   2.879239
    21  H    4.517277   5.765459   2.781896   2.156611   3.543191
    22  H    5.503680   6.456155   2.755658   2.194190   2.963060
    23  N    6.501476   7.387235   3.043574   2.457047   1.366484
    24  C    7.529543   8.251568   4.127051   3.789956   2.453651
    25  C    7.325432   7.746347   4.168651   4.370887   3.256781
    26  O    8.278215   8.559890   5.270333   5.538355   4.376017
    27  C    8.850133   9.542926   5.392612   4.927383   3.707613
    28  O    6.136759   6.429538   3.199416   3.815909   3.132868
    29  H    6.441427   6.487652   3.874996   4.686249   4.072921
    30  H    6.487411   7.300693   3.070404   2.574139   2.060803
    31  H    7.778812   8.599753   4.508874   4.056383   2.540535
    32  H    9.621378  10.222440   6.211957   5.860094   4.551371
    33  H    9.244192  10.094809   5.784306   5.046343   3.835824
    34  H    8.849995   9.442792   5.428008   5.072137   4.107476
                   16         17         18         19         20
    16  O    0.000000
    17  C    3.685475   0.000000
    18  H    3.091808   3.106684   0.000000
    19  H    2.501967   2.161565   2.902105   0.000000
    20  H    3.825377   1.094195   4.013175   2.529898   0.000000
    21  H    4.495868   1.093531   3.569162   2.455718   1.774195
    22  H    4.154373   1.096007   3.064181   3.086990   1.779116
    23  N    2.281564   2.975751   2.745737   3.318871   3.181796
    24  C    2.817910   4.424455   3.562293   4.563882   4.587598
    25  C    3.531256   5.159732   3.320465   5.184308   5.591928
    26  O    4.489022   6.335322   4.373428   6.316493   6.744058
    27  C    4.170577   5.184550   4.845217   5.754260   5.164823
    28  O    3.572328   4.658210   2.226053   4.659357   5.330212
    29  H    4.406161   5.535592   2.863013   5.490488   6.262738
    30  H    3.168903   2.603333   2.797488   3.586712   2.902240
    31  H    2.411333   4.901932   4.042265   4.610258   4.956195
    32  H    4.823266   6.231941   5.567825   6.653709   6.235733
    33  H    4.257862   5.170183   5.402399   5.771169   4.919943
    34  H    4.807975   5.084170   4.854786   6.017053   5.145628
                   21         22         23         24         25
    21  H    0.000000
    22  H    1.767545   0.000000
    23  N    4.019666   2.819787   0.000000
    24  C    5.460346   4.175170   1.451667   0.000000
    25  C    6.072673   4.802620   2.478737   1.532243   0.000000
    26  O    7.247778   5.939942   3.595129   2.404833   1.181071
    27  C    6.253326   4.745989   2.476774   1.532923   2.510925
    28  O    5.405270   4.296912   2.660058   2.450820   1.378805
    29  H    6.209816   5.132220   3.627406   3.248960   1.872923
    30  H    3.619330   2.111974   1.010867   2.113770   2.910363
    31  H    5.928515   4.870044   2.054835   1.094643   2.109104
    32  H    7.295728   5.793419   3.409851   2.162392   2.689228
    33  H    6.257261   4.844389   2.744126   2.161735   3.457544
    34  H    6.098171   4.436501   2.750955   2.183140   2.823847
                   26         27         28         29         30
    26  O    0.000000
    27  C    2.935977   0.000000
    28  O    2.231207   3.588045   0.000000
    29  H    2.226140   4.246077   0.977325   0.000000
    30  H    4.009363   2.701791   2.878699   3.800899   0.000000
    31  H    2.743674   2.163612   3.071143   3.803672   2.952330
    32  H    2.648520   1.091864   3.969130   4.436678   3.717412
    33  H    3.941149   1.092802   4.472842   5.217034   2.992341
    34  H    3.273835   1.096480   3.642779   4.246834   2.563513
                   31         32         33         34
    31  H    0.000000
    32  H    2.513365   0.000000
    33  H    2.475591   1.781929   0.000000
    34  H    3.081425   1.771793   1.779117   0.000000
 Symmetry turned off by external request.
 Stoichiometry    C9H18N3O4(1+)
 Framework group  C1[X(C9H18N3O4)]
 Deg. of freedom    96
 Full point group                 C1      NOp   1
 Rotational constants (GHZ):           0.8191080           0.2986789           0.2426042
 Standard basis: 6-31G(d) (6D, 7F)
   276 basis functions,   520 primitive gaussians,   276 cartesian basis functions
    62 alpha electrons       62 beta electrons
       nuclear repulsion energy      1208.8557423206 Hartrees.
 NAtoms=   34 NActive=   34 NUniq=   34 SFac= 1.00D+00 NAtFMM=   60 NAOKFM=F Big=F
 Integral buffers will be    131072 words long.
 Raffenetti 2 integral format.
 Two-electron integral symmetry is turned off.
 Nuclear repulsion after empirical dispersion term =     1208.8205252715 Hartrees.
 One-electron integrals computed using PRISM.
 NBasis=   276 RedAO= T EigKep=  2.28D-03  NBF=   276
 NBsUse=   276 1.00D-06 EigRej= -1.00D+00 NBFU=   276
 Initial guess from the checkpoint file:  "conf-472.chk"
 B after Tr=     0.000000    0.000000    0.000000
         Rot=    1.000000    0.000000    0.000000    0.000000 Ang=   0.00 deg.
 Requested convergence on RMS density matrix=1.00D-08 within 128 cycles.
 Requested convergence on MAX density matrix=1.00D-06.
 Requested convergence on             energy=1.00D-06.
 No special actions if energy rises.
 SCF Done:  E(RB3LYP) =  -818.795209297     A.U. after    1 cycles
            NFock=  1  Conv=0.21D-08     -V/T= 2.0092

 **********************************************************************

            Population analysis using the SCF Density.

 **********************************************************************

 Alpha  occ. eigenvalues --  -19.32117 -19.29274 -19.25571 -19.23000 -14.62439
 Alpha  occ. eigenvalues --  -14.52181 -14.47808 -10.46024 -10.43774 -10.43265
 Alpha  occ. eigenvalues --  -10.40437 -10.36345 -10.36176 -10.35050 -10.30342
 Alpha  occ. eigenvalues --  -10.28487  -1.22794  -1.21769  -1.16299  -1.15281
 Alpha  occ. eigenvalues --   -1.14070  -1.08579  -1.04437  -0.95825  -0.90755
 Alpha  occ. eigenvalues --   -0.87350  -0.83945  -0.79244  -0.78000  -0.77015
 Alpha  occ. eigenvalues --   -0.74958  -0.73192  -0.72076  -0.70934  -0.68265
 Alpha  occ. eigenvalues --   -0.65822  -0.63894  -0.62362  -0.60625  -0.60463
 Alpha  occ. eigenvalues --   -0.58589  -0.58370  -0.57484  -0.56611  -0.55872
 Alpha  occ. eigenvalues --   -0.54801  -0.54656  -0.53448  -0.52977  -0.51959
 Alpha  occ. eigenvalues --   -0.50661  -0.50261  -0.49503  -0.48405  -0.47649
 Alpha  occ. eigenvalues --   -0.46883  -0.43910  -0.43781  -0.41931  -0.40843
 Alpha  occ. eigenvalues --   -0.36758  -0.35922
 Alpha virt. eigenvalues --   -0.15148  -0.12874  -0.10219  -0.09907  -0.08256
 Alpha virt. eigenvalues --   -0.07335  -0.06151  -0.03761  -0.02942  -0.01946
 Alpha virt. eigenvalues --   -0.00782   0.00171   0.00820   0.01783   0.02342
 Alpha virt. eigenvalues --    0.03731   0.04191   0.05008   0.05148   0.06487
 Alpha virt. eigenvalues --    0.06631   0.07114   0.08189   0.09153   0.09631
 Alpha virt. eigenvalues --    0.10614   0.11174   0.13256   0.14590   0.16099
 Alpha virt. eigenvalues --    0.18999   0.20582   0.22701   0.25520   0.26824
 Alpha virt. eigenvalues --    0.28900   0.32481   0.34221   0.35597   0.37315
 Alpha virt. eigenvalues --    0.38301   0.39745   0.40358   0.41228   0.41590
 Alpha virt. eigenvalues --    0.43678   0.45625   0.46330   0.47409   0.48621
 Alpha virt. eigenvalues --    0.49291   0.50173   0.51034   0.52293   0.54689
 Alpha virt. eigenvalues --    0.55734   0.56431   0.57355   0.57841   0.58776
 Alpha virt. eigenvalues --    0.59641   0.60855   0.62675   0.62883   0.63443
 Alpha virt. eigenvalues --    0.64239   0.64667   0.66194   0.66958   0.69101
 Alpha virt. eigenvalues --    0.69462   0.70769   0.71530   0.72511   0.73520
 Alpha virt. eigenvalues --    0.74386   0.74765   0.75773   0.76631   0.77412
 Alpha virt. eigenvalues --    0.77773   0.78341   0.78650   0.80007   0.80396
 Alpha virt. eigenvalues --    0.81884   0.82191   0.83327   0.84973   0.85764
 Alpha virt. eigenvalues --    0.87226   0.88103   0.89833   0.90876   0.93365
 Alpha virt. eigenvalues --    0.94009   0.97781   0.99319   0.99680   1.01865
 Alpha virt. eigenvalues --    1.04255   1.05057   1.07195   1.10820   1.13214
 Alpha virt. eigenvalues --    1.15437   1.16371   1.18322   1.22191   1.23373
 Alpha virt. eigenvalues --    1.26924   1.28024   1.29991   1.31892   1.33735
 Alpha virt. eigenvalues --    1.37494   1.38380   1.41032   1.42541   1.45202
 Alpha virt. eigenvalues --    1.48075   1.49794   1.52527   1.53956   1.55213
 Alpha virt. eigenvalues --    1.55368   1.59178   1.60726   1.62000   1.62362
 Alpha virt. eigenvalues --    1.64648   1.65081   1.66407   1.67716   1.68329
 Alpha virt. eigenvalues --    1.69668   1.71764   1.73078   1.73659   1.74274
 Alpha virt. eigenvalues --    1.76099   1.77622   1.79292   1.80920   1.81253
 Alpha virt. eigenvalues --    1.84369   1.85269   1.87195   1.87566   1.88670
 Alpha virt. eigenvalues --    1.90167   1.90655   1.91710   1.94123   1.94945
 Alpha virt. eigenvalues --    1.95437   1.97113   1.99604   2.02786   2.06534
 Alpha virt. eigenvalues --    2.08663   2.09780   2.12508   2.12897   2.14799
 Alpha virt. eigenvalues --    2.16560   2.17991   2.19131   2.20948   2.22864
 Alpha virt. eigenvalues --    2.23811   2.25227   2.27309   2.30132   2.31450
 Alpha virt. eigenvalues --    2.36031   2.36999   2.38750   2.39846   2.45350
 Alpha virt. eigenvalues --    2.47830   2.49582   2.54323   2.55503   2.56196
 Alpha virt. eigenvalues --    2.60252   2.61099   2.63194   2.66749   2.73017
 Alpha virt. eigenvalues --    2.76673   2.82654   2.83656   2.88864   2.91721
 Alpha virt. eigenvalues --    2.99594   3.02251   3.03947   3.60451   3.70477
 Alpha virt. eigenvalues --    3.88146   3.92526   3.97661   4.05652   4.07388
 Alpha virt. eigenvalues --    4.09282   4.10451   4.15003   4.21244   4.25799
 Alpha virt. eigenvalues --    4.31428   4.40503   4.53292   4.54855
          Condensed to atoms (all electrons):
               1          2          3          4          5          6
     1  N    6.930454   0.196755  -0.041364  -0.057352  -0.045351   0.298413
     2  C    0.196755   5.271417   0.297269  -0.085863   0.348028  -0.020785
     3  C   -0.041364   0.297269   4.347295   0.511145  -0.037777   0.000821
     4  O   -0.057352  -0.085863   0.511145   8.125360   0.000428   0.001180
     5  C   -0.045351   0.348028  -0.037777   0.000428   5.128508  -0.000339
     6  H    0.298413  -0.020785   0.000821   0.001180  -0.000339   0.313575
     7  H   -0.036413   0.374845  -0.027681   0.000878  -0.031690   0.003119
     8  H   -0.004259  -0.034498  -0.003254   0.000416   0.378844   0.004277
     9  H   -0.003112  -0.028264   0.003298  -0.000068   0.369438   0.000667
    10  H    0.003692  -0.026820  -0.005204   0.000010   0.365448  -0.000042
    11  H    0.208956  -0.055705  -0.008215   0.100499   0.004244  -0.006449
    12  H    0.301286  -0.016198   0.003152   0.001150   0.001440  -0.014073
    13  N    0.001217  -0.110510   0.346054  -0.081987   0.004674   0.000023
    14  C   -0.000053   0.005264  -0.022790   0.004272  -0.000094   0.000000
    15  C    0.000001  -0.000087   0.004200   0.000347  -0.000017  -0.000000
    16  O    0.000000  -0.000009  -0.000179   0.000001  -0.000008  -0.000000
    17  C   -0.000001  -0.000444  -0.004367  -0.002060   0.000008   0.000000
    18  H    0.000137  -0.001151  -0.022722   0.002151   0.000850  -0.000009
    19  H    0.000012   0.000648  -0.001517   0.005514  -0.000053  -0.000001
    20  H   -0.000000   0.000005   0.000012  -0.000001  -0.000000  -0.000000
    21  H    0.000004   0.000063   0.002902   0.003303  -0.000001  -0.000000
    22  H    0.000000   0.000019   0.000417  -0.000044  -0.000000  -0.000000
    23  N   -0.000000  -0.000008   0.000264  -0.000006   0.000013   0.000000
    24  C    0.000000   0.000000   0.000003   0.000000  -0.000007  -0.000000
    25  C    0.000000  -0.000000  -0.000008  -0.000000   0.000002   0.000000
    26  O   -0.000000  -0.000000   0.000000  -0.000000  -0.000001   0.000000
    27  C    0.000000  -0.000000   0.000000  -0.000000  -0.000000  -0.000000
    28  O   -0.000000  -0.000028   0.000058  -0.000000  -0.002185  -0.000000
    29  H    0.000000   0.000012  -0.000022   0.000000   0.000067   0.000000
    30  H    0.000000   0.000001  -0.000015   0.000000   0.000000  -0.000000
    31  H    0.000000  -0.000000   0.000002  -0.000000   0.000000  -0.000000
    32  H    0.000000   0.000000  -0.000000   0.000000   0.000000  -0.000000
    33  H   -0.000000   0.000000  -0.000000   0.000000  -0.000000   0.000000
    34  H   -0.000000  -0.000000  -0.000000  -0.000000   0.000000   0.000000
               7          8          9         10         11         12
     1  N   -0.036413  -0.004259  -0.003112   0.003692   0.208956   0.301286
     2  C    0.374845  -0.034498  -0.028264  -0.026820  -0.055705  -0.016198
     3  C   -0.027681  -0.003254   0.003298  -0.005204  -0.008215   0.003152
     4  O    0.000878   0.000416  -0.000068   0.000010   0.100499   0.001150
     5  C   -0.031690   0.378844   0.369438   0.365448   0.004244   0.001440
     6  H    0.003119   0.004277   0.000667  -0.000042  -0.006449  -0.014073
     7  H    0.487064   0.004055  -0.003599  -0.002124   0.002707  -0.003580
     8  H    0.004055   0.495438  -0.026550  -0.021081   0.000183  -0.000012
     9  H   -0.003599  -0.026550   0.507455  -0.019821  -0.000169   0.000198
    10  H   -0.002124  -0.021081  -0.019821   0.490583  -0.000095  -0.000099
    11  H    0.002707   0.000183  -0.000169  -0.000095   0.315016  -0.005045
    12  H   -0.003580  -0.000012   0.000198  -0.000099  -0.005045   0.310792
    13  N   -0.000214   0.000043   0.000180   0.001782   0.003883  -0.000008
    14  C   -0.000114  -0.000050   0.000002  -0.000025  -0.000107   0.000001
    15  C   -0.000005   0.000008   0.000000   0.000066  -0.000001  -0.000000
    16  O    0.000000   0.000012   0.000000   0.000016  -0.000000   0.000000
    17  C    0.000031   0.000001   0.000000  -0.000000   0.000012  -0.000000
    18  H    0.000277  -0.000122  -0.000098   0.004694  -0.000114  -0.000004
    19  H   -0.000009  -0.000002  -0.000000  -0.000005  -0.000042   0.000000
    20  H   -0.000000  -0.000000  -0.000000   0.000000  -0.000000   0.000000
    21  H   -0.000006  -0.000000   0.000000   0.000000  -0.000013  -0.000000
    22  H   -0.000002   0.000000  -0.000000  -0.000000  -0.000000   0.000000
    23  N    0.000000   0.000000  -0.000000  -0.000074   0.000000   0.000000
    24  C    0.000000   0.000000   0.000000   0.000024   0.000000  -0.000000
    25  C    0.000000   0.000001  -0.000000   0.000087  -0.000000   0.000000
    26  O    0.000000   0.000000   0.000000   0.000009   0.000000   0.000000
    27  C   -0.000000  -0.000000   0.000000   0.000000   0.000000  -0.000000
    28  O    0.000001   0.000006   0.000013   0.008072   0.000000   0.000000
    29  H    0.000001  -0.000005   0.000001   0.000995  -0.000000  -0.000000
    30  H   -0.000000  -0.000000  -0.000000  -0.000005  -0.000000  -0.000000
    31  H   -0.000000  -0.000000  -0.000000  -0.000003   0.000000  -0.000000
    32  H   -0.000000  -0.000000  -0.000000  -0.000000  -0.000000  -0.000000
    33  H   -0.000000   0.000000   0.000000   0.000000  -0.000000   0.000000
    34  H    0.000000  -0.000000  -0.000000  -0.000000   0.000000  -0.000000
              13         14         15         16         17         18
     1  N    0.001217  -0.000053   0.000001   0.000000  -0.000001   0.000137
     2  C   -0.110510   0.005264  -0.000087  -0.000009  -0.000444  -0.001151
     3  C    0.346054  -0.022790   0.004200  -0.000179  -0.004367  -0.022722
     4  O   -0.081987   0.004272   0.000347   0.000001  -0.002060   0.002151
     5  C    0.004674  -0.000094  -0.000017  -0.000008   0.000008   0.000850
     6  H    0.000023   0.000000  -0.000000  -0.000000   0.000000  -0.000009
     7  H   -0.000214  -0.000114  -0.000005   0.000000   0.000031   0.000277
     8  H    0.000043  -0.000050   0.000008   0.000012   0.000001  -0.000122
     9  H    0.000180   0.000002   0.000000   0.000000   0.000000  -0.000098
    10  H    0.001782  -0.000025   0.000066   0.000016  -0.000000   0.004694
    11  H    0.003883  -0.000107  -0.000001  -0.000000   0.000012  -0.000114
    12  H   -0.000008   0.000001  -0.000000   0.000000  -0.000000  -0.000004
    13  N    7.116070   0.212361  -0.028266  -0.001056  -0.052718   0.271310
    14  C    0.212361   5.109609   0.325377  -0.073050   0.328073  -0.027549
    15  C   -0.028266   0.325377   4.426944   0.591613  -0.031112  -0.006019
    16  O   -0.001056  -0.073050   0.591613   8.033193   0.002471   0.000132
    17  C   -0.052718   0.328073  -0.031112   0.002471   5.144933   0.002067
    18  H    0.271310  -0.027549  -0.006019   0.000132   0.002067   0.348739
    19  H   -0.043442   0.373501  -0.033048   0.005387  -0.035331   0.003905
    20  H    0.004091  -0.031989   0.000181   0.000090   0.375562  -0.000086
    21  H   -0.004935  -0.020783   0.003048  -0.000063   0.369857  -0.000226
    22  H   -0.002689  -0.028658  -0.008192  -0.000033   0.362708   0.000930
    23  N   -0.004797  -0.113341   0.223839  -0.101091   0.003315   0.006088
    24  C   -0.000125   0.005705  -0.018911  -0.000611   0.000017  -0.000732
    25  C   -0.000171  -0.000350  -0.001568   0.000952   0.000022   0.000793
    26  O   -0.000004   0.000001  -0.000034  -0.000006  -0.000000   0.000109
    27  C   -0.000003  -0.000144   0.003467   0.000383  -0.000015   0.000005
    28  O   -0.007020  -0.000551   0.003999  -0.000544   0.000002   0.029660
    29  H    0.000163  -0.000009  -0.000163   0.000011   0.000000  -0.000952
    30  H   -0.000213   0.000137  -0.019850   0.003205   0.002182   0.000645
    31  H   -0.000023   0.000997  -0.000456   0.016531  -0.000066  -0.000012
    32  H    0.000000   0.000002  -0.000047   0.000001   0.000000  -0.000001
    33  H    0.000000  -0.000009   0.000163   0.000009   0.000004  -0.000000
    34  H   -0.000000  -0.000000  -0.000113  -0.000008  -0.000007  -0.000001
              19         20         21         22         23         24
     1  N    0.000012  -0.000000   0.000004   0.000000  -0.000000   0.000000
     2  C    0.000648   0.000005   0.000063   0.000019  -0.000008   0.000000
     3  C   -0.001517   0.000012   0.002902   0.000417   0.000264   0.000003
     4  O    0.005514  -0.000001   0.003303  -0.000044  -0.000006   0.000000
     5  C   -0.000053  -0.000000  -0.000001  -0.000000   0.000013  -0.000007
     6  H   -0.000001  -0.000000  -0.000000  -0.000000   0.000000  -0.000000
     7  H   -0.000009  -0.000000  -0.000006  -0.000002   0.000000   0.000000
     8  H   -0.000002  -0.000000  -0.000000   0.000000   0.000000   0.000000
     9  H   -0.000000  -0.000000   0.000000  -0.000000  -0.000000   0.000000
    10  H   -0.000005   0.000000   0.000000  -0.000000  -0.000074   0.000024
    11  H   -0.000042  -0.000000  -0.000013  -0.000000   0.000000   0.000000
    12  H    0.000000   0.000000  -0.000000   0.000000   0.000000  -0.000000
    13  N   -0.043442   0.004091  -0.004935  -0.002689  -0.004797  -0.000125
    14  C    0.373501  -0.031989  -0.020783  -0.028658  -0.113341   0.005705
    15  C   -0.033048   0.000181   0.003048  -0.008192   0.223839  -0.018911
    16  O    0.005387   0.000090  -0.000063  -0.000033  -0.101091  -0.000611
    17  C   -0.035331   0.375562   0.369857   0.362708   0.003315   0.000017
    18  H    0.003905  -0.000086  -0.000226   0.000930   0.006088  -0.000732
    19  H    0.503137  -0.000669  -0.005421   0.004477   0.005272  -0.000147
    20  H   -0.000669   0.504007  -0.021647  -0.026324   0.000207  -0.000041
    21  H   -0.005421  -0.021647   0.509898  -0.028391  -0.000064   0.000005
    22  H    0.004477  -0.026324  -0.028391   0.567182   0.000827   0.000020
    23  N    0.005272   0.000207  -0.000064   0.000827   7.220547   0.198573
    24  C   -0.000147  -0.000041   0.000005   0.000020   0.198573   5.091568
    25  C   -0.000004   0.000001   0.000000  -0.000012  -0.047683   0.329637
    26  O    0.000000  -0.000000  -0.000000   0.000000   0.002702  -0.070160
    27  C    0.000003   0.000001  -0.000000   0.000006  -0.048612   0.363350
    28  O   -0.000008   0.000000   0.000000  -0.000021  -0.002206  -0.085784
    29  H    0.000000   0.000000   0.000000   0.000000  -0.000332   0.010099
    30  H    0.000120  -0.000249  -0.000199   0.008405   0.292158  -0.029407
    31  H   -0.000003  -0.000002   0.000000   0.000001  -0.045292   0.373154
    32  H   -0.000000  -0.000000   0.000000  -0.000000   0.003760  -0.030115
    33  H   -0.000000   0.000001   0.000000  -0.000001   0.000615  -0.031419
    34  H    0.000000   0.000000  -0.000000  -0.000008  -0.004846  -0.033247
              25         26         27         28         29         30
     1  N    0.000000  -0.000000   0.000000  -0.000000   0.000000   0.000000
     2  C   -0.000000  -0.000000  -0.000000  -0.000028   0.000012   0.000001
     3  C   -0.000008   0.000000   0.000000   0.000058  -0.000022  -0.000015
     4  O   -0.000000  -0.000000  -0.000000  -0.000000   0.000000   0.000000
     5  C    0.000002  -0.000001  -0.000000  -0.002185   0.000067   0.000000
     6  H    0.000000   0.000000  -0.000000  -0.000000   0.000000  -0.000000
     7  H    0.000000   0.000000  -0.000000   0.000001   0.000001  -0.000000
     8  H    0.000001   0.000000  -0.000000   0.000006  -0.000005  -0.000000
     9  H   -0.000000   0.000000   0.000000   0.000013   0.000001  -0.000000
    10  H    0.000087   0.000009   0.000000   0.008072   0.000995  -0.000005
    11  H   -0.000000   0.000000   0.000000   0.000000  -0.000000  -0.000000
    12  H    0.000000   0.000000  -0.000000   0.000000  -0.000000  -0.000000
    13  N   -0.000171  -0.000004  -0.000003  -0.007020   0.000163  -0.000213
    14  C   -0.000350   0.000001  -0.000144  -0.000551  -0.000009   0.000137
    15  C   -0.001568  -0.000034   0.003467   0.003999  -0.000163  -0.019850
    16  O    0.000952  -0.000006   0.000383  -0.000544   0.000011   0.003205
    17  C    0.000022  -0.000000  -0.000015   0.000002   0.000000   0.002182
    18  H    0.000793   0.000109   0.000005   0.029660  -0.000952   0.000645
    19  H   -0.000004   0.000000   0.000003  -0.000008   0.000000   0.000120
    20  H    0.000001  -0.000000   0.000001   0.000000   0.000000  -0.000249
    21  H    0.000000  -0.000000  -0.000000   0.000000   0.000000  -0.000199
    22  H   -0.000012   0.000000   0.000006  -0.000021   0.000000   0.008405
    23  N   -0.047683   0.002702  -0.048612  -0.002206  -0.000332   0.292158
    24  C    0.329637  -0.070160   0.363350  -0.085784   0.010099  -0.029407
    25  C    4.358037   0.586730  -0.041690   0.248703  -0.005129  -0.001559
    26  O    0.586730   7.957289  -0.002389  -0.086430   0.013763  -0.000027
    27  C   -0.041690  -0.002389   5.089814   0.000975  -0.000279  -0.000336
    28  O    0.248703  -0.086430   0.000975   8.293033   0.213250   0.001838
    29  H   -0.005129   0.013763  -0.000279   0.213250   0.349356  -0.000048
    30  H   -0.001559  -0.000027  -0.000336   0.001838  -0.000048   0.396843
    31  H   -0.035378  -0.000353  -0.024421   0.001465  -0.000242   0.004525
    32  H   -0.001766   0.006515   0.373349   0.000203  -0.000022  -0.000152
    33  H    0.004746   0.000145   0.376041  -0.000054   0.000006  -0.000247
    34  H   -0.005492   0.000161   0.373968   0.000331  -0.000043   0.004574
              31         32         33         34
     1  N    0.000000   0.000000  -0.000000  -0.000000
     2  C   -0.000000   0.000000   0.000000  -0.000000
     3  C    0.000002  -0.000000  -0.000000  -0.000000
     4  O   -0.000000   0.000000   0.000000  -0.000000
     5  C    0.000000   0.000000  -0.000000   0.000000
     6  H   -0.000000  -0.000000   0.000000   0.000000
     7  H   -0.000000  -0.000000  -0.000000   0.000000
     8  H   -0.000000  -0.000000   0.000000  -0.000000
     9  H   -0.000000  -0.000000   0.000000  -0.000000
    10  H   -0.000003  -0.000000   0.000000  -0.000000
    11  H    0.000000  -0.000000  -0.000000   0.000000
    12  H   -0.000000  -0.000000   0.000000  -0.000000
    13  N   -0.000023   0.000000   0.000000  -0.000000
    14  C    0.000997   0.000002  -0.000009  -0.000000
    15  C   -0.000456  -0.000047   0.000163  -0.000113
    16  O    0.016531   0.000001   0.000009  -0.000008
    17  C   -0.000066   0.000000   0.000004  -0.000007
    18  H   -0.000012  -0.000001  -0.000000  -0.000001
    19  H   -0.000003  -0.000000  -0.000000   0.000000
    20  H   -0.000002  -0.000000   0.000001   0.000000
    21  H    0.000000   0.000000   0.000000  -0.000000
    22  H    0.000001  -0.000000  -0.000001  -0.000008
    23  N   -0.045292   0.003760   0.000615  -0.004846
    24  C    0.373154  -0.030115  -0.031419  -0.033247
    25  C   -0.035378  -0.001766   0.004746  -0.005492
    26  O   -0.000353   0.006515   0.000145   0.000161
    27  C   -0.024421   0.373349   0.376041   0.373968
    28  O    0.001465   0.000203  -0.000054   0.000331
    29  H   -0.000242  -0.000022   0.000006  -0.000043
    30  H    0.004525  -0.000152  -0.000247   0.004574
    31  H    0.474788  -0.001685  -0.004904   0.003969
    32  H   -0.001685   0.489498  -0.020686  -0.024601
    33  H   -0.004904  -0.020686   0.517561  -0.029336
    34  H    0.003969  -0.024601  -0.029336   0.558668
 Mulliken charges:
               1
     1  N   -0.753020
     2  C   -0.113954
     3  C    0.658225
     4  O   -0.529273
     5  C   -0.484470
     6  H    0.419622
     7  H    0.232461
     8  H    0.206548
     9  H    0.200427
    10  H    0.199919
    11  H    0.440456
    12  H    0.421000
    13  N   -0.623674
    14  C   -0.045636
    15  C    0.564633
    16  O   -0.477350
    17  C   -0.465146
    18  H    0.387308
    19  H    0.217728
    20  H    0.196850
    21  H    0.192669
    22  H    0.149381
    23  N   -0.589829
    24  C   -0.071447
    25  C    0.611098
    26  O   -0.408023
    27  C   -0.463474
    28  O   -0.616777
    29  H    0.419521
    30  H    0.337673
    31  H    0.237409
    32  H    0.205746
    33  H    0.187366
    34  H    0.156031
 Sum of Mulliken charges =   1.00000
 Mulliken charges with hydrogens summed into heavy atoms:
               1
     1  N    0.528058
     2  C    0.118506
     3  C    0.658225
     4  O   -0.529273
     5  C    0.122425
    13  N   -0.236366
    14  C    0.172092
    15  C    0.564633
    16  O   -0.477350
    17  C    0.073755
    23  N   -0.252156
    24  C    0.165963
    25  C    0.611098
    26  O   -0.408023
    27  C    0.085668
    28  O   -0.197256
 Electronic spatial extent (au):  <R**2>=         122233.7611
 Charge=              1.0000 electrons
 Dipole moment (field-independent basis, Debye):
    X=             -8.5118    Y=            -63.2045    Z=            -42.2067  Tot=             76.4766
 Quadrupole moment (field-independent basis, Debye-Ang):
   XX=            -60.9618   YY=            731.6243   ZZ=            312.1662
   XY=            113.7717   XZ=             98.9118   YZ=            554.0890
 Traceless Quadrupole moment (field-independent basis, Debye-Ang):
   XX=           -388.5714   YY=            404.0147   ZZ=            -15.4434
   XY=            113.7717   XZ=             98.9118   YZ=            554.0890
 Octapole moment (field-independent basis, Debye-Ang**2):
  XXX=            -22.3890  YYY=          -6495.9729  ZZZ=          -2200.3425  XYY=          -1514.9948
  XXY=            940.8130  XXZ=            336.2473  XZZ=          -1052.0120  YZZ=          -3951.5597
  YYZ=          -6593.8993  XYZ=          -1343.9848
 Hexadecapole moment (field-independent basis, Debye-Ang**3):
 XXXX=          -1232.2195 YYYY=          11362.4584 ZZZZ=          13701.6771 XXXY=            306.4940
 XXXZ=             49.7124 YYYX=          20093.0852 YYYZ=          65800.7162 ZZZX=          10803.2881
 ZZZY=          26537.5849 XXYY=         -14826.3919 XXZZ=          -2232.5333 YYZZ=          44434.5519
 XXYZ=          -5151.5593 YYXZ=          18229.4849 ZZXY=          14263.5213
 N-N= 1.208820525271D+03 E-N=-4.310957874447D+03  KE= 8.113416381787D+02
 Unable to Open any file for archive entry.
 1\1\GINC-AMR-130\SP\RB3LYP\6-31G(d)\C9H18N3O4(1+)\KENGMITH\04-Jun-2022
 \0\\# B3LYP/6-31G* empiricaldispersion=gd3 guess=read geom=check nosym
 m integral(ultrafinegrid)\\Candidate Structure: Conf:472 Charge calc i
 n gas phase\\1,1\N,0,-2.1085227363,-13.2720676024,-10.7659416207\C,0,-
 1.9760866023,-13.5118831972,-9.2725196342\C,0,-0.4397206271,-13.703680
 4582,-9.1007287596\O,0,0.2761569065,-13.5056543419,-10.0919246414\C,0,
 -2.8260431193,-14.6949967204,-8.8170021161\H,0,-2.4752861862,-14.09419
 12351,-11.2569914969\H,0,-2.2798386371,-12.5850171942,-8.7768787555\H,
 0,-2.5009016324,-15.6224047238,-9.3012393338\H,0,-3.8866513884,-14.526
 2787282,-9.0273561861\H,0,-2.7210386931,-14.8396089089,-7.7386663689\H
 ,0,-1.0929846355,-13.1378739397,-11.0599444552\H,0,-2.6860112765,-12.4
 63564554,-11.0103758286\N,0,-0.0072720091,-14.069090559,-7.8978702671\
 C,0,1.4033768782,-14.4553247255,-7.6453225066\C,0,1.2724069057,-15.573
 5276681,-6.5937852601\O,0,1.1414418102,-16.7361258262,-6.9379522067\C,
 0,2.2754755412,-13.2482017651,-7.2999972134\H,0,-0.6657770967,-14.2357
 041978,-7.140750169\H,0,1.7701660325,-14.933755379,-8.5553587515\H,0,3
 .2917406931,-13.5746418483,-7.059363223\H,0,2.3242281186,-12.574284388
 6,-8.1598043305\H,0,1.8808573782,-12.6770869099,-6.4518610354\N,0,1.15
 68910276,-15.1472602212,-5.3006372225\C,0,0.5474141736,-15.9886107164,
 -4.286732122\C,0,-0.9782701068,-15.8503322983,-4.2561686092\O,0,-1.678
 80215,-16.3763590276,-3.464033164\C,0,1.1260368048,-15.7238661491,-2.8
 921144261\O,0,-1.5000546975,-15.0349192083,-5.2379758382\H,0,-2.460512
 0291,-15.0323182528,-5.0572012772\H,0,1.2390632781,-14.1612995012,-5.0
 933155454\H,0,0.7433096536,-17.0256166092,-4.5773991095\H,0,0.62489787
 63,-16.3573009388,-2.1574118896\H,0,2.1962754577,-15.9447704486,-2.889
 4373642\H,0,0.9819883375,-14.6781049069,-2.5956317115\\Version=ES64L-G
 16RevC.01\HF=-818.7952093\RMSD=2.137e-09\Dipole=-2.9846059,3.0350222,-
 3.5662675\Quadrupole=-288.8933034,300.3750597,-11.4817563,84.5864597,7
 3.5384749,411.9515823\PG=C01 [X(C9H18N3O4)]\\@
 The archive entry for this job was punched.


 You don't have to suffer to be a poet.
 Adolescence is enough suffering for anyone.
                             -- John Ciardi
 Job cpu time:       0 days  0 hours  0 minutes 18.8 seconds.
 Elapsed time:       0 days  0 hours  0 minutes  5.0 seconds.
 File lengths (MBytes):  RWF=    168 Int=      0 D2E=      0 Chk=     16 Scr=     16
 Normal termination of Gaussian 16 at Sat Jun  4 16:59:04 2022.
