 Entering Gaussian System, Link 0=/opt/software/Gaussian/g16-AVX2-C.01/g16/g16
 Input=charge-conf-883.com
 Output=charge-conf-883.log
 Initial command:
 /opt/software/Gaussian/g16-AVX2-C.01/g16/l1.exe "/mnt/gs18/scratch/users/kengmith/Gau-29251.inp" -scrdir="/mnt/gs18/scratch/users/kengmith/"
 Entering Link 1 = /opt/software/Gaussian/g16-AVX2-C.01/g16/l1.exe PID=     29278.
  
 Copyright (c) 1988-2019, Gaussian, Inc.  All Rights Reserved.
  
 This is part of the Gaussian(R) 16 program.  It is based on
 the Gaussian(R) 09 system (copyright 2009, Gaussian, Inc.),
 the Gaussian(R) 03 system (copyright 2003, Gaussian, Inc.),
 the Gaussian(R) 98 system (copyright 1998, Gaussian, Inc.),
 the Gaussian(R) 94 system (copyright 1995, Gaussian, Inc.),
 the Gaussian 92(TM) system (copyright 1992, Gaussian, Inc.),
 the Gaussian 90(TM) system (copyright 1990, Gaussian, Inc.),
 the Gaussian 88(TM) system (copyright 1988, Gaussian, Inc.),
 the Gaussian 86(TM) system (copyright 1986, Carnegie Mellon
 University), and the Gaussian 82(TM) system (copyright 1983,
 Carnegie Mellon University). Gaussian is a federally registered
 trademark of Gaussian, Inc.
  
 This software contains proprietary and confidential information,
 including trade secrets, belonging to Gaussian, Inc.
  
 This software is provided under written license and may be
 used, copied, transmitted, or stored only in accord with that
 written license.
  
 The following legend is applicable only to US Government
 contracts under FAR:
  
                    RESTRICTED RIGHTS LEGEND
  
 Use, reproduction and disclosure by the US Government is
 subject to restrictions as set forth in subparagraphs (a)
 and (c) of the Commercial Computer Software - Restricted
 Rights clause in FAR 52.227-19.
  
 Gaussian, Inc.
 340 Quinnipiac St., Bldg. 40, Wallingford CT 06492
  
  
 ---------------------------------------------------------------
 Warning -- This program may not be used in any manner that
 competes with the business of Gaussian, Inc. or will provide
 assistance to any competitor of Gaussian, Inc.  The licensee
 of this program is prohibited from giving any competitor of
 Gaussian, Inc. access to this program.  By using this program,
 the user acknowledges that Gaussian, Inc. is engaged in the
 business of creating and licensing software in the field of
 computational chemistry and represents and warrants to the
 licensee that it is not a competitor of Gaussian, Inc. and that
 it will not use this program in any manner prohibited above.
 ---------------------------------------------------------------
  

 Cite this work as:
 Gaussian 16, Revision C.01,
 M. J. Frisch, G. W. Trucks, H. B. Schlegel, G. E. Scuseria, 
 M. A. Robb, J. R. Cheeseman, G. Scalmani, V. Barone, 
 G. A. Petersson, H. Nakatsuji, X. Li, M. Caricato, A. V. Marenich, 
 J. Bloino, B. G. Janesko, R. Gomperts, B. Mennucci, H. P. Hratchian, 
 J. V. Ortiz, A. F. Izmaylov, J. L. Sonnenberg, D. Williams-Young, 
 F. Ding, F. Lipparini, F. Egidi, J. Goings, B. Peng, A. Petrone, 
 T. Henderson, D. Ranasinghe, V. G. Zakrzewski, J. Gao, N. Rega, 
 G. Zheng, W. Liang, M. Hada, M. Ehara, K. Toyota, R. Fukuda, 
 J. Hasegawa, M. Ishida, T. Nakajima, Y. Honda, O. Kitao, H. Nakai, 
 T. Vreven, K. Throssell, J. A. Montgomery, Jr., J. E. Peralta, 
 F. Ogliaro, M. J. Bearpark, J. J. Heyd, E. N. Brothers, K. N. Kudin, 
 V. N. Staroverov, T. A. Keith, R. Kobayashi, J. Normand, 
 K. Raghavachari, A. P. Rendell, J. C. Burant, S. S. Iyengar, 
 J. Tomasi, M. Cossi, J. M. Millam, M. Klene, C. Adamo, R. Cammi, 
 J. W. Ochterski, R. L. Martin, K. Morokuma, O. Farkas, 
 J. B. Foresman, and D. J. Fox, Gaussian, Inc., Wallingford CT, 2019.
 
 ******************************************
 Gaussian 16:  ES64L-G16RevC.01  3-Jul-2019
                 4-Jun-2022 
 ******************************************
 %mem=8gb
 %nproc=4
 Will use up to    4 processors via shared memory.
 %chk=conf-883.chk
 ----------------------------------------------------------------------
 # B3LYP/6-31G* empiricaldispersion=gd3 guess=read geom=check nosymm in
 tegral(ultrafinegrid)
 ----------------------------------------------------------------------
 1/29=2,38=1,172=1/1;
 2/12=2,15=1,40=1/2;
 3/5=1,6=6,7=1,11=2,14=-4,25=1,30=1,74=-5,75=-5,116=-2,124=31/1,2,3;
 4/5=1/1;
 5/5=2,38=6/2;
 6/7=2,8=2,9=2,10=2,28=1/1;
 99/5=1,9=1/99;
 ------------------------------------------------------
 Candidate Structure: Conf:883 Charge calc in gas phase
 ------------------------------------------------------
 Structure from the checkpoint file:  "conf-883.chk"
 Charge =  1 Multiplicity = 1
 Redundant internal coordinates found in file.  (old form).
 N,0,1.2659581126,-12.5815711922,-9.1051449816
 C,0,1.7152955709,-12.593231456,-7.6585784451
 C,0,1.6362894143,-14.1015037344,-7.3075992059
 O,0,1.7202640582,-14.9088062549,-8.2325900074
 C,0,0.8659194079,-11.6385167013,-6.8278167942
 H,0,1.6831728019,-13.4280355996,-9.5360365034
 H,0,2.7675340514,-12.2886240477,-7.6606294323
 H,0,1.2389098387,-11.5953206627,-5.8003449698
 H,0,-0.1806637005,-11.9558388585,-6.8186335321
 H,0,0.9230408018,-10.6188144704,-7.2222736002
 H,0,1.528578742,-11.7290820287,-9.6057677682
 H,0,0.2362944761,-12.7362358175,-9.1429719673
 N,0,1.4322116701,-14.4560346578,-6.0263776685
 C,0,1.141801071,-15.8629865069,-5.6917038536
 C,0,-0.12301663,-16.3470255716,-6.4396410907
 O,0,-0.2178814272,-17.4920182893,-6.8365708516
 C,0,0.9958972821,-16.0283679731,-4.1788478535
 H,0,1.4155693113,-13.7630497536,-5.2901651448
 H,0,1.9530150772,-16.4875662248,-6.0726842583
 H,0,0.7737105016,-17.0741370485,-3.9526361534
 H,0,1.9230822922,-15.7564220133,-3.6637979175
 H,0,0.174768391,-15.4159705513,-3.7881646482
 N,0,-1.1196354176,-15.4073016758,-6.5633160027
 C,0,-2.1926370794,-15.560312406,-7.5224105404
 C,0,-2.0160559543,-14.5402624482,-8.6429952649
 O,0,-1.2586627156,-13.5740126496,-8.593085871
 C,0,-3.5875140731,-15.4176311861,-6.8849218502
 O,0,-2.8151627917,-14.7860784555,-9.6755004972
 H,0,-2.7094180295,-14.0838301756,-10.3457733074
 H,0,-0.9077265271,-14.4588480138,-6.2881700874
 H,0,-2.0928231128,-16.5597127742,-7.9581723134
 H,0,-3.6985773511,-16.1794282812,-6.1097496487
 H,0,-3.7083914229,-14.4312546544,-6.4233267625
 H,0,-4.3723228396,-15.5541533655,-7.6334063567
 Recover connectivity data from disk.
                           ----------------------------
                           !    Current Parameters    !
                           ! (Angstroms and Degrees)  !
 --------------------------                            --------------------------
 ! Name  Definition              Value                                          !
 --------------------------------------------------------------------------------
 ! R1    R(1,2)                  1.5148                                         !
 ! R2    R(1,6)                  1.0374                                         !
 ! R3    R(1,11)                 1.0229                                         !
 ! R4    R(1,12)                 1.0419                                         !
 ! R5    R(2,3)                  1.5506                                         !
 ! R6    R(2,5)                  1.5242                                         !
 ! R7    R(2,7)                  1.0954                                         !
 ! R8    R(3,4)                  1.2306                                         !
 ! R9    R(3,13)                 1.3449                                         !
 ! R10   R(5,8)                  1.0939                                         !
 ! R11   R(5,9)                  1.0937                                         !
 ! R12   R(5,10)                 1.0948                                         !
 ! R13   R(13,14)                1.4751                                         !
 ! R14   R(13,18)                1.0112                                         !
 ! R15   R(14,15)                1.5471                                         !
 ! R16   R(14,17)                1.5288                                         !
 ! R17   R(14,19)                1.0924                                         !
 ! R18   R(15,16)                1.2155                                         !
 ! R19   R(15,23)                1.3754                                         !
 ! R20   R(17,20)                1.0928                                         !
 ! R21   R(17,21)                1.0949                                         !
 ! R22   R(17,22)                1.0963                                         !
 ! R23   R(23,24)                1.4473                                         !
 ! R24   R(23,30)                1.01                                           !
 ! R25   R(24,25)                1.5256                                         !
 ! R26   R(24,27)                1.5403                                         !
 ! R27   R(24,31)                1.0948                                         !
 ! R28   R(25,26)                1.2287                                         !
 ! R29   R(25,28)                1.3286                                         !
 ! R30   R(27,32)                1.0925                                         !
 ! R31   R(27,33)                1.0957                                         !
 ! R32   R(27,34)                1.0931                                         !
 ! R33   R(28,29)                0.9765                                         !
 ! A1    A(2,1,6)              105.7277                                         !
 ! A2    A(2,1,11)             113.43                                           !
 ! A3    A(2,1,12)             109.0672                                         !
 ! A4    A(6,1,11)             111.9298                                         !
 ! A5    A(6,1,12)             105.1438                                         !
 ! A6    A(11,1,12)            111.0799                                         !
 ! A7    A(1,2,3)              102.0363                                         !
 ! A8    A(1,2,5)              110.5108                                         !
 ! A9    A(1,2,7)              106.3202                                         !
 ! A10   A(3,2,5)              117.2273                                         !
 ! A11   A(3,2,7)              108.6536                                         !
 ! A12   A(5,2,7)              111.2315                                         !
 ! A13   A(2,3,4)              117.678                                          !
 ! A14   A(2,3,13)             118.6704                                         !
 ! A15   A(4,3,13)             123.6052                                         !
 ! A16   A(2,5,8)              110.2838                                         !
 ! A17   A(2,5,9)              110.8618                                         !
 ! A18   A(2,5,10)             110.9742                                         !
 ! A19   A(8,5,9)              109.2599                                         !
 ! A20   A(8,5,10)             106.4892                                         !
 ! A21   A(9,5,10)             108.8558                                         !
 ! A22   A(3,13,14)            119.8307                                         !
 ! A23   A(3,13,18)            121.0252                                         !
 ! A24   A(14,13,18)           119.0279                                         !
 ! A25   A(13,14,15)           110.4685                                         !
 ! A26   A(13,14,17)           110.2721                                         !
 ! A27   A(13,14,19)           108.664                                          !
 ! A28   A(15,14,17)           111.5016                                         !
 ! A29   A(15,14,19)           105.0477                                         !
 ! A30   A(17,14,19)           110.7402                                         !
 ! A31   A(14,15,16)           121.0899                                         !
 ! A32   A(14,15,23)           114.9682                                         !
 ! A33   A(16,15,23)           123.8955                                         !
 ! A34   A(14,17,20)           109.1331                                         !
 ! A35   A(14,17,21)           110.9646                                         !
 ! A36   A(14,17,22)           111.3267                                         !
 ! A37   A(20,17,21)           108.2086                                         !
 ! A38   A(20,17,22)           107.9694                                         !
 ! A39   A(21,17,22)           109.1395                                         !
 ! A40   A(15,23,24)           121.6403                                         !
 ! A41   A(15,23,30)           117.7149                                         !
 ! A42   A(24,23,30)           115.8075                                         !
 ! A43   A(23,24,25)           109.2847                                         !
 ! A44   A(23,24,27)           112.7892                                         !
 ! A45   A(23,24,31)           107.0184                                         !
 ! A46   A(25,24,27)           110.2973                                         !
 ! A47   A(25,24,31)           107.9051                                         !
 ! A48   A(27,24,31)           109.3814                                         !
 ! A49   A(24,25,26)           124.5629                                         !
 ! A50   A(24,25,28)           112.1799                                         !
 ! A51   A(26,25,28)           123.2179                                         !
 ! A52   A(24,27,32)           108.7316                                         !
 ! A53   A(24,27,33)           110.9558                                         !
 ! A54   A(24,27,34)           110.808                                          !
 ! A55   A(32,27,33)           108.517                                          !
 ! A56   A(32,27,34)           109.0128                                         !
 ! A57   A(33,27,34)           108.7654                                         !
 ! A58   A(25,28,29)           109.5874                                         !
 ! D1    D(6,1,2,3)            -38.6035                                         !
 ! D2    D(6,1,2,5)           -164.0002                                         !
 ! D3    D(6,1,2,7)             75.1747                                         !
 ! D4    D(11,1,2,3)          -161.6214                                         !
 ! D5    D(11,1,2,5)            72.9819                                         !
 ! D6    D(11,1,2,7)           -47.8432                                         !
 ! D7    D(12,1,2,3)            74.0087                                         !
 ! D8    D(12,1,2,5)           -51.3879                                         !
 ! D9    D(12,1,2,7)          -172.213                                          !
 ! D10   D(1,2,3,4)             24.2998                                         !
 ! D11   D(1,2,3,13)          -153.3121                                         !
 ! D12   D(5,2,3,4)            145.1376                                         !
 ! D13   D(5,2,3,13)           -32.4743                                         !
 ! D14   D(7,2,3,4)            -87.7387                                         !
 ! D15   D(7,2,3,13)            94.6493                                         !
 ! D16   D(1,2,5,8)           -175.9338                                         !
 ! D17   D(1,2,5,9)             62.9227                                         !
 ! D18   D(1,2,5,10)           -58.1748                                         !
 ! D19   D(3,2,5,8)             67.7787                                         !
 ! D20   D(3,2,5,9)            -53.3648                                         !
 ! D21   D(3,2,5,10)          -174.4623                                         !
 ! D22   D(7,2,5,8)            -58.0804                                         !
 ! D23   D(7,2,5,9)           -179.2238                                         !
 ! D24   D(7,2,5,10)            59.6786                                         !
 ! D25   D(2,3,13,14)          170.4172                                         !
 ! D26   D(2,3,13,18)           -5.6242                                         !
 ! D27   D(4,3,13,14)           -7.0435                                         !
 ! D28   D(4,3,13,18)          176.9151                                         !
 ! D29   D(3,13,14,15)         -58.2252                                         !
 ! D30   D(3,13,14,17)         178.0691                                         !
 ! D31   D(3,13,14,19)          56.5198                                         !
 ! D32   D(18,13,14,15)        117.8953                                         !
 ! D33   D(18,13,14,17)         -5.8103                                         !
 ! D34   D(18,13,14,19)       -127.3597                                         !
 ! D35   D(13,14,15,16)        145.244                                          !
 ! D36   D(13,14,15,23)        -37.1386                                         !
 ! D37   D(17,14,15,16)        -91.7633                                         !
 ! D38   D(17,14,15,23)         85.8541                                         !
 ! D39   D(19,14,15,16)         28.2395                                         !
 ! D40   D(19,14,15,23)       -154.1431                                         !
 ! D41   D(13,14,17,20)        179.5628                                         !
 ! D42   D(13,14,17,21)        -61.2855                                         !
 ! D43   D(13,14,17,22)         60.4848                                         !
 ! D44   D(15,14,17,20)         56.458                                          !
 ! D45   D(15,14,17,21)        175.6097                                         !
 ! D46   D(15,14,17,22)        -62.62                                           !
 ! D47   D(19,14,17,20)        -60.1288                                         !
 ! D48   D(19,14,17,21)         59.0229                                         !
 ! D49   D(19,14,17,22)       -179.2068                                         !
 ! D50   D(14,15,23,24)        163.0197                                         !
 ! D51   D(14,15,23,30)          8.6863                                         !
 ! D52   D(16,15,23,24)        -19.4384                                         !
 ! D53   D(16,15,23,30)       -173.7718                                         !
 ! D54   D(15,23,24,25)       -109.3132                                         !
 ! D55   D(15,23,24,27)        127.6186                                         !
 ! D56   D(15,23,24,31)          7.2849                                         !
 ! D57   D(30,23,24,25)         45.4777                                         !
 ! D58   D(30,23,24,27)        -77.5905                                         !
 ! D59   D(30,23,24,31)        162.0759                                         !
 ! D60   D(23,24,25,26)        -13.9365                                         !
 ! D61   D(23,24,25,28)        168.2848                                         !
 ! D62   D(27,24,25,26)        110.6012                                         !
 ! D63   D(27,24,25,28)        -67.1775                                         !
 ! D64   D(31,24,25,26)       -129.9707                                         !
 ! D65   D(31,24,25,28)         52.2506                                         !
 ! D66   D(23,24,27,32)        -59.3194                                         !
 ! D67   D(23,24,27,33)         59.9533                                         !
 ! D68   D(23,24,27,34)       -179.1124                                         !
 ! D69   D(25,24,27,32)        178.1781                                         !
 ! D70   D(25,24,27,33)        -62.5491                                         !
 ! D71   D(25,24,27,34)         58.3852                                         !
 ! D72   D(31,24,27,32)         59.6493                                         !
 ! D73   D(31,24,27,33)        178.9221                                         !
 ! D74   D(31,24,27,34)        -60.1436                                         !
 ! D75   D(24,25,28,29)        176.7095                                         !
 ! D76   D(26,25,28,29)         -1.104                                          !
 --------------------------------------------------------------------------------
                          Input orientation:                          
 ---------------------------------------------------------------------
 Center     Atomic      Atomic             Coordinates (Angstroms)
 Number     Number       Type             X           Y           Z
 ---------------------------------------------------------------------
      1          7           0        1.265958  -12.581571   -9.105145
      2          6           0        1.715296  -12.593231   -7.658578
      3          6           0        1.636289  -14.101504   -7.307599
      4          8           0        1.720264  -14.908806   -8.232590
      5          6           0        0.865919  -11.638517   -6.827817
      6          1           0        1.683173  -13.428036   -9.536037
      7          1           0        2.767534  -12.288624   -7.660629
      8          1           0        1.238910  -11.595321   -5.800345
      9          1           0       -0.180664  -11.955839   -6.818634
     10          1           0        0.923041  -10.618814   -7.222274
     11          1           0        1.528579  -11.729082   -9.605768
     12          1           0        0.236294  -12.736236   -9.142972
     13          7           0        1.432212  -14.456035   -6.026378
     14          6           0        1.141801  -15.862987   -5.691704
     15          6           0       -0.123017  -16.347026   -6.439641
     16          8           0       -0.217881  -17.492018   -6.836571
     17          6           0        0.995897  -16.028368   -4.178848
     18          1           0        1.415569  -13.763050   -5.290165
     19          1           0        1.953015  -16.487566   -6.072684
     20          1           0        0.773711  -17.074137   -3.952636
     21          1           0        1.923082  -15.756422   -3.663798
     22          1           0        0.174768  -15.415971   -3.788165
     23          7           0       -1.119635  -15.407302   -6.563316
     24          6           0       -2.192637  -15.560312   -7.522411
     25          6           0       -2.016056  -14.540262   -8.642995
     26          8           0       -1.258663  -13.574013   -8.593086
     27          6           0       -3.587514  -15.417631   -6.884922
     28          8           0       -2.815163  -14.786078   -9.675500
     29          1           0       -2.709418  -14.083830  -10.345773
     30          1           0       -0.907727  -14.458848   -6.288170
     31          1           0       -2.092823  -16.559713   -7.958172
     32          1           0       -3.698577  -16.179428   -6.109750
     33          1           0       -3.708391  -14.431255   -6.423327
     34          1           0       -4.372323  -15.554153   -7.633406
 ---------------------------------------------------------------------
                    Distance matrix (angstroms):
                    1          2          3          4          5
     1  N    0.000000
     2  C    1.514792   0.000000
     3  C    2.382963   1.550585   0.000000
     4  O    2.526612   2.385666   1.230608   0.000000
     5  C    2.497120   1.524167   2.624875   3.660340   0.000000
     6  H    1.037419   2.054940   2.328452   1.973076   3.347347
     7  H    2.104085   1.095443   2.165843   2.879109   2.175398
     8  H    3.448931   2.162360   2.951386   4.138442   1.093931
     9  H    2.777119   2.169433   2.853819   3.785871   1.093670
    10  H    2.741388   2.171716   3.555999   4.478876   1.094830
    11  H    1.022903   2.138496   3.304779   3.468862   2.857329
    12  H    1.041902   2.100314   2.681890   2.784066   2.638439
    13  N    3.608332   2.492840   1.344942   2.270539   2.983521
    14  C    4.736526   3.858599   2.440995   2.775100   4.383265
    15  C    4.817967   4.353868   2.981757   2.946324   4.826876
    16  O    5.608984   5.330195   3.892994   3.518275   5.952998
    17  C    6.018450   4.942289   3.729878   4.267429   5.128813
    18  H    3.996542   2.658513   2.057501   3.172296   2.679576
    19  H    4.992461   4.211581   2.705296   2.685489   5.026458
    20  H    6.853744   5.890595   4.564687   4.889031   6.149889
    21  H    6.334015   5.099728   4.012268   4.651177   5.299599
    22  H    6.123299   5.032016   4.031164   4.732725   4.897584
    23  N    4.487394   4.141911   3.139138   3.331667   4.268036
    24  C    4.831131   4.908569   4.103041   4.029840   5.021724
    25  C    3.849892   4.322382   3.913492   3.776817   4.474459
    26  O    2.760590   3.267975   3.211148   3.284149   3.372858
    27  C    6.043908   6.057687   5.403607   5.499784   5.841065
    28  O    4.673404   5.422325   5.088322   4.761003   5.618435
    29  H    4.427139   5.387113   5.302451   4.976767   5.580198
    30  H    4.022987   3.498398   2.763865   3.299934   3.375101
    31  H    5.331282   5.506768   4.513570   4.164184   5.852353
    32  H    6.823751   6.676054   5.849224   5.956910   6.478436
    33  H    5.946228   5.858375   5.427365   5.742107   5.374692
    34  H    6.541595   6.769549   6.190296   6.155900   6.589413
                    6          7          8          9         10
     6  H    0.000000
     7  H    2.447703   0.000000
     8  H    4.184687   2.505598   0.000000
     9  H    3.609090   3.084084   1.783837   0.000000
    10  H    3.717933   2.526376   1.753630   1.780091   0.000000
    11  H    1.707397   2.373112   3.818775   3.277353   2.698224
    12  H    1.651225   2.967300   3.671523   2.487051   2.940098
    13  N    3.665715   3.025150   2.876133   3.078963   4.051380
    14  C    4.582681   4.392692   4.270153   4.276060   5.467343
    15  C    4.622822   5.129982   4.984199   4.407888   5.875300
    16  O    5.236132   6.055336   6.161741   5.536334   6.977922
    17  C    5.994460   5.408067   4.726544   4.993822   6.207336
    18  H    4.267466   3.101748   2.233952   2.854853   3.723150
    19  H    4.629077   4.562469   4.951584   5.064146   6.068332
    20  H    6.730196   6.373828   5.800678   5.943210   7.237680
    21  H    6.321560   5.358487   4.727334   5.368721   6.329127
    22  H    6.266195   5.612371   4.447317   4.613305   5.946909
    23  N    4.539856   5.102973   4.547094   3.586008   5.247510
    24  C    4.860370   5.943597   5.519256   4.187549   5.849439
    25  C    3.964702   5.377514   5.229545   3.657350   5.102401
    26  O    3.092711   4.328043   4.237038   2.632347   3.920734
    27  C    6.226318   7.125942   6.251458   4.857472   6.594509
    28  O    4.700931   6.439215   6.452385   4.807549   6.112166
    29  H    4.514487   6.358441   6.514821   4.833597   5.912473
    30  H    4.280651   4.483420   3.611898   2.659900   4.355470
    31  H    5.153174   6.477175   6.356245   5.113762   6.703078
    32  H    6.947866   7.704167   6.744520   5.542287   7.315565
    33  H    6.305900   6.932488   5.736412   4.327680   6.051709
    34  H    6.693983   7.851241   7.107630   5.584060   7.250343
                   11         12         13         14         15
    11  H    0.000000
    12  H    1.702509   0.000000
    13  N    4.500843   3.755141   0.000000
    14  C    5.706020   4.744235   1.475079   0.000000
    15  C    5.837596   4.524920   2.483016   1.547084   0.000000
    16  O    6.627972   5.305019   3.549143   2.411058   1.215550
    17  C    6.943995   6.004803   2.464948   1.528847   2.542577
    18  H    4.772234   4.158023   1.011194   2.155439   3.219545
    19  H    5.941885   5.142594   2.097737   1.092389   2.112893
    20  H    7.816479   6.785705   3.404187   2.150984   2.741898
    21  H    7.189027   6.479825   2.741121   2.175812   3.498662
    22  H    7.019292   5.988216   2.740846   2.181384   2.825928
    23  N    5.458832   3.953197   2.775813   2.466060   1.375364
    24  C    5.732901   4.062184   4.073950   3.815963   2.464678
    25  C    4.625376   2.928749   4.329472   4.520153   3.420930
    26  O    3.492565   1.799762   3.821879   4.406773   3.690070
    27  C    6.868974   5.187503   5.182607   4.897809   3.614525
    28  O    5.312079   3.714409   5.609386   5.717336   4.489431
    29  H    4.904392   3.455425   5.995733   6.297432   5.202826
    30  H    4.938994   3.525063   2.354539   2.554983   2.050348
    31  H    6.258124   4.631146   4.536867   4.010623   2.496259
    32  H    7.703953   6.044769   5.413135   4.868692   3.594656
    33  H    6.697427   5.082333   5.155966   5.109745   4.065139
    34  H    7.303562   5.608815   6.122175   5.854157   4.484454
                   16         17         18         19         20
    16  O    0.000000
    17  C    3.267877   0.000000
    18  H    4.354852   2.557893   0.000000
    19  H    2.511023   2.171072   2.885164   0.000000
    20  H    3.078142   1.092782   3.628259   2.495882   0.000000
    21  H    4.202679   1.094944   2.622246   2.517578   1.772246
    22  H    3.709033   1.096320   2.554944   3.086990   1.770677
    23  N    2.287766   3.247598   3.278985   3.293763   3.630255
    24  C    2.846318   4.643839   4.607844   4.488645   4.882025
    25  C    3.899931   5.587033   4.860204   5.113904   6.016875
    26  O    4.418070   5.531040   4.254003   5.015585   6.157531
    27  C    3.957252   5.357564   5.505609   5.701049   5.510226
    28  O    4.703988   6.802988   6.178742   6.213764   7.132068
    29  H    5.489809   7.452621   6.532809   6.765761   7.870599
    30  H    3.158600   3.245985   2.622566   3.513684   3.888661
    31  H    2.375414   4.909767   5.220000   4.464199   4.952370
    32  H    3.790304   5.078316   5.715339   5.660108   5.045295
    33  H    4.660762   5.451494   5.290135   6.033481   5.760067
    34  H    4.652919   6.401300   6.496039   6.581566   6.506925
                   21         22         23         24         25
    21  H    0.000000
    22  H    1.785490   0.000000
    23  N    4.217490   3.062192   0.000000
    24  C    5.645042   4.423803   1.447276   0.000000
    25  C    6.464384   5.397773   2.424952   1.525580   0.000000
    26  O    6.259736   5.341798   2.738657   2.442139   1.228729
    27  C    6.391955   4.872851   2.488767   1.540270   2.515965
    28  O    7.715770   6.633037   3.598114   2.371239   1.328557
    29  H    8.300989   7.286656   4.311145   3.227761   1.894343
    30  H    4.072408   2.887543   1.010037   2.094652   2.603886
    31  H    5.934174   4.882528   2.054451   1.094830   2.133789
    32  H    6.145297   4.579894   2.729990   2.155637   3.454718
    33  H    6.409724   4.795068   2.770185   2.186382   2.793351
    34  H    7.445188   5.956594   3.427336   2.182519   2.756672
                   26         27         28         29         30
    26  O    0.000000
    27  C    3.426412   0.000000
    28  O    2.250204   2.963564   0.000000
    29  H    2.331634   3.811505   0.976525   0.000000
    30  H    2.493737   2.908030   3.901205   4.455432   0.000000
    31  H    3.164387   2.165714   2.572308   3.494399   2.933768
    32  H    4.348371   1.092503   3.928921   4.828443   3.283455
    33  H    3.382882   1.095728   3.391223   4.062541   2.804060
    34  H    3.812718   1.093065   2.680454   3.504859   3.874633
                   31         32         33         34
    31  H    0.000000
    32  H    2.477848   0.000000
    33  H    3.081582   1.776102   0.000000
    34  H    2.512517   1.779447   1.779325   0.000000
 Symmetry turned off by external request.
 Stoichiometry    C9H18N3O4(1+)
 Framework group  C1[X(C9H18N3O4)]
 Deg. of freedom    96
 Full point group                 C1      NOp   1
 Rotational constants (GHZ):           0.5641709           0.4982583           0.3284821
 Standard basis: 6-31G(d) (6D, 7F)
   276 basis functions,   520 primitive gaussians,   276 cartesian basis functions
    62 alpha electrons       62 beta electrons
       nuclear repulsion energy      1262.5371798519 Hartrees.
 NAtoms=   34 NActive=   34 NUniq=   34 SFac= 1.00D+00 NAtFMM=   60 NAOKFM=F Big=F
 Integral buffers will be    131072 words long.
 Raffenetti 2 integral format.
 Two-electron integral symmetry is turned off.
 Nuclear repulsion after empirical dispersion term =     1262.4978701638 Hartrees.
 One-electron integrals computed using PRISM.
 NBasis=   276 RedAO= T EigKep=  2.17D-03  NBF=   276
 NBsUse=   276 1.00D-06 EigRej= -1.00D+00 NBFU=   276
 Initial guess from the checkpoint file:  "conf-883.chk"
 B after Tr=     0.000000    0.000000    0.000000
         Rot=    1.000000    0.000000    0.000000    0.000000 Ang=   0.00 deg.
 Requested convergence on RMS density matrix=1.00D-08 within 128 cycles.
 Requested convergence on MAX density matrix=1.00D-06.
 Requested convergence on             energy=1.00D-06.
 No special actions if energy rises.
 SCF Done:  E(RB3LYP) =  -818.817793512     A.U. after    2 cycles
            NFock=  2  Conv=0.87D-08     -V/T= 2.0093

 **********************************************************************

            Population analysis using the SCF Density.

 **********************************************************************

 Alpha  occ. eigenvalues --  -19.34352 -19.29922 -19.27925 -19.22759 -14.60862
 Alpha  occ. eigenvalues --  -14.51985 -14.47665 -10.47278 -10.45258 -10.42696
 Alpha  occ. eigenvalues --  -10.40195 -10.36260 -10.36122 -10.35433 -10.30441
 Alpha  occ. eigenvalues --  -10.29653  -1.25725  -1.20715  -1.16781  -1.15332
 Alpha  occ. eigenvalues --   -1.14732  -1.08200  -1.04449  -0.94986  -0.90811
 Alpha  occ. eigenvalues --   -0.88577  -0.83069  -0.79878  -0.78287  -0.76195
 Alpha  occ. eigenvalues --   -0.75168  -0.74111  -0.72711  -0.70463  -0.67325
 Alpha  occ. eigenvalues --   -0.66219  -0.64422  -0.63637  -0.61931  -0.60531
 Alpha  occ. eigenvalues --   -0.59678  -0.59574  -0.57240  -0.56191  -0.55820
 Alpha  occ. eigenvalues --   -0.55312  -0.54717  -0.53711  -0.52988  -0.52161
 Alpha  occ. eigenvalues --   -0.51296  -0.50628  -0.50065  -0.48619  -0.48369
 Alpha  occ. eigenvalues --   -0.47102  -0.46890  -0.43219  -0.42103  -0.41914
 Alpha  occ. eigenvalues --   -0.37385  -0.36085
 Alpha virt. eigenvalues --   -0.14860  -0.13888  -0.10689  -0.09089  -0.07478
 Alpha virt. eigenvalues --   -0.05897  -0.05367  -0.04039  -0.02964  -0.01382
 Alpha virt. eigenvalues --   -0.00127   0.00347   0.01304   0.01821   0.02286
 Alpha virt. eigenvalues --    0.03597   0.04214   0.04264   0.05128   0.06364
 Alpha virt. eigenvalues --    0.06625   0.07292   0.07832   0.07963   0.09055
 Alpha virt. eigenvalues --    0.10151   0.11398   0.12024   0.13806   0.14468
 Alpha virt. eigenvalues --    0.18529   0.19833   0.21755   0.26382   0.26780
 Alpha virt. eigenvalues --    0.28757   0.33887   0.34829   0.36047   0.36402
 Alpha virt. eigenvalues --    0.38326   0.39570   0.40246   0.40631   0.42420
 Alpha virt. eigenvalues --    0.43019   0.43632   0.45676   0.46779   0.47510
 Alpha virt. eigenvalues --    0.49597   0.49770   0.50553   0.51353   0.53601
 Alpha virt. eigenvalues --    0.53793   0.55033   0.56980   0.58030   0.59973
 Alpha virt. eigenvalues --    0.61096   0.61836   0.62531   0.63451   0.64104
 Alpha virt. eigenvalues --    0.64840   0.65408   0.66853   0.68009   0.68934
 Alpha virt. eigenvalues --    0.71015   0.71336   0.72362   0.73415   0.74175
 Alpha virt. eigenvalues --    0.75005   0.76351   0.76631   0.77270   0.77814
 Alpha virt. eigenvalues --    0.79012   0.79525   0.80114   0.80474   0.81738
 Alpha virt. eigenvalues --    0.82185   0.82998   0.84597   0.85232   0.86437
 Alpha virt. eigenvalues --    0.86505   0.88553   0.91167   0.91975   0.95433
 Alpha virt. eigenvalues --    0.96274   0.97973   0.99910   1.00826   1.02356
 Alpha virt. eigenvalues --    1.03386   1.06871   1.08631   1.10865   1.14560
 Alpha virt. eigenvalues --    1.14965   1.17985   1.20308   1.20965   1.24738
 Alpha virt. eigenvalues --    1.25392   1.28234   1.29254   1.30115   1.31105
 Alpha virt. eigenvalues --    1.33378   1.36584   1.39463   1.42298   1.48011
 Alpha virt. eigenvalues --    1.50684   1.51499   1.52577   1.53654   1.54222
 Alpha virt. eigenvalues --    1.55922   1.58054   1.58615   1.61269   1.62420
 Alpha virt. eigenvalues --    1.64249   1.64411   1.65859   1.66391   1.68476
 Alpha virt. eigenvalues --    1.69826   1.70706   1.71126   1.73139   1.75153
 Alpha virt. eigenvalues --    1.75762   1.77982   1.81376   1.81662   1.82992
 Alpha virt. eigenvalues --    1.84171   1.84958   1.86905   1.88050   1.88779
 Alpha virt. eigenvalues --    1.90918   1.91990   1.93294   1.93969   1.95009
 Alpha virt. eigenvalues --    1.97306   1.97785   2.00478   2.01895   2.03095
 Alpha virt. eigenvalues --    2.09222   2.10204   2.12312   2.13464   2.15307
 Alpha virt. eigenvalues --    2.16284   2.17654   2.18055   2.19410   2.22044
 Alpha virt. eigenvalues --    2.23564   2.25601   2.29857   2.30743   2.33519
 Alpha virt. eigenvalues --    2.34729   2.37467   2.39045   2.42327   2.43819
 Alpha virt. eigenvalues --    2.48438   2.48666   2.51038   2.51845   2.54882
 Alpha virt. eigenvalues --    2.57520   2.63456   2.64414   2.65954   2.72024
 Alpha virt. eigenvalues --    2.76188   2.82086   2.85409   2.87577   2.90445
 Alpha virt. eigenvalues --    2.95699   3.01386   3.04312   3.65245   3.71209
 Alpha virt. eigenvalues --    3.87471   3.89515   3.97551   4.03067   4.04877
 Alpha virt. eigenvalues --    4.09732   4.12984   4.16128   4.18054   4.22134
 Alpha virt. eigenvalues --    4.36767   4.39787   4.50654   4.57582
          Condensed to atoms (all electrons):
               1          2          3          4          5          6
     1  N    6.943201   0.215058  -0.044838  -0.028658  -0.051416   0.255344
     2  C    0.215058   5.269193   0.292371  -0.089843   0.337339  -0.038809
     3  C   -0.044838   0.292371   4.355935   0.528892  -0.035876  -0.003663
     4  O   -0.028658  -0.089843   0.528892   8.112834   0.001806   0.058219
     5  C   -0.051416   0.337339  -0.035876   0.001806   5.150457   0.004924
     6  H    0.255344  -0.038809  -0.003663   0.058219   0.004924   0.312750
     7  H   -0.037285   0.375165  -0.026216   0.000622  -0.032957   0.000332
     8  H    0.003810  -0.025642  -0.004294  -0.000007   0.370452  -0.000113
     9  H   -0.002881  -0.034912  -0.003769   0.000109   0.371442   0.000005
    10  H   -0.003183  -0.026274   0.002866  -0.000065   0.371149  -0.000152
    11  H    0.298946  -0.020114   0.004634   0.000998   0.000015  -0.009011
    12  H    0.230053  -0.016797  -0.003203   0.000842  -0.002168  -0.008756
    13  N    0.001078  -0.117247   0.315355  -0.087512   0.006209   0.002175
    14  C   -0.000055   0.006866  -0.036377   0.003486  -0.000168  -0.000070
    15  C    0.000046  -0.000672  -0.001972   0.008698  -0.000032   0.000006
    16  O   -0.000000  -0.000010  -0.000480  -0.000846   0.000000   0.000001
    17  C    0.000001  -0.000179   0.005385   0.000470  -0.000026  -0.000000
    18  H    0.000136  -0.000554  -0.024419   0.002746   0.003295  -0.000092
    19  H   -0.000010   0.000154  -0.002352   0.004251   0.000008  -0.000007
    20  H   -0.000000   0.000003  -0.000046   0.000001  -0.000000  -0.000000
    21  H    0.000000   0.000004  -0.000073  -0.000001  -0.000004   0.000000
    22  H   -0.000000  -0.000005  -0.000138  -0.000009   0.000005   0.000000
    23  N    0.000042  -0.000196   0.006460  -0.002470  -0.000223   0.000018
    24  C   -0.000166   0.000016  -0.001479  -0.000180   0.000030   0.000000
    25  C    0.001197  -0.000165   0.001279   0.001497   0.000003   0.000041
    26  O   -0.029228   0.001018   0.006041  -0.001496  -0.004153   0.000291
    27  C    0.000000  -0.000001   0.000030   0.000000   0.000001   0.000000
    28  O    0.000018   0.000002   0.000009  -0.000001  -0.000002  -0.000001
    29  H   -0.000091   0.000001  -0.000004   0.000001   0.000000  -0.000001
    30  H   -0.000001  -0.000535   0.000199  -0.001153   0.000777   0.000013
    31  H    0.000005  -0.000001  -0.000073   0.000024  -0.000001   0.000000
    32  H   -0.000000   0.000000  -0.000001   0.000000   0.000000  -0.000000
    33  H    0.000000   0.000000  -0.000002  -0.000000  -0.000003  -0.000000
    34  H    0.000000   0.000000  -0.000000   0.000000   0.000000  -0.000000
               7          8          9         10         11         12
     1  N   -0.037285   0.003810  -0.002881  -0.003183   0.298946   0.230053
     2  C    0.375165  -0.025642  -0.034912  -0.026274  -0.020114  -0.016797
     3  C   -0.026216  -0.004294  -0.003769   0.002866   0.004634  -0.003203
     4  O    0.000622  -0.000007   0.000109  -0.000065   0.000998   0.000842
     5  C   -0.032957   0.370452   0.371442   0.371149   0.000015  -0.002168
     6  H    0.000332  -0.000113   0.000005  -0.000152  -0.009011  -0.008756
     7  H    0.485711  -0.002225   0.003955  -0.002871  -0.002853   0.002878
     8  H   -0.002225   0.499155  -0.022083  -0.021455  -0.000083  -0.000015
     9  H    0.003955  -0.022083   0.494347  -0.024420  -0.000166   0.002523
    10  H   -0.002871  -0.021455  -0.024420   0.506024   0.001689  -0.000259
    11  H   -0.002853  -0.000083  -0.000166   0.001689   0.325755  -0.009597
    12  H    0.002878  -0.000015   0.002523  -0.000259  -0.009597   0.301260
    13  N   -0.000091   0.000594   0.000128   0.000171  -0.000051   0.000317
    14  C   -0.000174   0.000105  -0.000160   0.000001   0.000001  -0.000001
    15  C   -0.000001   0.000001   0.000044  -0.000001   0.000000  -0.000009
    16  O    0.000000  -0.000000   0.000000  -0.000000  -0.000000   0.000001
    17  C    0.000003  -0.000018   0.000002   0.000000  -0.000000  -0.000000
    18  H    0.000075   0.004806  -0.000186  -0.000081  -0.000006   0.000003
    19  H    0.000015  -0.000003  -0.000001   0.000000  -0.000000   0.000001
    20  H   -0.000000  -0.000000  -0.000000   0.000000   0.000000  -0.000000
    21  H   -0.000001   0.000001  -0.000000  -0.000000   0.000000   0.000000
    22  H    0.000001  -0.000006  -0.000001   0.000000   0.000000   0.000000
    23  N   -0.000005   0.000002  -0.000104   0.000001  -0.000000  -0.000202
    24  C   -0.000001  -0.000000  -0.000147  -0.000001  -0.000001   0.001208
    25  C    0.000003  -0.000000   0.000301  -0.000001   0.000015  -0.003343
    26  O    0.000019   0.000067   0.009115   0.000030   0.000437   0.064783
    27  C    0.000000  -0.000000  -0.000007   0.000000   0.000000  -0.000010
    28  O    0.000000   0.000000   0.000015   0.000000   0.000000  -0.000453
    29  H   -0.000000  -0.000000  -0.000006  -0.000000  -0.000000   0.000759
    30  H    0.000030  -0.000023   0.003037   0.000000  -0.000003  -0.000245
    31  H   -0.000000   0.000000   0.000004  -0.000000  -0.000000  -0.000037
    32  H   -0.000000  -0.000000  -0.000000  -0.000000  -0.000000   0.000000
    33  H    0.000000   0.000000   0.000022  -0.000000  -0.000000  -0.000005
    34  H   -0.000000  -0.000000  -0.000000  -0.000000   0.000000  -0.000000
              13         14         15         16         17         18
     1  N    0.001078  -0.000055   0.000046  -0.000000   0.000001   0.000136
     2  C   -0.117247   0.006866  -0.000672  -0.000010  -0.000179  -0.000554
     3  C    0.315355  -0.036377  -0.001972  -0.000480   0.005385  -0.024419
     4  O   -0.087512   0.003486   0.008698  -0.000846   0.000470   0.002746
     5  C    0.006209  -0.000168  -0.000032   0.000000  -0.000026   0.003295
     6  H    0.002175  -0.000070   0.000006   0.000001  -0.000000  -0.000092
     7  H   -0.000091  -0.000174  -0.000001   0.000000   0.000003   0.000075
     8  H    0.000594   0.000105   0.000001  -0.000000  -0.000018   0.004806
     9  H    0.000128  -0.000160   0.000044   0.000000   0.000002  -0.000186
    10  H    0.000171   0.000001  -0.000001  -0.000000   0.000000  -0.000081
    11  H   -0.000051   0.000001   0.000000  -0.000000  -0.000000  -0.000006
    12  H    0.000317  -0.000001  -0.000009   0.000001  -0.000000   0.000003
    13  N    7.175584   0.162824  -0.044281   0.002760  -0.037464   0.295486
    14  C    0.162824   5.144179   0.331963  -0.069005   0.347216  -0.018430
    15  C   -0.044281   0.331963   4.391342   0.588167  -0.035194   0.001361
    16  O    0.002760  -0.069005   0.588167   8.025240  -0.001446  -0.000071
    17  C   -0.037464   0.347216  -0.035194  -0.001446   5.126683  -0.002485
    18  H    0.295486  -0.018430   0.001361  -0.000071  -0.002485   0.378706
    19  H   -0.043591   0.373089  -0.036586   0.004662  -0.028427   0.002610
    20  H    0.003735  -0.029498   0.000150   0.002396   0.377269  -0.000157
    21  H   -0.002431  -0.029421   0.003877  -0.000065   0.372384   0.002187
    22  H   -0.004306  -0.031529  -0.008635  -0.000062   0.369121   0.002948
    23  N   -0.003214  -0.125267   0.229284  -0.096508  -0.000168  -0.000279
    24  C    0.000346   0.006402  -0.020744  -0.003149  -0.000122   0.000043
    25  C   -0.000478  -0.000025   0.001526   0.000277  -0.000003  -0.000004
    26  O   -0.000752  -0.000034   0.000501  -0.000001  -0.000000  -0.000029
    27  C   -0.000011  -0.000247   0.000726  -0.000141   0.000014  -0.000001
    28  O   -0.000001   0.000000   0.000027  -0.000002   0.000000  -0.000000
    29  H    0.000000  -0.000000  -0.000005   0.000000  -0.000000   0.000000
    30  H    0.014604  -0.005423  -0.021442   0.003327   0.000306   0.000178
    31  H   -0.000098   0.001244   0.001072   0.020956  -0.000021   0.000003
    32  H   -0.000000  -0.000001   0.000605   0.000200   0.000000   0.000000
    33  H   -0.000002  -0.000000  -0.000047  -0.000009  -0.000000  -0.000000
    34  H    0.000000   0.000004  -0.000037  -0.000004  -0.000000   0.000000
              19         20         21         22         23         24
     1  N   -0.000010  -0.000000   0.000000  -0.000000   0.000042  -0.000166
     2  C    0.000154   0.000003   0.000004  -0.000005  -0.000196   0.000016
     3  C   -0.002352  -0.000046  -0.000073  -0.000138   0.006460  -0.001479
     4  O    0.004251   0.000001  -0.000001  -0.000009  -0.002470  -0.000180
     5  C    0.000008  -0.000000  -0.000004   0.000005  -0.000223   0.000030
     6  H   -0.000007  -0.000000   0.000000   0.000000   0.000018   0.000000
     7  H    0.000015  -0.000000  -0.000001   0.000001  -0.000005  -0.000001
     8  H   -0.000003  -0.000000   0.000001  -0.000006   0.000002  -0.000000
     9  H   -0.000001  -0.000000  -0.000000  -0.000001  -0.000104  -0.000147
    10  H    0.000000   0.000000  -0.000000   0.000000   0.000001  -0.000001
    11  H   -0.000000   0.000000   0.000000   0.000000  -0.000000  -0.000001
    12  H    0.000001  -0.000000   0.000000   0.000000  -0.000202   0.001208
    13  N   -0.043591   0.003735  -0.002431  -0.004306  -0.003214   0.000346
    14  C    0.373089  -0.029498  -0.029421  -0.031529  -0.125267   0.006402
    15  C   -0.036586   0.000150   0.003877  -0.008635   0.229284  -0.020744
    16  O    0.004662   0.002396  -0.000065  -0.000062  -0.096508  -0.003149
    17  C   -0.028427   0.377269   0.372384   0.369121  -0.000168  -0.000122
    18  H    0.002610  -0.000157   0.002187   0.002948  -0.000279   0.000043
    19  H    0.503197  -0.001588  -0.005136   0.004564   0.005183  -0.000108
    20  H   -0.001588   0.476010  -0.021244  -0.022974   0.000257  -0.000019
    21  H   -0.005136  -0.021244   0.528248  -0.030708  -0.000120   0.000004
    22  H    0.004564  -0.022974  -0.030708   0.555194   0.003843  -0.000059
    23  N    0.005183   0.000257  -0.000120   0.003843   7.178486   0.255594
    24  C   -0.000108  -0.000019   0.000004  -0.000059   0.255594   5.064391
    25  C    0.000001   0.000000   0.000000   0.000001  -0.047866   0.325739
    26  O    0.000001   0.000000   0.000000  -0.000000  -0.005662  -0.070858
    27  C    0.000001   0.000001  -0.000000   0.000002  -0.052889   0.354230
    28  O   -0.000000   0.000000  -0.000000  -0.000000   0.002428  -0.088429
    29  H    0.000000  -0.000000   0.000000   0.000000  -0.000273   0.008898
    30  H    0.000329  -0.000062  -0.000057   0.001019   0.286550  -0.034522
    31  H   -0.000032  -0.000005   0.000000  -0.000003  -0.048563   0.362960
    32  H    0.000000  -0.000001   0.000000   0.000007  -0.000736  -0.027796
    33  H    0.000000   0.000000   0.000000   0.000001  -0.003110  -0.034696
    34  H   -0.000000  -0.000000   0.000000   0.000000   0.003951  -0.030434
              25         26         27         28         29         30
     1  N    0.001197  -0.029228   0.000000   0.000018  -0.000091  -0.000001
     2  C   -0.000165   0.001018  -0.000001   0.000002   0.000001  -0.000535
     3  C    0.001279   0.006041   0.000030   0.000009  -0.000004   0.000199
     4  O    0.001497  -0.001496   0.000000  -0.000001   0.000001  -0.001153
     5  C    0.000003  -0.004153   0.000001  -0.000002   0.000000   0.000777
     6  H    0.000041   0.000291   0.000000  -0.000001  -0.000001   0.000013
     7  H    0.000003   0.000019   0.000000   0.000000  -0.000000   0.000030
     8  H   -0.000000   0.000067  -0.000000   0.000000  -0.000000  -0.000023
     9  H    0.000301   0.009115  -0.000007   0.000015  -0.000006   0.003037
    10  H   -0.000001   0.000030   0.000000   0.000000  -0.000000   0.000000
    11  H    0.000015   0.000437   0.000000   0.000000  -0.000000  -0.000003
    12  H   -0.003343   0.064783  -0.000010  -0.000453   0.000759  -0.000245
    13  N   -0.000478  -0.000752  -0.000011  -0.000001   0.000000   0.014604
    14  C   -0.000025  -0.000034  -0.000247   0.000000  -0.000000  -0.005423
    15  C    0.001526   0.000501   0.000726   0.000027  -0.000005  -0.021442
    16  O    0.000277  -0.000001  -0.000141  -0.000002   0.000000   0.003327
    17  C   -0.000003  -0.000000   0.000014   0.000000  -0.000000   0.000306
    18  H   -0.000004  -0.000029  -0.000001  -0.000000   0.000000   0.000178
    19  H    0.000001   0.000001   0.000001  -0.000000   0.000000   0.000329
    20  H    0.000000   0.000000   0.000001   0.000000  -0.000000  -0.000062
    21  H    0.000000   0.000000  -0.000000  -0.000000   0.000000  -0.000057
    22  H    0.000001  -0.000000   0.000002  -0.000000   0.000000   0.001019
    23  N   -0.047866  -0.005662  -0.052889   0.002428  -0.000273   0.286550
    24  C    0.325739  -0.070858   0.354230  -0.088429   0.008898  -0.034522
    25  C    4.363638   0.502204  -0.044593   0.316236  -0.005740  -0.004667
    26  O    0.502204   8.127245  -0.001249  -0.080637   0.007828   0.010861
    27  C   -0.044593  -0.001249   5.103248   0.001697  -0.000440   0.000240
    28  O    0.316236  -0.080637   0.001697   8.139018   0.220977   0.000130
    29  H   -0.005740   0.007828  -0.000440   0.220977   0.338797  -0.000018
    30  H   -0.004667   0.010861   0.000240   0.000130  -0.000018   0.418014
    31  H   -0.026469   0.001476  -0.028843   0.001832  -0.000329   0.004901
    32  H    0.004046  -0.000053   0.377439   0.000033   0.000015  -0.000267
    33  H   -0.004820   0.000930   0.373192  -0.000088  -0.000057   0.002640
    34  H   -0.001130   0.000080   0.368692   0.003635  -0.000029  -0.000137
              31         32         33         34
     1  N    0.000005  -0.000000   0.000000   0.000000
     2  C   -0.000001   0.000000   0.000000   0.000000
     3  C   -0.000073  -0.000001  -0.000002  -0.000000
     4  O    0.000024   0.000000  -0.000000   0.000000
     5  C   -0.000001   0.000000  -0.000003   0.000000
     6  H    0.000000  -0.000000  -0.000000  -0.000000
     7  H   -0.000000  -0.000000   0.000000  -0.000000
     8  H    0.000000  -0.000000   0.000000  -0.000000
     9  H    0.000004  -0.000000   0.000022  -0.000000
    10  H   -0.000000  -0.000000  -0.000000  -0.000000
    11  H   -0.000000  -0.000000  -0.000000   0.000000
    12  H   -0.000037   0.000000  -0.000005  -0.000000
    13  N   -0.000098  -0.000000  -0.000002   0.000000
    14  C    0.001244  -0.000001  -0.000000   0.000004
    15  C    0.001072   0.000605  -0.000047  -0.000037
    16  O    0.020956   0.000200  -0.000009  -0.000004
    17  C   -0.000021   0.000000  -0.000000  -0.000000
    18  H    0.000003   0.000000  -0.000000   0.000000
    19  H   -0.000032   0.000000   0.000000  -0.000000
    20  H   -0.000005  -0.000001   0.000000  -0.000000
    21  H    0.000000   0.000000   0.000000   0.000000
    22  H   -0.000003   0.000007   0.000001   0.000000
    23  N   -0.048563  -0.000736  -0.003110   0.003951
    24  C    0.362960  -0.027796  -0.034696  -0.030434
    25  C   -0.026469   0.004046  -0.004820  -0.001130
    26  O    0.001476  -0.000053   0.000930   0.000080
    27  C   -0.028843   0.377439   0.373192   0.368692
    28  O    0.001832   0.000033  -0.000088   0.003635
    29  H   -0.000329   0.000015  -0.000057  -0.000029
    30  H    0.004901  -0.000267   0.002640  -0.000137
    31  H    0.474612  -0.004334   0.004136  -0.001243
    32  H   -0.004334   0.499127  -0.027254  -0.020406
    33  H    0.004136  -0.027254   0.558900  -0.026314
    34  H   -0.001243  -0.020406  -0.026314   0.511774
 Mulliken charges:
               1
     1  N   -0.751124
     2  C   -0.125236
     3  C    0.669819
     4  O   -0.513257
     5  C   -0.490884
     6  H    0.426555
     7  H    0.235870
     8  H    0.196976
     9  H    0.203793
    10  H    0.196831
    11  H    0.409393
    12  H    0.440474
    13  N   -0.639833
    14  C   -0.031494
    15  C    0.610261
    16  O   -0.476189
    17  C   -0.493299
    18  H    0.352210
    19  H    0.219773
    20  H    0.215773
    21  H    0.182556
    22  H    0.161728
    23  N   -0.584243
    24  C   -0.066952
    25  C    0.621299
    26  O   -0.538773
    27  C   -0.451081
    28  O   -0.516444
    29  H    0.429716
    30  H    0.321399
    31  H    0.236828
    32  H    0.199376
    33  H    0.156585
    34  H    0.191597
 Sum of Mulliken charges =   1.00000
 Mulliken charges with hydrogens summed into heavy atoms:
               1
     1  N    0.525297
     2  C    0.110634
     3  C    0.669819
     4  O   -0.513257
     5  C    0.106715
    13  N   -0.287623
    14  C    0.188278
    15  C    0.610261
    16  O   -0.476189
    17  C    0.066757
    23  N   -0.262844
    24  C    0.169876
    25  C    0.621299
    26  O   -0.538773
    27  C    0.096477
    28  O   -0.086728
 Electronic spatial extent (au):  <R**2>=         122157.8877
 Charge=              1.0000 electrons
 Dipole moment (field-independent basis, Debye):
    X=              1.9135    Y=            -59.6558    Z=            -37.2122  Tot=             70.3365
 Quadrupole moment (field-independent basis, Debye-Ang):
   XX=            -70.5343   YY=            640.0192   ZZ=            224.5623
   XY=            -15.1880   XZ=             -9.4232   YZ=            451.8176
 Traceless Quadrupole moment (field-independent basis, Debye-Ang):
   XX=           -335.2167   YY=            375.3368   ZZ=            -40.1201
   XY=            -15.1880   XZ=             -9.4232   YZ=            451.8176
 Octapole moment (field-independent basis, Debye-Ang**2):
  XXX=             29.5885  YYY=          -4730.6865  ZZZ=           -899.0858  XYY=             84.8558
  XXY=           1053.7415  XXZ=            489.6059  XZZ=             57.9092  YZZ=          -2465.2209
  YYZ=          -4720.7848  XYZ=             30.9234
 Hexadecapole moment (field-independent basis, Debye-Ang**3):
 XXXX=          -1715.7037 YYYY=         -19265.2167 ZZZZ=          -2280.8412 XXXY=           -608.9139
 XXXZ=           -394.0373 YYYX=           -107.9314 YYYZ=          33081.8351 ZZZX=           -631.3329
 ZZZY=           5995.0988 XXYY=         -16210.7883 XXZZ=          -3810.6104 YYZZ=          20048.6561
 XXYZ=          -7299.2267 YYXZ=            652.4932 ZZXY=            -35.8499
 N-N= 1.262497870164D+03 E-N=-4.417832712062D+03  KE= 8.112659239939D+02
 Unable to Open any file for archive entry.
 1\1\GINC-AMR-135\SP\RB3LYP\6-31G(d)\C9H18N3O4(1+)\KENGMITH\04-Jun-2022
 \0\\# B3LYP/6-31G* empiricaldispersion=gd3 guess=read geom=check nosym
 m integral(ultrafinegrid)\\Candidate Structure: Conf:883 Charge calc i
 n gas phase\\1,1\N,0,1.2659581126,-12.5815711922,-9.1051449816\C,0,1.7
 152955709,-12.593231456,-7.6585784451\C,0,1.6362894143,-14.1015037344,
 -7.3075992059\O,0,1.7202640582,-14.9088062549,-8.2325900074\C,0,0.8659
 194079,-11.6385167013,-6.8278167942\H,0,1.6831728019,-13.4280355996,-9
 .5360365034\H,0,2.7675340514,-12.2886240477,-7.6606294323\H,0,1.238909
 8387,-11.5953206627,-5.8003449698\H,0,-0.1806637005,-11.9558388585,-6.
 8186335321\H,0,0.9230408018,-10.6188144704,-7.2222736002\H,0,1.5285787
 42,-11.7290820287,-9.6057677682\H,0,0.2362944761,-12.7362358175,-9.142
 9719673\N,0,1.4322116701,-14.4560346578,-6.0263776685\C,0,1.141801071,
 -15.8629865069,-5.6917038536\C,0,-0.12301663,-16.3470255716,-6.4396410
 907\O,0,-0.2178814272,-17.4920182893,-6.8365708516\C,0,0.9958972821,-1
 6.0283679731,-4.1788478535\H,0,1.4155693113,-13.7630497536,-5.29016514
 48\H,0,1.9530150772,-16.4875662248,-6.0726842583\H,0,0.7737105016,-17.
 0741370485,-3.9526361534\H,0,1.9230822922,-15.7564220133,-3.6637979175
 \H,0,0.174768391,-15.4159705513,-3.7881646482\N,0,-1.1196354176,-15.40
 73016758,-6.5633160027\C,0,-2.1926370794,-15.560312406,-7.5224105404\C
 ,0,-2.0160559543,-14.5402624482,-8.6429952649\O,0,-1.2586627156,-13.57
 40126496,-8.593085871\C,0,-3.5875140731,-15.4176311861,-6.8849218502\O
 ,0,-2.8151627917,-14.7860784555,-9.6755004972\H,0,-2.7094180295,-14.08
 38301756,-10.3457733074\H,0,-0.9077265271,-14.4588480138,-6.2881700874
 \H,0,-2.0928231128,-16.5597127742,-7.9581723134\H,0,-3.6985773511,-16.
 1794282812,-6.1097496487\H,0,-3.7083914229,-14.4312546544,-6.423326762
 5\H,0,-4.3723228396,-15.5541533655,-7.6334063567\\Version=ES64L-G16Rev
 C.01\HF=-818.8177935\RMSD=8.747e-09\Dipole=1.0847737,4.1930228,-0.9012
 752\Quadrupole=-249.2253793,279.053688,-29.8283087,-11.2918885,-7.0059
 27,335.9153229\PG=C01 [X(C9H18N3O4)]\\@
 The archive entry for this job was punched.


 WHEN IT COMES TO CASH FLOW, IT SEEMS LIKE THE TIDE IS ALWAYS GOING OUT.
 Job cpu time:       0 days  0 hours  0 minutes 33.4 seconds.
 Elapsed time:       0 days  0 hours  0 minutes  8.7 seconds.
 File lengths (MBytes):  RWF=    168 Int=      0 D2E=      0 Chk=     16 Scr=     16
 Normal termination of Gaussian 16 at Sat Jun  4 16:59:07 2022.
