 Entering Gaussian System, Link 0=/opt/software/Gaussian/g16-AVX2-C.01/g16/g16
 Input=charge-conf-474.com
 Output=charge-conf-474.log
 Initial command:
 /opt/software/Gaussian/g16-AVX2-C.01/g16/l1.exe "/mnt/gs18/scratch/users/kengmith/Gau-63162.inp" -scrdir="/mnt/gs18/scratch/users/kengmith/"
 Entering Link 1 = /opt/software/Gaussian/g16-AVX2-C.01/g16/l1.exe PID=     63215.
  
 Copyright (c) 1988-2019, Gaussian, Inc.  All Rights Reserved.
  
 This is part of the Gaussian(R) 16 program.  It is based on
 the Gaussian(R) 09 system (copyright 2009, Gaussian, Inc.),
 the Gaussian(R) 03 system (copyright 2003, Gaussian, Inc.),
 the Gaussian(R) 98 system (copyright 1998, Gaussian, Inc.),
 the Gaussian(R) 94 system (copyright 1995, Gaussian, Inc.),
 the Gaussian 92(TM) system (copyright 1992, Gaussian, Inc.),
 the Gaussian 90(TM) system (copyright 1990, Gaussian, Inc.),
 the Gaussian 88(TM) system (copyright 1988, Gaussian, Inc.),
 the Gaussian 86(TM) system (copyright 1986, Carnegie Mellon
 University), and the Gaussian 82(TM) system (copyright 1983,
 Carnegie Mellon University). Gaussian is a federally registered
 trademark of Gaussian, Inc.
  
 This software contains proprietary and confidential information,
 including trade secrets, belonging to Gaussian, Inc.
  
 This software is provided under written license and may be
 used, copied, transmitted, or stored only in accord with that
 written license.
  
 The following legend is applicable only to US Government
 contracts under FAR:
  
                    RESTRICTED RIGHTS LEGEND
  
 Use, reproduction and disclosure by the US Government is
 subject to restrictions as set forth in subparagraphs (a)
 and (c) of the Commercial Computer Software - Restricted
 Rights clause in FAR 52.227-19.
  
 Gaussian, Inc.
 340 Quinnipiac St., Bldg. 40, Wallingford CT 06492
  
  
 ---------------------------------------------------------------
 Warning -- This program may not be used in any manner that
 competes with the business of Gaussian, Inc. or will provide
 assistance to any competitor of Gaussian, Inc.  The licensee
 of this program is prohibited from giving any competitor of
 Gaussian, Inc. access to this program.  By using this program,
 the user acknowledges that Gaussian, Inc. is engaged in the
 business of creating and licensing software in the field of
 computational chemistry and represents and warrants to the
 licensee that it is not a competitor of Gaussian, Inc. and that
 it will not use this program in any manner prohibited above.
 ---------------------------------------------------------------
  

 Cite this work as:
 Gaussian 16, Revision C.01,
 M. J. Frisch, G. W. Trucks, H. B. Schlegel, G. E. Scuseria, 
 M. A. Robb, J. R. Cheeseman, G. Scalmani, V. Barone, 
 G. A. Petersson, H. Nakatsuji, X. Li, M. Caricato, A. V. Marenich, 
 J. Bloino, B. G. Janesko, R. Gomperts, B. Mennucci, H. P. Hratchian, 
 J. V. Ortiz, A. F. Izmaylov, J. L. Sonnenberg, D. Williams-Young, 
 F. Ding, F. Lipparini, F. Egidi, J. Goings, B. Peng, A. Petrone, 
 T. Henderson, D. Ranasinghe, V. G. Zakrzewski, J. Gao, N. Rega, 
 G. Zheng, W. Liang, M. Hada, M. Ehara, K. Toyota, R. Fukuda, 
 J. Hasegawa, M. Ishida, T. Nakajima, Y. Honda, O. Kitao, H. Nakai, 
 T. Vreven, K. Throssell, J. A. Montgomery, Jr., J. E. Peralta, 
 F. Ogliaro, M. J. Bearpark, J. J. Heyd, E. N. Brothers, K. N. Kudin, 
 V. N. Staroverov, T. A. Keith, R. Kobayashi, J. Normand, 
 K. Raghavachari, A. P. Rendell, J. C. Burant, S. S. Iyengar, 
 J. Tomasi, M. Cossi, J. M. Millam, M. Klene, C. Adamo, R. Cammi, 
 J. W. Ochterski, R. L. Martin, K. Morokuma, O. Farkas, 
 J. B. Foresman, and D. J. Fox, Gaussian, Inc., Wallingford CT, 2019.
 
 ******************************************
 Gaussian 16:  ES64L-G16RevC.01  3-Jul-2019
                 4-Jun-2022 
 ******************************************
 %mem=8gb
 %nproc=4
 Will use up to    4 processors via shared memory.
 %chk=conf-474.chk
 ----------------------------------------------------------------------
 # B3LYP/6-31G* empiricaldispersion=gd3 guess=read geom=check nosymm in
 tegral(ultrafinegrid)
 ----------------------------------------------------------------------
 1/29=2,38=1,172=1/1;
 2/12=2,15=1,40=1/2;
 3/5=1,6=6,7=1,11=2,14=-4,25=1,30=1,74=-5,75=-5,116=-2,124=31/1,2,3;
 4/5=1/1;
 5/5=2,38=6/2;
 6/7=2,8=2,9=2,10=2,28=1/1;
 99/5=1,9=1/99;
 ------------------------------------------------------
 Candidate Structure: Conf:474 Charge calc in gas phase
 ------------------------------------------------------
 Structure from the checkpoint file:  "conf-474.chk"
 Charge =  1 Multiplicity = 1
 Redundant internal coordinates found in file.  (old form).
 N,0,-2.0849500356,-13.7603809562,-8.9604305811
 C,0,-1.280036479,-12.6291321809,-8.3428912066
 C,0,0.1378964364,-13.2565089932,-8.3274686789
 O,0,0.4153651175,-14.0214310717,-9.250696338
 C,0,-1.8888085132,-12.1957856854,-7.0167634378
 H,0,-2.2168703691,-14.5220922864,-8.2613879985
 H,0,-1.2929211337,-11.8135264807,-9.0730397482
 H,0,-1.8889324231,-13.0161116522,-6.2922333029
 H,0,-2.9182563349,-11.8483248877,-7.1512540283
 H,0,-1.3274124837,-11.3519650759,-6.6042911697
 H,0,-1.4762596879,-14.1497075891,-9.7077820522
 H,0,-2.9904415911,-13.4606657536,-9.3322648244
 N,0,0.9472485024,-13.0333179687,-7.2780038176
 C,0,2.0767598609,-13.9523308468,-7.050504893
 C,0,1.5639949197,-15.4111147042,-6.9786659628
 O,0,2.2382629093,-16.3389089847,-7.379955936
 C,0,2.8377292357,-13.5631375674,-5.7829942716
 H,0,0.6874180605,-12.383174179,-6.5485664757
 H,0,2.737767413,-13.9228219245,-7.9193089394
 H,0,3.6619694156,-14.2638176671,-5.6287542898
 H,0,3.2562381423,-12.5558381278,-5.8733123206
 H,0,2.19129261,-13.6009475403,-4.8972781429
 N,0,0.2997299174,-15.5679357097,-6.4494513433
 C,0,-0.2578370707,-16.9005061477,-6.2807855706
 C,0,-1.779284872,-16.8853734491,-6.3030311651
 O,0,-2.4820239835,-17.7835488774,-5.9329038544
 C,0,0.2493292779,-17.6263157728,-5.0246472932
 O,0,-2.3620449536,-15.7061339951,-6.7888506848
 H,0,-3.3198674108,-15.8664494173,-6.6625690671
 H,0,-0.0655762972,-14.8336286615,-5.8581736329
 H,0,0.0600019272,-17.4742156532,-7.1611252522
 H,0,-0.190667252,-18.6234619944,-4.9555696387
 H,0,1.335895332,-17.7149309339,-5.0920212297
 H,0,-0.0117055667,-17.0674496543,-4.1195313622
 Recover connectivity data from disk.
                           ----------------------------
                           !    Current Parameters    !
                           ! (Angstroms and Degrees)  !
 --------------------------                            --------------------------
 ! Name  Definition              Value                                          !
 --------------------------------------------------------------------------------
 ! R1    R(1,2)                  1.5195                                         !
 ! R2    R(1,6)                  1.0422                                         !
 ! R3    R(1,11)                 1.0395                                         !
 ! R4    R(1,12)                 1.0237                                         !
 ! R5    R(2,3)                  1.5506                                         !
 ! R6    R(2,5)                  1.5222                                         !
 ! R7    R(2,7)                  1.0948                                         !
 ! R8    R(3,4)                  1.2306                                         !
 ! R9    R(3,13)                 1.344                                          !
 ! R10   R(5,8)                  1.0945                                         !
 ! R11   R(5,9)                  1.0948                                         !
 ! R12   R(5,10)                 1.0942                                         !
 ! R13   R(13,14)                1.4738                                         !
 ! R14   R(13,18)                1.0111                                         !
 ! R15   R(14,15)                1.5479                                         !
 ! R16   R(14,17)                1.5288                                         !
 ! R17   R(14,19)                1.0921                                         !
 ! R18   R(15,16)                1.2151                                         !
 ! R19   R(15,23)                1.3795                                         !
 ! R20   R(17,20)                1.0928                                         !
 ! R21   R(17,21)                1.0945                                         !
 ! R22   R(17,22)                1.0972                                         !
 ! R23   R(23,24)                1.4543                                         !
 ! R24   R(23,30)                1.0111                                         !
 ! R25   R(24,25)                1.5217                                         !
 ! R26   R(24,27)                1.5368                                         !
 ! R27   R(24,31)                1.0978                                         !
 ! R28   R(25,26)                1.199                                          !
 ! R29   R(25,28)                1.4022                                         !
 ! R30   R(27,32)                1.0921                                         !
 ! R31   R(27,33)                1.0923                                         !
 ! R32   R(27,34)                1.0953                                         !
 ! R33   R(28,29)                0.9793                                         !
 ! A1    A(2,1,6)              109.7892                                         !
 ! A2    A(2,1,11)             105.1192                                         !
 ! A3    A(2,1,12)             113.465                                          !
 ! A4    A(6,1,11)             106.4152                                         !
 ! A5    A(6,1,12)             110.2201                                         !
 ! A6    A(11,1,12)            111.4963                                         !
 ! A7    A(1,2,3)              100.7904                                         !
 ! A8    A(1,2,5)              110.7415                                         !
 ! A9    A(1,2,7)              106.1025                                         !
 ! A10   A(3,2,5)              118.1797                                         !
 ! A11   A(3,2,7)              108.5921                                         !
 ! A12   A(5,2,7)              111.3613                                         !
 ! A13   A(2,3,4)              116.7568                                         !
 ! A14   A(2,3,13)             119.4235                                         !
 ! A15   A(4,3,13)             123.591                                          !
 ! A16   A(2,5,8)              111.3089                                         !
 ! A17   A(2,5,9)              111.063                                          !
 ! A18   A(2,5,10)             110.0449                                         !
 ! A19   A(8,5,9)              108.6081                                         !
 ! A20   A(8,5,10)             109.1785                                         !
 ! A21   A(9,5,10)             106.4985                                         !
 ! A22   A(3,13,14)            118.588                                          !
 ! A23   A(3,13,18)            121.0231                                         !
 ! A24   A(14,13,18)           119.1139                                         !
 ! A25   A(13,14,15)           109.934                                          !
 ! A26   A(13,14,17)           110.5311                                         !
 ! A27   A(13,14,19)           108.9186                                         !
 ! A28   A(15,14,17)           111.4892                                         !
 ! A29   A(15,14,19)           105.2414                                         !
 ! A30   A(17,14,19)           110.575                                          !
 ! A31   A(14,15,16)           121.361                                          !
 ! A32   A(14,15,23)           115.3736                                         !
 ! A33   A(16,15,23)           123.2604                                         !
 ! A34   A(14,17,20)           109.2228                                         !
 ! A35   A(14,17,21)           110.8675                                         !
 ! A36   A(14,17,22)           111.5469                                         !
 ! A37   A(20,17,21)           108.261                                          !
 ! A38   A(20,17,22)           107.9607                                         !
 ! A39   A(21,17,22)           108.8817                                         !
 ! A40   A(15,23,24)           120.0007                                         !
 ! A41   A(15,23,30)           118.2233                                         !
 ! A42   A(24,23,30)           117.3304                                         !
 ! A43   A(23,24,25)           111.8709                                         !
 ! A44   A(23,24,27)           113.6411                                         !
 ! A45   A(23,24,31)           105.9528                                         !
 ! A46   A(25,24,27)           110.2794                                         !
 ! A47   A(25,24,31)           106.4365                                         !
 ! A48   A(27,24,31)           108.2455                                         !
 ! A49   A(24,25,26)           125.0338                                         !
 ! A50   A(24,25,28)           115.4016                                         !
 ! A51   A(26,25,28)           119.5614                                         !
 ! A52   A(24,27,32)           110.4846                                         !
 ! A53   A(24,27,33)           108.4324                                         !
 ! A54   A(24,27,34)           110.8427                                         !
 ! A55   A(32,27,33)           109.3064                                         !
 ! A56   A(32,27,34)           108.5171                                         !
 ! A57   A(33,27,34)           109.2352                                         !
 ! A58   A(25,28,29)           102.9516                                         !
 ! D1    D(6,1,2,3)             74.3069                                         !
 ! D2    D(6,1,2,5)            -51.583                                          !
 ! D3    D(6,1,2,7)           -172.5618                                         !
 ! D4    D(11,1,2,3)           -39.792                                          !
 ! D5    D(11,1,2,5)          -165.682                                          !
 ! D6    D(11,1,2,7)            73.3393                                         !
 ! D7    D(12,1,2,3)          -161.8706                                         !
 ! D8    D(12,1,2,5)            72.2395                                         !
 ! D9    D(12,1,2,7)           -48.7393                                         !
 ! D10   D(1,2,3,4)             33.3756                                         !
 ! D11   D(1,2,3,13)          -141.3283                                         !
 ! D12   D(5,2,3,4)            154.1135                                         !
 ! D13   D(5,2,3,13)           -20.5904                                         !
 ! D14   D(7,2,3,4)            -77.8478                                         !
 ! D15   D(7,2,3,13)           107.4483                                         !
 ! D16   D(1,2,5,8)             61.3508                                         !
 ! D17   D(1,2,5,9)            -59.7974                                         !
 ! D18   D(1,2,5,10)          -177.4728                                         !
 ! D19   D(3,2,5,8)            -54.1164                                         !
 ! D20   D(3,2,5,9)           -175.2646                                         !
 ! D21   D(3,2,5,10)            67.06                                           !
 ! D22   D(7,2,5,8)            179.1627                                         !
 ! D23   D(7,2,5,9)             58.0145                                         !
 ! D24   D(7,2,5,10)           -59.6609                                         !
 ! D25   D(2,3,13,14)          160.1918                                         !
 ! D26   D(2,3,13,18)           -6.7973                                         !
 ! D27   D(4,3,13,14)          -14.1299                                         !
 ! D28   D(4,3,13,18)          178.881                                          !
 ! D29   D(3,13,14,15)         -54.198                                          !
 ! D30   D(3,13,14,17)        -177.697                                          !
 ! D31   D(3,13,14,19)          60.6309                                         !
 ! D32   D(18,13,14,15)        113.044                                          !
 ! D33   D(18,13,14,17)        -10.455                                          !
 ! D34   D(18,13,14,19)       -132.1271                                         !
 ! D35   D(13,14,15,16)        146.9664                                         !
 ! D36   D(13,14,15,23)        -32.25                                           !
 ! D37   D(17,14,15,16)        -90.0965                                         !
 ! D38   D(17,14,15,23)         90.687                                          !
 ! D39   D(19,14,15,16)         29.8192                                         !
 ! D40   D(19,14,15,23)       -149.3972                                         !
 ! D41   D(13,14,17,20)        179.3577                                         !
 ! D42   D(13,14,17,21)        -61.4288                                         !
 ! D43   D(13,14,17,22)         60.0967                                         !
 ! D44   D(15,14,17,20)         56.7626                                         !
 ! D45   D(15,14,17,21)        175.9761                                         !
 ! D46   D(15,14,17,22)        -62.4984                                         !
 ! D47   D(19,14,17,20)        -59.9528                                         !
 ! D48   D(19,14,17,21)         59.2607                                         !
 ! D49   D(19,14,17,22)       -179.2138                                         !
 ! D50   D(14,15,23,24)       -177.313                                          !
 ! D51   D(14,15,23,30)        -21.5899                                         !
 ! D52   D(16,15,23,24)          3.4872                                         !
 ! D53   D(16,15,23,30)        159.2103                                         !
 ! D54   D(15,23,24,25)       -154.1582                                         !
 ! D55   D(15,23,24,27)         80.1511                                         !
 ! D56   D(15,23,24,31)        -38.5729                                         !
 ! D57   D(30,23,24,25)         49.9076                                         !
 ! D58   D(30,23,24,27)        -75.783                                          !
 ! D59   D(30,23,24,31)        165.4929                                         !
 ! D60   D(23,24,25,26)       -164.7321                                         !
 ! D61   D(23,24,25,28)         14.607                                          !
 ! D62   D(27,24,25,26)        -37.2162                                         !
 ! D63   D(27,24,25,28)        142.1229                                         !
 ! D64   D(31,24,25,26)         79.9779                                         !
 ! D65   D(31,24,25,28)       -100.683                                          !
 ! D66   D(23,24,27,32)       -179.2779                                         !
 ! D67   D(23,24,27,33)        -59.5073                                         !
 ! D68   D(23,24,27,34)         60.3912                                         !
 ! D69   D(25,24,27,32)         54.1907                                         !
 ! D70   D(25,24,27,33)        173.9613                                         !
 ! D71   D(25,24,27,34)        -66.1402                                         !
 ! D72   D(31,24,27,32)        -61.8769                                         !
 ! D73   D(31,24,27,33)         57.8937                                         !
 ! D74   D(31,24,27,34)        177.7923                                         !
 ! D75   D(24,25,28,29)       -176.0375                                         !
 ! D76   D(26,25,28,29)          3.3403                                         !
 --------------------------------------------------------------------------------
                          Input orientation:                          
 ---------------------------------------------------------------------
 Center     Atomic      Atomic             Coordinates (Angstroms)
 Number     Number       Type             X           Y           Z
 ---------------------------------------------------------------------
      1          7           0       -2.084950  -13.760381   -8.960431
      2          6           0       -1.280036  -12.629132   -8.342891
      3          6           0        0.137896  -13.256509   -8.327469
      4          8           0        0.415365  -14.021431   -9.250696
      5          6           0       -1.888809  -12.195786   -7.016763
      6          1           0       -2.216870  -14.522092   -8.261388
      7          1           0       -1.292921  -11.813526   -9.073040
      8          1           0       -1.888932  -13.016112   -6.292233
      9          1           0       -2.918256  -11.848325   -7.151254
     10          1           0       -1.327412  -11.351965   -6.604291
     11          1           0       -1.476260  -14.149708   -9.707782
     12          1           0       -2.990442  -13.460666   -9.332265
     13          7           0        0.947249  -13.033318   -7.278004
     14          6           0        2.076760  -13.952331   -7.050505
     15          6           0        1.563995  -15.411115   -6.978666
     16          8           0        2.238263  -16.338909   -7.379956
     17          6           0        2.837729  -13.563138   -5.782994
     18          1           0        0.687418  -12.383174   -6.548566
     19          1           0        2.737767  -13.922822   -7.919309
     20          1           0        3.661969  -14.263818   -5.628754
     21          1           0        3.256238  -12.555838   -5.873312
     22          1           0        2.191293  -13.600948   -4.897278
     23          7           0        0.299730  -15.567936   -6.449451
     24          6           0       -0.257837  -16.900506   -6.280786
     25          6           0       -1.779285  -16.885373   -6.303031
     26          8           0       -2.482024  -17.783549   -5.932904
     27          6           0        0.249329  -17.626316   -5.024647
     28          8           0       -2.362045  -15.706134   -6.788851
     29          1           0       -3.319867  -15.866449   -6.662569
     30          1           0       -0.065576  -14.833629   -5.858174
     31          1           0        0.060002  -17.474216   -7.161125
     32          1           0       -0.190667  -18.623462   -4.955570
     33          1           0        1.335895  -17.714931   -5.092021
     34          1           0       -0.011706  -17.067450   -4.119531
 ---------------------------------------------------------------------
                    Distance matrix (angstroms):
                    1          2          3          4          5
     1  N    0.000000
     2  C    1.519528   0.000000
     3  C    2.365497   1.550604   0.000000
     4  O    2.530608   2.374235   1.230627   0.000000
     5  C    2.502853   1.522172   2.636402   3.692242   0.000000
     6  H    1.042242   2.113669   2.674134   2.856231   2.658650
     7  H    2.104812   1.094758   2.164559   2.797257   2.174736
     8  H    2.776983   2.173869   2.882362   3.882391   1.094476
     9  H    2.761065   2.171042   3.564622   4.499231   1.094797
    10  H    3.453364   2.157807   2.956985   4.143282   1.094227
    11  H    1.039526   2.052701   2.304033   1.950289   3.351058
    12  H    1.023721   2.143780   3.292081   3.452627   2.859207
    13  N    3.543079   2.501629   1.343965   2.269534   2.968657
    14  C    4.583066   3.832649   2.423633   2.757871   4.337317
    15  C    4.468457   4.205835   2.914679   2.900464   4.718225
    16  O    5.276066   5.202703   3.848442   3.491895   5.859189
    17  C    5.862404   4.937756   3.722562   4.254743   5.072672
    18  H    3.924259   2.674131   2.056497   3.171656   2.625122
    19  H    4.936489   4.242146   2.714755   2.678781   5.020204
    20  H    6.661877   5.870448   4.551573   4.870078   6.083951
    21  H    6.285659   5.165460   4.029625   4.650295   5.282861
    22  H    5.900922   4.986662   4.012640   4.720485   4.807694
    23  N    3.906273   3.836319   2.982588   3.201878   4.059919
    24  C    4.514336   4.851990   4.198122   4.190781   5.033500
    25  C    4.113488   4.746142   4.576307   4.659118   4.744854
    26  O    5.050690   5.815567   5.752566   5.792766   5.722740
    27  C    5.990384   6.190440   5.478709   5.557180   6.166913
    28  O    2.928907   3.612994   3.823312   4.075894   3.549428
    29  H    3.352717   4.179069   4.641100   4.904534   3.955649
    30  H    3.854054   3.536741   2.937027   3.521389   3.409505
    31  H    4.650902   5.164020   4.376697   4.051458   5.628546
    32  H    6.578509   6.970844   6.346798   6.324087   6.960404
    33  H    6.504248   6.578496   5.637450   5.637721   6.675651
    34  H    6.218469   6.256524   5.679118   5.982430   5.970811
                    6          7          8          9         10
     6  H    0.000000
     7  H    2.974691   0.000000
     8  H    2.500618   3.087770   0.000000
     9  H    2.978821   2.517178   1.777962   0.000000
    10  H    3.686029   2.511762   1.783835   1.753946   0.000000
    11  H    1.667102   2.427808   3.622335   3.729819   4.181049
    12  H    1.694643   2.379462   3.263854   2.713238   3.828071
    13  N    3.632512   3.119039   3.002659   4.045047   2.907734
    14  C    4.497347   4.474358   4.144659   5.420994   4.306901
    15  C    4.090315   5.048862   4.257926   5.728336   4.997708
    16  O    4.891417   5.984553   5.409054   6.841589   6.179426
    17  C    5.710605   5.563076   4.785383   6.159877   4.786671
    18  H    3.992946   3.258712   2.665314   3.694616   2.264076
    19  H    5.002457   4.693258   4.987570   6.073224   4.986408
    20  H    6.446567   6.512908   5.727957   7.173004   5.858711
    21  H    6.286810   5.611072   5.182676   6.344926   4.795153
    22  H    5.621178   5.724649   4.351571   5.853169   4.511441
    23  N    3.272641   4.849262   3.365526   4.968246   4.521723
    24  C    3.662984   5.894527   4.212971   5.775819   5.659943
    25  C    3.100281   5.799408   3.870830   5.233412   5.559996
    26  O    4.016123   6.849495   4.817607   6.074665   6.568802
    27  C    5.118089   7.249589   5.237644   6.923961   6.659494
    28  O    1.895098   4.638204   2.776092   3.914511   4.479209
    29  H    2.362228   5.132744   3.210786   4.067607   4.934961
    30  H    3.240457   4.578510   2.610824   4.326879   3.777685
    31  H    3.887127   6.126110   4.942470   6.365592   6.302137
    32  H    5.644038   8.033912   6.009422   7.626484   7.542224
    33  H    5.732473   7.588528   5.823996   7.533612   7.061693
    34  H    5.338218   7.333653   4.965678   6.699152   6.369606
                   11         12         13         14         15
    11  H    0.000000
    12  H    1.705444   0.000000
    13  N    3.608814   4.461840   0.000000
    14  C    4.441174   5.578951   1.473817   0.000000
    15  C    4.275789   5.485123   2.474651   1.547947   0.000000
    16  O    4.899904   6.279741   3.550218   2.414617   1.215102
    17  C    5.861614   6.824617   2.467728   1.528767   2.543039
    18  H    4.216964   4.736731   1.011077   2.155102   3.181477
    19  H    4.583463   5.917974   2.099630   1.092072   2.116026
    20  H    6.561470   7.656084   3.406444   2.152043   2.745915
    21  H    6.296040   7.197505   2.744554   2.174199   3.498299
    22  H    6.073963   6.821961   2.745488   2.184714   2.828848
    23  N    3.972685   4.855556   2.744097   2.475738   1.379502
    24  C    4.560236   5.348940   4.171549   3.838561   2.454464
    25  C    4.378130   4.729882   4.819013   4.902095   3.715837
    26  O    5.335360   5.522813   6.011148   6.058859   4.805448
    27  C    6.082451   6.812072   5.163365   4.576218   3.233211
    28  O    3.424506   3.450502   4.281897   4.779882   3.941682
    29  H    3.952140   3.608821   5.158844   5.739158   4.915217
    30  H    4.156592   4.744383   2.506561   2.605368   2.060217
    31  H    4.460708   5.488865   4.530170   4.059953   2.559623
    32  H    6.652124   7.324525   6.159404   5.599058   4.182216
    33  H    6.474896   7.402407   5.181415   4.306007   2.986474
    34  H    6.471992   7.003881   5.212462   4.759859   3.660728
                   16         17         18         19         20
    16  O    0.000000
    17  C    3.257998   0.000000
    18  H    4.329453   2.569485   0.000000
    19  H    2.525447   2.168688   2.907470   0.000000
    20  H    3.065885   1.092755   3.637421   2.493405   0.000000
    21  H    4.197365   1.094513   2.661695   2.514669   1.772462
    22  H    3.696259   1.097180   2.543888   3.087865   1.771255
    23  N    2.284327   3.302245   3.209802   3.287994   3.698503
    24  C    2.784615   4.579122   4.622932   4.530453   4.768873
    25  C    4.195126   5.711787   5.139524   5.638513   6.077372
    26  O    5.144128   6.792210   6.291935   6.789495   7.087289
    27  C    3.340771   4.876917   5.477662   5.318577   4.828815
    28  O    4.681094   5.713303   4.516528   5.519622   6.301972
    29  H    5.624115   6.632865   5.310795   6.484753   7.237627
    30  H    3.144736   3.170013   2.654877   3.596746   3.777819
    31  H    2.466096   4.991147   5.166003   4.511947   5.062508
    32  H    4.122685   5.955057   6.499990   6.281361   5.856832
    33  H    2.818217   4.468818   5.565041   4.933446   4.196294
    34  H    4.027840   4.813168   5.322727   5.646822   4.861481
                   21         22         23         24         25
    21  H    0.000000
    22  H    1.782977   0.000000
    23  N    4.259766   3.139473   0.000000
    24  C    5.602758   4.335829   1.454329   0.000000
    25  C    6.654775   5.341262   2.465641   1.521686   0.000000
    26  O    7.762742   6.356616   3.593594   2.418221   1.198981
    27  C    5.955794   4.471133   2.503904   1.536848   2.509688
    28  O    6.505973   5.361226   2.686882   2.472316   1.402225
    29  H    7.404609   6.214631   3.638133   3.254391   1.881719
    30  H    4.027780   2.745229   1.011071   2.118383   2.710046
    31  H    6.005400   4.966851   2.048866   1.097799   2.113300
    32  H    7.038428   5.559027   3.436337   2.174692   2.712989
    33  H    5.560069   4.206482   2.743327   2.148588   3.443698
    34  H    5.840363   4.180278   2.788200   2.181621   2.815166
                   26         27         28         29         30
    26  O    0.000000
    27  C    2.882697   0.000000
    28  O    2.250043   3.690364   0.000000
    29  H    2.215776   4.303380   0.979322   0.000000
    30  H    3.814031   2.931388   2.627012   3.507732   0.000000
    31  H    2.840090   2.150237   3.021756   3.775843   2.947228
    32  H    2.628869   1.092094   4.072665   4.506313   3.897843
    33  H    3.910026   1.092253   4.537539   5.249727   3.294391
    34  H    3.146997   1.095311   3.808220   4.342048   2.831207
                   31         32         33         34
    31  H    0.000000
    32  H    2.499616   0.000000
    33  H    2.442752   1.781696   0.000000
    34  H    3.069510   1.775433   1.783535   0.000000
 Symmetry turned off by external request.
 Stoichiometry    C9H18N3O4(1+)
 Framework group  C1[X(C9H18N3O4)]
 Deg. of freedom    96
 Full point group                 C1      NOp   1
 Rotational constants (GHZ):           0.5795775           0.4688746           0.3139628
 Standard basis: 6-31G(d) (6D, 7F)
   276 basis functions,   520 primitive gaussians,   276 cartesian basis functions
    62 alpha electrons       62 beta electrons
       nuclear repulsion energy      1254.2442472102 Hartrees.
 NAtoms=   34 NActive=   34 NUniq=   34 SFac= 1.00D+00 NAtFMM=   60 NAOKFM=F Big=F
 Integral buffers will be    131072 words long.
 Raffenetti 2 integral format.
 Two-electron integral symmetry is turned off.
 Nuclear repulsion after empirical dispersion term =     1254.2051005214 Hartrees.
 One-electron integrals computed using PRISM.
 NBasis=   276 RedAO= T EigKep=  2.05D-03  NBF=   276
 NBsUse=   276 1.00D-06 EigRej= -1.00D+00 NBFU=   276
 Initial guess from the checkpoint file:  "conf-474.chk"
 B after Tr=     0.000000    0.000000    0.000000
         Rot=    1.000000    0.000000    0.000000    0.000000 Ang=   0.00 deg.
 Requested convergence on RMS density matrix=1.00D-08 within 128 cycles.
 Requested convergence on MAX density matrix=1.00D-06.
 Requested convergence on             energy=1.00D-06.
 No special actions if energy rises.
 SCF Done:  E(RB3LYP) =  -818.799015651     A.U. after    3 cycles
            NFock=  3  Conv=0.88D-09     -V/T= 2.0093

 **********************************************************************

            Population analysis using the SCF Density.

 **********************************************************************

 Alpha  occ. eigenvalues --  -19.35431 -19.28502 -19.28363 -19.24005 -14.61933
 Alpha  occ. eigenvalues --  -14.52543 -14.49032 -10.46300 -10.45826 -10.43481
 Alpha  occ. eigenvalues --  -10.41255 -10.36956 -10.36943 -10.36420 -10.31293
 Alpha  occ. eigenvalues --  -10.29020  -1.24900  -1.21436  -1.16441  -1.16183
 Alpha  occ. eigenvalues --   -1.15718  -1.08896  -1.05376  -0.95821  -0.91242
 Alpha  occ. eigenvalues --   -0.88820  -0.84000  -0.80099  -0.78737  -0.76728
 Alpha  occ. eigenvalues --   -0.75827  -0.73901  -0.72749  -0.71401  -0.68408
 Alpha  occ. eigenvalues --   -0.66659  -0.65207  -0.62945  -0.62796  -0.60889
 Alpha  occ. eigenvalues --   -0.60133  -0.59782  -0.57202  -0.56659  -0.56437
 Alpha  occ. eigenvalues --   -0.55916  -0.55562  -0.55076  -0.53741  -0.53073
 Alpha  occ. eigenvalues --   -0.52061  -0.51395  -0.49877  -0.49222  -0.48554
 Alpha  occ. eigenvalues --   -0.47426  -0.46550  -0.43002  -0.42412  -0.41968
 Alpha  occ. eigenvalues --   -0.38578  -0.36810
 Alpha virt. eigenvalues --   -0.15953  -0.13579  -0.11859  -0.10043  -0.08504
 Alpha virt. eigenvalues --   -0.07446  -0.05984  -0.04765  -0.03418  -0.01577
 Alpha virt. eigenvalues --   -0.01025  -0.00349   0.00456   0.01291   0.01473
 Alpha virt. eigenvalues --    0.02858   0.03239   0.03511   0.04078   0.05458
 Alpha virt. eigenvalues --    0.05965   0.06865   0.06911   0.07565   0.08843
 Alpha virt. eigenvalues --    0.09035   0.10245   0.11332   0.12996   0.15130
 Alpha virt. eigenvalues --    0.18300   0.19384   0.20123   0.24359   0.26903
 Alpha virt. eigenvalues --    0.29182   0.32439   0.33753   0.35308   0.36066
 Alpha virt. eigenvalues --    0.36927   0.38599   0.39904   0.41319   0.42418
 Alpha virt. eigenvalues --    0.43091   0.44584   0.45562   0.46503   0.48636
 Alpha virt. eigenvalues --    0.49216   0.49647   0.50551   0.50996   0.53127
 Alpha virt. eigenvalues --    0.54151   0.55200   0.56392   0.58096   0.58986
 Alpha virt. eigenvalues --    0.59194   0.61011   0.61553   0.62029   0.63410
 Alpha virt. eigenvalues --    0.64472   0.65061   0.65666   0.67799   0.68827
 Alpha virt. eigenvalues --    0.69595   0.70714   0.71834   0.72761   0.73854
 Alpha virt. eigenvalues --    0.74689   0.75736   0.75864   0.76220   0.77539
 Alpha virt. eigenvalues --    0.78078   0.79170   0.79575   0.80171   0.81446
 Alpha virt. eigenvalues --    0.82445   0.83367   0.83833   0.84329   0.85703
 Alpha virt. eigenvalues --    0.86054   0.88730   0.90178   0.91314   0.94302
 Alpha virt. eigenvalues --    0.94989   0.98146   0.98309   0.99380   1.01249
 Alpha virt. eigenvalues --    1.04710   1.06231   1.08859   1.09535   1.10351
 Alpha virt. eigenvalues --    1.15000   1.16599   1.19260   1.20272   1.21884
 Alpha virt. eigenvalues --    1.22917   1.27377   1.27748   1.30129   1.32303
 Alpha virt. eigenvalues --    1.35357   1.37482   1.40462   1.42005   1.46802
 Alpha virt. eigenvalues --    1.48966   1.49899   1.51663   1.54113   1.55082
 Alpha virt. eigenvalues --    1.57701   1.57957   1.59764   1.60486   1.62997
 Alpha virt. eigenvalues --    1.64509   1.64659   1.65513   1.67928   1.68603
 Alpha virt. eigenvalues --    1.69414   1.70421   1.71705   1.72333   1.74421
 Alpha virt. eigenvalues --    1.77083   1.77261   1.78567   1.79879   1.81840
 Alpha virt. eigenvalues --    1.83014   1.83984   1.85849   1.87262   1.87602
 Alpha virt. eigenvalues --    1.89727   1.90850   1.91234   1.92665   1.93285
 Alpha virt. eigenvalues --    1.95486   1.96537   1.98437   2.00526   2.06257
 Alpha virt. eigenvalues --    2.08311   2.09677   2.10173   2.13335   2.13694
 Alpha virt. eigenvalues --    2.15681   2.17098   2.17835   2.19760   2.21889
 Alpha virt. eigenvalues --    2.24238   2.25101   2.29557   2.30436   2.32017
 Alpha virt. eigenvalues --    2.35059   2.37252   2.37517   2.40565   2.41703
 Alpha virt. eigenvalues --    2.46418   2.49423   2.50291   2.52700   2.55177
 Alpha virt. eigenvalues --    2.55354   2.58013   2.62027   2.64847   2.71573
 Alpha virt. eigenvalues --    2.75279   2.78397   2.84889   2.86306   2.88620
 Alpha virt. eigenvalues --    2.98415   3.00792   3.03103   3.65793   3.76413
 Alpha virt. eigenvalues --    3.88377   3.90076   3.96837   4.01664   4.04520
 Alpha virt. eigenvalues --    4.05881   4.08745   4.13796   4.19894   4.22918
 Alpha virt. eigenvalues --    4.31524   4.41173   4.50639   4.56012
          Condensed to atoms (all electrons):
               1          2          3          4          5          6
     1  N    6.962823   0.216326  -0.047409  -0.032468  -0.051318   0.230230
     2  C    0.216326   5.259279   0.299805  -0.088459   0.329865  -0.019269
     3  C   -0.047409   0.299805   4.361482   0.523033  -0.035071  -0.000810
     4  O   -0.032468  -0.088459   0.523033   8.108517   0.002461   0.001494
     5  C   -0.051318   0.329865  -0.035071   0.002461   5.158997  -0.002287
     6  H    0.230230  -0.019269  -0.000810   0.001494  -0.002287   0.296422
     7  H   -0.036751   0.375341  -0.026339   0.000780  -0.032189   0.003135
     8  H   -0.003568  -0.035760  -0.004211   0.000046   0.370144   0.003505
     9  H   -0.002938  -0.023955   0.002697  -0.000064   0.370420  -0.000259
    10  H    0.003764  -0.025906  -0.003187  -0.000000   0.372042   0.000025
    11  H    0.249524  -0.038115  -0.006146   0.062172   0.004993  -0.006505
    12  H    0.299001  -0.020164   0.004726   0.000923   0.000127  -0.009312
    13  N    0.000049  -0.114236   0.319667  -0.087028   0.005860   0.000228
    14  C   -0.000031   0.007398  -0.035670   0.004011  -0.000279  -0.000052
    15  C    0.000114  -0.001082  -0.005164   0.008714  -0.000008  -0.000005
    16  O   -0.000000  -0.000011  -0.000608  -0.000845   0.000000  -0.000002
    17  C    0.000001  -0.000173   0.005375   0.000500  -0.000033   0.000001
    18  H    0.000151  -0.002043  -0.022556   0.002749   0.004508  -0.000005
    19  H   -0.000011   0.000175  -0.002763   0.004111   0.000003  -0.000001
    20  H   -0.000000   0.000003  -0.000046   0.000001  -0.000000  -0.000000
    21  H    0.000000   0.000003  -0.000013  -0.000001  -0.000004  -0.000000
    22  H   -0.000000  -0.000004  -0.000163  -0.000009   0.000003   0.000000
    23  N   -0.000064  -0.000428   0.010431  -0.004718  -0.000546   0.001370
    24  C   -0.000087  -0.000001  -0.000227  -0.000020   0.000018   0.000279
    25  C    0.000103   0.000001  -0.000072  -0.000003   0.000011   0.000416
    26  O   -0.000009   0.000000   0.000000  -0.000000  -0.000001   0.000255
    27  C   -0.000000  -0.000001   0.000024   0.000001   0.000000   0.000012
    28  O   -0.023020   0.000643   0.000216  -0.000050  -0.002282   0.064078
    29  H    0.000891  -0.000035  -0.000009   0.000001   0.000156  -0.001985
    30  H   -0.000069   0.000103  -0.001887  -0.000262   0.000396  -0.000152
    31  H    0.000013  -0.000006  -0.000106   0.000121  -0.000001  -0.000055
    32  H    0.000000   0.000000  -0.000000   0.000000   0.000000  -0.000001
    33  H   -0.000000  -0.000000  -0.000000   0.000000   0.000000   0.000000
    34  H    0.000000   0.000000  -0.000001   0.000000  -0.000000  -0.000001
               7          8          9         10         11         12
     1  N   -0.036751  -0.003568  -0.002938   0.003764   0.249524   0.299001
     2  C    0.375341  -0.035760  -0.023955  -0.025906  -0.038115  -0.020164
     3  C   -0.026339  -0.004211   0.002697  -0.003187  -0.006146   0.004726
     4  O    0.000780   0.000046  -0.000064  -0.000000   0.062172   0.000923
     5  C   -0.032189   0.370144   0.370420   0.372042   0.004993   0.000127
     6  H    0.003135   0.003505  -0.000259   0.000025  -0.006505  -0.009312
     7  H    0.477267   0.003993  -0.002839  -0.002377   0.000487  -0.003321
     8  H    0.003993   0.514526  -0.025383  -0.022807   0.000028  -0.000194
     9  H   -0.002839  -0.025383   0.501241  -0.020665  -0.000182   0.001703
    10  H   -0.002377  -0.022807  -0.020665   0.488542  -0.000099  -0.000074
    11  H    0.000487   0.000028  -0.000182  -0.000099   0.307829  -0.008925
    12  H   -0.003321  -0.000194   0.001703  -0.000074  -0.008925   0.324192
    13  N    0.000738   0.001096   0.000197   0.000141   0.002420  -0.000087
    14  C   -0.000162  -0.000231   0.000001   0.000099  -0.000100   0.000002
    15  C   -0.000007   0.000051  -0.000001   0.000005   0.000055   0.000001
    16  O    0.000000   0.000000  -0.000000  -0.000000   0.000004  -0.000000
    17  C    0.000003   0.000003   0.000000  -0.000013  -0.000001  -0.000000
    18  H    0.000103   0.000034  -0.000048   0.003750  -0.000107  -0.000006
    19  H    0.000013  -0.000000   0.000000  -0.000004  -0.000015  -0.000000
    20  H   -0.000000  -0.000000   0.000000  -0.000000  -0.000000   0.000000
    21  H   -0.000000  -0.000000  -0.000000   0.000002   0.000000   0.000000
    22  H    0.000000  -0.000001   0.000000  -0.000007   0.000000  -0.000000
    23  N    0.000009   0.000616   0.000004   0.000008   0.000090   0.000007
    24  C   -0.000001  -0.000136  -0.000000   0.000001   0.000004   0.000001
    25  C    0.000000   0.000209  -0.000000   0.000000   0.000005   0.000002
    26  O   -0.000000   0.000004   0.000000   0.000000   0.000000   0.000000
    27  C    0.000000  -0.000002   0.000000  -0.000000   0.000000   0.000000
    28  O   -0.000010   0.006959  -0.000002   0.000037   0.000110   0.000254
    29  H    0.000001  -0.000030   0.000005  -0.000001   0.000007   0.000006
    30  H    0.000018   0.002726  -0.000004  -0.000053  -0.000003  -0.000005
    31  H   -0.000000   0.000000  -0.000000   0.000000   0.000004   0.000000
    32  H   -0.000000  -0.000000  -0.000000  -0.000000  -0.000000  -0.000000
    33  H   -0.000000  -0.000000   0.000000   0.000000   0.000000   0.000000
    34  H   -0.000000  -0.000001   0.000000   0.000000  -0.000000  -0.000000
              13         14         15         16         17         18
     1  N    0.000049  -0.000031   0.000114  -0.000000   0.000001   0.000151
     2  C   -0.114236   0.007398  -0.001082  -0.000011  -0.000173  -0.002043
     3  C    0.319667  -0.035670  -0.005164  -0.000608   0.005375  -0.022556
     4  O   -0.087028   0.004011   0.008714  -0.000845   0.000500   0.002749
     5  C    0.005860  -0.000279  -0.000008   0.000000  -0.000033   0.004508
     6  H    0.000228  -0.000052  -0.000005  -0.000002   0.000001  -0.000005
     7  H    0.000738  -0.000162  -0.000007   0.000000   0.000003   0.000103
     8  H    0.001096  -0.000231   0.000051   0.000000   0.000003   0.000034
     9  H    0.000197   0.000001  -0.000001  -0.000000   0.000000  -0.000048
    10  H    0.000141   0.000099   0.000005  -0.000000  -0.000013   0.003750
    11  H    0.002420  -0.000100   0.000055   0.000004  -0.000001  -0.000107
    12  H   -0.000087   0.000002   0.000001  -0.000000  -0.000000  -0.000006
    13  N    7.155934   0.170817  -0.048920   0.002805  -0.039082   0.295447
    14  C    0.170817   5.113809   0.350602  -0.063216   0.349189  -0.019695
    15  C   -0.048920   0.350602   4.399932   0.572802  -0.036936   0.001245
    16  O    0.002805  -0.063216   0.572802   8.030609  -0.001319  -0.000067
    17  C   -0.039082   0.349189  -0.036936  -0.001319   5.126975  -0.002276
    18  H    0.295447  -0.019695   0.001245  -0.000067  -0.002276   0.379641
    19  H   -0.040751   0.371785  -0.037007   0.004424  -0.027549   0.002814
    20  H    0.003675  -0.029346   0.000089   0.002291   0.377336  -0.000156
    21  H   -0.002023  -0.028570   0.004067  -0.000050   0.373656   0.001679
    22  H   -0.004351  -0.033574  -0.007859  -0.000017   0.367502   0.003359
    23  N   -0.002423  -0.125687   0.217272  -0.100519  -0.000053  -0.000355
    24  C    0.000082   0.005596  -0.016568   0.007576  -0.000217   0.000021
    25  C    0.000004   0.000005   0.003510   0.000670  -0.000005   0.000003
    26  O   -0.000000   0.000000  -0.000038  -0.000000  -0.000000   0.000000
    27  C   -0.000011  -0.000480  -0.002770  -0.004543   0.000063  -0.000001
    28  O   -0.000047  -0.000008   0.000002  -0.000002   0.000000  -0.000009
    29  H    0.000001  -0.000001   0.000025   0.000000  -0.000000   0.000000
    30  H    0.008009  -0.000861  -0.021774   0.003073   0.000688   0.000653
    31  H   -0.000091   0.000785  -0.001937   0.013776  -0.000009   0.000002
    32  H    0.000000   0.000005  -0.000011  -0.000029  -0.000000   0.000000
    33  H   -0.000003   0.000060   0.003800   0.005898  -0.000010   0.000000
    34  H   -0.000003   0.000010  -0.000077   0.000019  -0.000002   0.000000
              19         20         21         22         23         24
     1  N   -0.000011  -0.000000   0.000000  -0.000000  -0.000064  -0.000087
     2  C    0.000175   0.000003   0.000003  -0.000004  -0.000428  -0.000001
     3  C   -0.002763  -0.000046  -0.000013  -0.000163   0.010431  -0.000227
     4  O    0.004111   0.000001  -0.000001  -0.000009  -0.004718  -0.000020
     5  C    0.000003  -0.000000  -0.000004   0.000003  -0.000546   0.000018
     6  H   -0.000001  -0.000000  -0.000000   0.000000   0.001370   0.000279
     7  H    0.000013  -0.000000  -0.000000   0.000000   0.000009  -0.000001
     8  H   -0.000000  -0.000000  -0.000000  -0.000001   0.000616  -0.000136
     9  H    0.000000   0.000000  -0.000000   0.000000   0.000004  -0.000000
    10  H   -0.000004  -0.000000   0.000002  -0.000007   0.000008   0.000001
    11  H   -0.000015  -0.000000   0.000000   0.000000   0.000090   0.000004
    12  H   -0.000000   0.000000   0.000000  -0.000000   0.000007   0.000001
    13  N   -0.040751   0.003675  -0.002023  -0.004351  -0.002423   0.000082
    14  C    0.371785  -0.029346  -0.028570  -0.033574  -0.125687   0.005596
    15  C   -0.037007   0.000089   0.004067  -0.007859   0.217272  -0.016568
    16  O    0.004424   0.002291  -0.000050  -0.000017  -0.100519   0.007576
    17  C   -0.027549   0.377336   0.373656   0.367502  -0.000053  -0.000217
    18  H    0.002814  -0.000156   0.001679   0.003359  -0.000355   0.000021
    19  H    0.494697  -0.001682  -0.005096   0.004610   0.004999  -0.000120
    20  H   -0.001682   0.473553  -0.020282  -0.023567   0.000386  -0.000025
    21  H   -0.005096  -0.020282   0.517288  -0.030866  -0.000127   0.000005
    22  H    0.004610  -0.023567  -0.030866   0.567602   0.002794  -0.000155
    23  N    0.004999   0.000386  -0.000127   0.002794   7.269363   0.201074
    24  C   -0.000120  -0.000025   0.000005  -0.000155   0.201074   5.065716
    25  C    0.000001  -0.000000   0.000000   0.000000  -0.029118   0.311116
    26  O   -0.000000   0.000000   0.000000  -0.000000   0.001970  -0.068623
    27  C   -0.000000   0.000014  -0.000001   0.000039  -0.058134   0.371802
    28  O    0.000000   0.000000  -0.000000  -0.000000   0.000350  -0.079606
    29  H    0.000000  -0.000000  -0.000000   0.000000  -0.000091   0.008572
    30  H    0.000293  -0.000133  -0.000060   0.002040   0.288137  -0.031970
    31  H   -0.000013  -0.000004   0.000000  -0.000000  -0.046998   0.373494
    32  H    0.000000  -0.000000   0.000000   0.000000   0.004547  -0.026795
    33  H   -0.000001   0.000003   0.000001   0.000006  -0.006053  -0.027011
    34  H    0.000000  -0.000001   0.000000   0.000025  -0.002776  -0.036075
              25         26         27         28         29         30
     1  N    0.000103  -0.000009  -0.000000  -0.023020   0.000891  -0.000069
     2  C    0.000001   0.000000  -0.000001   0.000643  -0.000035   0.000103
     3  C   -0.000072   0.000000   0.000024   0.000216  -0.000009  -0.001887
     4  O   -0.000003  -0.000000   0.000001  -0.000050   0.000001  -0.000262
     5  C    0.000011  -0.000001   0.000000  -0.002282   0.000156   0.000396
     6  H    0.000416   0.000255   0.000012   0.064078  -0.001985  -0.000152
     7  H    0.000000  -0.000000   0.000000  -0.000010   0.000001   0.000018
     8  H    0.000209   0.000004  -0.000002   0.006959  -0.000030   0.002726
     9  H   -0.000000   0.000000   0.000000  -0.000002   0.000005  -0.000004
    10  H    0.000000   0.000000  -0.000000   0.000037  -0.000001  -0.000053
    11  H    0.000005   0.000000   0.000000   0.000110   0.000007  -0.000003
    12  H    0.000002   0.000000   0.000000   0.000254   0.000006  -0.000005
    13  N    0.000004  -0.000000  -0.000011  -0.000047   0.000001   0.008009
    14  C    0.000005   0.000000  -0.000480  -0.000008  -0.000001  -0.000861
    15  C    0.003510  -0.000038  -0.002770   0.000002   0.000025  -0.021774
    16  O    0.000670  -0.000000  -0.004543  -0.000002   0.000000   0.003073
    17  C   -0.000005  -0.000000   0.000063   0.000000  -0.000000   0.000688
    18  H    0.000003   0.000000  -0.000001  -0.000009   0.000000   0.000653
    19  H    0.000001  -0.000000  -0.000000   0.000000   0.000000   0.000293
    20  H   -0.000000   0.000000   0.000014   0.000000  -0.000000  -0.000133
    21  H    0.000000   0.000000  -0.000001  -0.000000  -0.000000  -0.000060
    22  H    0.000000  -0.000000   0.000039  -0.000000   0.000000   0.002040
    23  N   -0.029118   0.001970  -0.058134   0.000350  -0.000091   0.288137
    24  C    0.311116  -0.068623   0.371802  -0.079606   0.008572  -0.031970
    25  C    4.409679   0.581367  -0.048566   0.209919  -0.003623  -0.003631
    26  O    0.581367   7.949999  -0.000900  -0.083919   0.015252  -0.000034
    27  C   -0.048566  -0.000900   5.107112   0.001873  -0.000250   0.000187
    28  O    0.209919  -0.083919   0.001873   8.324559   0.211056   0.003811
    29  H   -0.003623   0.015252  -0.000250   0.211056   0.341930  -0.000219
    30  H   -0.003631  -0.000034   0.000187   0.003811  -0.000219   0.420927
    31  H   -0.031162  -0.001295  -0.031646   0.001179  -0.000239   0.004951
    32  H   -0.002538   0.005820   0.367695   0.000121  -0.000015  -0.000071
    33  H    0.005100   0.000283   0.371041  -0.000043   0.000005  -0.000319
    34  H   -0.005336   0.000239   0.376460   0.000115  -0.000027   0.002671
              31         32         33         34
     1  N    0.000013   0.000000  -0.000000   0.000000
     2  C   -0.000006   0.000000  -0.000000   0.000000
     3  C   -0.000106  -0.000000  -0.000000  -0.000001
     4  O    0.000121   0.000000   0.000000   0.000000
     5  C   -0.000001   0.000000   0.000000  -0.000000
     6  H   -0.000055  -0.000001   0.000000  -0.000001
     7  H   -0.000000  -0.000000  -0.000000  -0.000000
     8  H    0.000000  -0.000000  -0.000000  -0.000001
     9  H   -0.000000  -0.000000   0.000000   0.000000
    10  H    0.000000  -0.000000   0.000000   0.000000
    11  H    0.000004  -0.000000   0.000000  -0.000000
    12  H    0.000000  -0.000000   0.000000  -0.000000
    13  N   -0.000091   0.000000  -0.000003  -0.000003
    14  C    0.000785   0.000005   0.000060   0.000010
    15  C   -0.001937  -0.000011   0.003800  -0.000077
    16  O    0.013776  -0.000029   0.005898   0.000019
    17  C   -0.000009  -0.000000  -0.000010  -0.000002
    18  H    0.000002   0.000000   0.000000   0.000000
    19  H   -0.000013   0.000000  -0.000001   0.000000
    20  H   -0.000004  -0.000000   0.000003  -0.000001
    21  H    0.000000   0.000000   0.000001   0.000000
    22  H   -0.000000   0.000000   0.000006   0.000025
    23  N   -0.046998   0.004547  -0.006053  -0.002776
    24  C    0.373494  -0.026795  -0.027011  -0.036075
    25  C   -0.031162  -0.002538   0.005100  -0.005336
    26  O   -0.001295   0.005820   0.000283   0.000239
    27  C   -0.031646   0.367695   0.371041   0.376460
    28  O    0.001179   0.000121  -0.000043   0.000115
    29  H   -0.000239  -0.000015   0.000005  -0.000027
    30  H    0.004951  -0.000071  -0.000319   0.002671
    31  H    0.483759  -0.000724  -0.004653   0.004445
    32  H   -0.000724   0.495415  -0.021006  -0.023926
    33  H   -0.004653  -0.021006   0.503388  -0.027619
    34  H    0.004445  -0.023926  -0.027619   0.556865
 Mulliken charges:
               1
     1  N   -0.765247
     2  C   -0.119297
     3  C    0.664999
     4  O   -0.505707
     5  C   -0.495986
     6  H    0.439251
     7  H    0.242106
     8  H    0.188385
     9  H    0.200070
    10  H    0.206779
    11  H    0.432468
    12  H    0.411144
    13  N   -0.628113
    14  C   -0.036213
    15  C    0.617880
    16  O   -0.472718
    17  C   -0.493611
    18  H    0.351163
    19  H    0.227084
    20  H    0.217893
    21  H    0.190394
    22  H    0.152591
    23  N   -0.625341
    24  C   -0.057722
    25  C    0.601933
    26  O   -0.400372
    27  C   -0.449016
    28  O   -0.636284
    29  H    0.428615
    30  H    0.322820
    31  H    0.236411
    32  H    0.201513
    33  H    0.197130
    34  H    0.154996
 Sum of Mulliken charges =   1.00000
 Mulliken charges with hydrogens summed into heavy atoms:
               1
     1  N    0.517615
     2  C    0.122810
     3  C    0.664999
     4  O   -0.505707
     5  C    0.099248
    13  N   -0.276949
    14  C    0.190871
    15  C    0.617880
    16  O   -0.472718
    17  C    0.067268
    23  N   -0.302521
    24  C    0.178689
    25  C    0.601933
    26  O   -0.400372
    27  C    0.104623
    28  O   -0.207669
 Electronic spatial extent (au):  <R**2>=         124004.5814
 Charge=              1.0000 electrons
 Dipole moment (field-independent basis, Debye):
    X=             -7.9541    Y=            -62.7728    Z=            -35.2316  Tot=             72.4220
 Quadrupole moment (field-independent basis, Debye-Ang):
   XX=            -66.8904   YY=            729.2557   ZZ=            177.9942
   XY=            110.9493   XZ=             76.7081   YZ=            456.5697
 Traceless Quadrupole moment (field-independent basis, Debye-Ang):
   XX=           -347.0103   YY=            449.1359   ZZ=           -102.1256
   XY=            110.9493   XZ=             76.7081   YZ=            456.5697
 Octapole moment (field-independent basis, Debye-Ang**2):
  XXX=            -37.5618  YYY=          -6630.3596  ZZZ=           -219.8186  XYY=          -1538.9779
  XXY=           1049.4823  XXZ=            439.6363  XZZ=           -710.2276  YZZ=          -2112.2587
  YYZ=          -5269.7552  XYZ=          -1077.9922
 Hexadecapole moment (field-independent basis, Debye-Ang**3):
 XXXX=          -1470.8313 YYYY=          15781.5422 ZZZZ=         -10188.0355 XXXY=            448.5574
 XXXZ=            302.2234 YYYX=          21024.9504 YYYZ=          48000.2433 ZZZX=           6370.2121
 ZZZY=           -727.3938 XXYY=         -17053.5778 XXZZ=          -3238.6076 YYZZ=          19474.5152
 XXYZ=          -6837.1306 YYXZ=          15126.3874 ZZXY=           9964.9037
 N-N= 1.254205100521D+03 E-N=-4.400594745113D+03  KE= 8.112337352453D+02
 Unable to Open any file for archive entry.
 1\1\GINC-AMR-130\SP\RB3LYP\6-31G(d)\C9H18N3O4(1+)\KENGMITH\04-Jun-2022
 \0\\# B3LYP/6-31G* empiricaldispersion=gd3 guess=read geom=check nosym
 m integral(ultrafinegrid)\\Candidate Structure: Conf:474 Charge calc i
 n gas phase\\1,1\N,0,-2.0849500356,-13.7603809562,-8.9604305811\C,0,-1
 .280036479,-12.6291321809,-8.3428912066\C,0,0.1378964364,-13.256508993
 2,-8.3274686789\O,0,0.4153651175,-14.0214310717,-9.250696338\C,0,-1.88
 88085132,-12.1957856854,-7.0167634378\H,0,-2.2168703691,-14.5220922864
 ,-8.2613879985\H,0,-1.2929211337,-11.8135264807,-9.0730397482\H,0,-1.8
 889324231,-13.0161116522,-6.2922333029\H,0,-2.9182563349,-11.848324887
 7,-7.1512540283\H,0,-1.3274124837,-11.3519650759,-6.6042911697\H,0,-1.
 4762596879,-14.1497075891,-9.7077820522\H,0,-2.9904415911,-13.46066575
 36,-9.3322648244\N,0,0.9472485024,-13.0333179687,-7.2780038176\C,0,2.0
 767598609,-13.9523308468,-7.050504893\C,0,1.5639949197,-15.4111147042,
 -6.9786659628\O,0,2.2382629093,-16.3389089847,-7.379955936\C,0,2.83772
 92357,-13.5631375674,-5.7829942716\H,0,0.6874180605,-12.383174179,-6.5
 485664757\H,0,2.737767413,-13.9228219245,-7.9193089394\H,0,3.661969415
 6,-14.2638176671,-5.6287542898\H,0,3.2562381423,-12.5558381278,-5.8733
 123206\H,0,2.19129261,-13.6009475403,-4.8972781429\N,0,0.2997299174,-1
 5.5679357097,-6.4494513433\C,0,-0.2578370707,-16.9005061477,-6.2807855
 706\C,0,-1.779284872,-16.8853734491,-6.3030311651\O,0,-2.4820239835,-1
 7.7835488774,-5.9329038544\C,0,0.2493292779,-17.6263157728,-5.02464729
 32\O,0,-2.3620449536,-15.7061339951,-6.7888506848\H,0,-3.3198674108,-1
 5.8664494173,-6.6625690671\H,0,-0.0655762972,-14.8336286615,-5.8581736
 329\H,0,0.0600019272,-17.4742156532,-7.1611252522\H,0,-0.190667252,-18
 .6234619944,-4.9555696387\H,0,1.335895332,-17.7149309339,-5.0920212297
 \H,0,-0.0117055667,-17.0674496543,-4.1195313622\\Version=ES64L-G16RevC
 .01\HF=-818.7990157\RMSD=8.808e-10\Dipole=-2.8693642,3.4272785,-0.5360
 328\Quadrupole=-257.9936182,333.9215164,-75.9278982,82.4880816,57.0306
 186,339.4483712\PG=C01 [X(C9H18N3O4)]\\@
 The archive entry for this job was punched.


 THOUGH I SPEAK WITH THE TONGUES OF MEN AND OF ANGELS, 
 AND HAVE NOT LOVE,
 I AM BECOME AS SOUNDING BRASS, A TINKLING CYMBAL.
 AND THOUGH I HAVE THE GIFT OF PROPHECY,
 AND UNDERSTAND ALL MYSTERIES, AND ALL KNOWLEDGE.
 AND THOUGH I HAVE ALL FAITH, SO THAT I COULD REMOVE MOUNTAINS,
 AND HAVE NOT LOVE, I AM NOTHING.
 AND THOUGH I BESTOW ALL MY GOODS TO FEED THE POOR,
 AND THOUGH I GIVE MY BODY TO BE BURNED,
 AND HAVE NOT LOVE IT PROFITETH ME NOTHING.
 LOVE SUFFERETH LONG, AND IS KIND,
 LOVE ENVIETH NOT,
 LOVE VAUNTETH NOT ITSELF, IS NOT PUFFED UP,
 DOTH NOT BEHAVE ITSELF UNSEEMLY, SEEKETH NOT HER OWN,
 IS NOT EASILY PROVOKED, THINKETH NO EVIL,
 REJOICETH NOT IN INIQUITY, BUT REJOICETH IN THE TRUTH,
 BEARETH ALL THINGS, BELIEVETH ALL THINGS,
 HOPETH ALL THINGS, ENDURETH ALL THINGS.
 LOVE NEVER FAILETH, BUT WHETHER THERE BE PROPHECIES, THEY SHALL FAIL, 
 WHETHER THERE BE TONGUES, THEY SHALL CEASE,
 WHETHER THERE BE KNOWLEDGE, IT SHALL VANISH AWAY.
 FOR WE KNOW IN PART, AND WE PROPHESY IN PART.
 BUT WHEN THAT WHICH IS PERFECT IS COME, THEN THAT WHICH IS IN PART 
 SHALL BE DONE AWAY. 
 WHEN I WAS A CHILD, I SPAKE AS A CHILD, I UNDERSTOOD AS A CHILD, 
 I THOUGHT AS A CHILD.
 BUT WHEN I BECAME A MAN, I PUT AWAY CHILDISH THINGS.
 FOR NOW WE SEE THROUGH A GLASS, DARKLY, BUT THEN FACE TO FACE.
 NOW I KNOW IN PART. BUT THEN SHALL I KNOW EVEN AS ALSO I AM KNOWN.
 AND NOW ABIDETH FAITH, HOPE AND LOVE, THESE THREE.
 BUT THE GREATEST OF THESE IS LOVE.

                     I CORINTHIANS 13
 Job cpu time:       0 days  0 hours  0 minutes 45.5 seconds.
 Elapsed time:       0 days  0 hours  0 minutes 11.7 seconds.
 File lengths (MBytes):  RWF=    168 Int=      0 D2E=      0 Chk=     16 Scr=     16
 Normal termination of Gaussian 16 at Sat Jun  4 16:59:11 2022.
