 Entering Gaussian System, Link 0=/opt/software/Gaussian/g16-AVX2-C.01/g16/g16
 Input=charge-conf-749.com
 Output=charge-conf-749.log
 Initial command:
 /opt/software/Gaussian/g16-AVX2-C.01/g16/l1.exe "/mnt/gs18/scratch/users/kengmith/Gau-127300.inp" -scrdir="/mnt/gs18/scratch/users/kengmith/"
 Entering Link 1 = /opt/software/Gaussian/g16-AVX2-C.01/g16/l1.exe PID=    127321.
  
 Copyright (c) 1988-2019, Gaussian, Inc.  All Rights Reserved.
  
 This is part of the Gaussian(R) 16 program.  It is based on
 the Gaussian(R) 09 system (copyright 2009, Gaussian, Inc.),
 the Gaussian(R) 03 system (copyright 2003, Gaussian, Inc.),
 the Gaussian(R) 98 system (copyright 1998, Gaussian, Inc.),
 the Gaussian(R) 94 system (copyright 1995, Gaussian, Inc.),
 the Gaussian 92(TM) system (copyright 1992, Gaussian, Inc.),
 the Gaussian 90(TM) system (copyright 1990, Gaussian, Inc.),
 the Gaussian 88(TM) system (copyright 1988, Gaussian, Inc.),
 the Gaussian 86(TM) system (copyright 1986, Carnegie Mellon
 University), and the Gaussian 82(TM) system (copyright 1983,
 Carnegie Mellon University). Gaussian is a federally registered
 trademark of Gaussian, Inc.
  
 This software contains proprietary and confidential information,
 including trade secrets, belonging to Gaussian, Inc.
  
 This software is provided under written license and may be
 used, copied, transmitted, or stored only in accord with that
 written license.
  
 The following legend is applicable only to US Government
 contracts under FAR:
  
                    RESTRICTED RIGHTS LEGEND
  
 Use, reproduction and disclosure by the US Government is
 subject to restrictions as set forth in subparagraphs (a)
 and (c) of the Commercial Computer Software - Restricted
 Rights clause in FAR 52.227-19.
  
 Gaussian, Inc.
 340 Quinnipiac St., Bldg. 40, Wallingford CT 06492
  
  
 ---------------------------------------------------------------
 Warning -- This program may not be used in any manner that
 competes with the business of Gaussian, Inc. or will provide
 assistance to any competitor of Gaussian, Inc.  The licensee
 of this program is prohibited from giving any competitor of
 Gaussian, Inc. access to this program.  By using this program,
 the user acknowledges that Gaussian, Inc. is engaged in the
 business of creating and licensing software in the field of
 computational chemistry and represents and warrants to the
 licensee that it is not a competitor of Gaussian, Inc. and that
 it will not use this program in any manner prohibited above.
 ---------------------------------------------------------------
  

 Cite this work as:
 Gaussian 16, Revision C.01,
 M. J. Frisch, G. W. Trucks, H. B. Schlegel, G. E. Scuseria, 
 M. A. Robb, J. R. Cheeseman, G. Scalmani, V. Barone, 
 G. A. Petersson, H. Nakatsuji, X. Li, M. Caricato, A. V. Marenich, 
 J. Bloino, B. G. Janesko, R. Gomperts, B. Mennucci, H. P. Hratchian, 
 J. V. Ortiz, A. F. Izmaylov, J. L. Sonnenberg, D. Williams-Young, 
 F. Ding, F. Lipparini, F. Egidi, J. Goings, B. Peng, A. Petrone, 
 T. Henderson, D. Ranasinghe, V. G. Zakrzewski, J. Gao, N. Rega, 
 G. Zheng, W. Liang, M. Hada, M. Ehara, K. Toyota, R. Fukuda, 
 J. Hasegawa, M. Ishida, T. Nakajima, Y. Honda, O. Kitao, H. Nakai, 
 T. Vreven, K. Throssell, J. A. Montgomery, Jr., J. E. Peralta, 
 F. Ogliaro, M. J. Bearpark, J. J. Heyd, E. N. Brothers, K. N. Kudin, 
 V. N. Staroverov, T. A. Keith, R. Kobayashi, J. Normand, 
 K. Raghavachari, A. P. Rendell, J. C. Burant, S. S. Iyengar, 
 J. Tomasi, M. Cossi, J. M. Millam, M. Klene, C. Adamo, R. Cammi, 
 J. W. Ochterski, R. L. Martin, K. Morokuma, O. Farkas, 
 J. B. Foresman, and D. J. Fox, Gaussian, Inc., Wallingford CT, 2019.
 
 ******************************************
 Gaussian 16:  ES64L-G16RevC.01  3-Jul-2019
                 4-Jun-2022 
 ******************************************
 %mem=8gb
 %nproc=4
 Will use up to    4 processors via shared memory.
 %chk=conf-749.chk
 ----------------------------------------------------------------------
 # B3LYP/6-31G* empiricaldispersion=gd3 guess=read geom=check nosymm in
 tegral(ultrafinegrid)
 ----------------------------------------------------------------------
 1/29=2,38=1,172=1/1;
 2/12=2,15=1,40=1/2;
 3/5=1,6=6,7=1,11=2,14=-4,25=1,30=1,74=-5,75=-5,116=-2,124=31/1,2,3;
 4/5=1/1;
 5/5=2,38=6/2;
 6/7=2,8=2,9=2,10=2,28=1/1;
 99/5=1,9=1/99;
 ------------------------------------------------------
 Candidate Structure: Conf:749 Charge calc in gas phase
 ------------------------------------------------------
 Structure from the checkpoint file:  "conf-749.chk"
 Charge =  1 Multiplicity = 1
 Redundant internal coordinates found in file.  (old form).
 N,0,2.484187656,-13.4148923706,-8.6849744712
 C,0,1.2828613053,-13.7865940718,-9.5294902523
 C,0,0.1077087905,-13.5279669333,-8.5514634788
 O,0,0.2913759231,-12.7254258003,-7.6367738024
 C,0,1.433708937,-15.1996885846,-10.0803850228
 H,0,2.1942646875,-12.5849405962,-8.1340554104
 H,0,1.2346541334,-13.0488402006,-10.3378213097
 H,0,1.4679914003,-15.9324809398,-9.2692320666
 H,0,2.3457963353,-15.2915654593,-10.678972564
 H,0,0.5995764181,-15.4379656984,-10.7468146084
 H,0,3.327379284,-13.2330604156,-9.2347809284
 H,0,2.6503889574,-14.1645821412,-7.9807585775
 N,0,-1.0326567539,-14.2219862541,-8.7150259118
 C,0,-2.0856325255,-14.1570361333,-7.684023087
 C,0,-1.5333205837,-14.624115716,-6.3164539391
 O,0,-1.9170730296,-14.1197252817,-5.2791955177
 C,0,-3.2974022327,-14.9854668427,-8.1114533903
 H,0,-1.1592568102,-14.8371196542,-9.5075576787
 H,0,-2.364988515,-13.1115475789,-7.5349145497
 H,0,-4.0615273358,-14.930751973,-7.3321662592
 H,0,-3.7282335779,-14.5987385098,-9.0408274245
 H,0,-3.0307861088,-16.039767147,-8.2502916687
 N,0,-0.6365392737,-15.6650572184,-6.3773897523
 C,0,0.2355037077,-15.9821009388,-5.2666662741
 C,0,1.6701528411,-15.6136245968,-5.631684532
 O,0,2.0558278253,-15.3566997749,-6.7696767317
 C,0,0.1537379562,-17.4619517468,-4.8473554181
 O,0,2.4797412376,-15.6459892984,-4.5787782842
 H,0,3.3944152293,-15.4560577774,-4.8632033743
 H,0,-0.3085449867,-15.9497011547,-7.2892903227
 H,0,-0.0714607147,-15.3493088031,-4.4275952249
 H,0,-0.8758786044,-17.6890364408,-4.5612084308
 H,0,0.4379048591,-18.1202767486,-5.6758835131
 H,0,0.8117840885,-17.6618170991,-3.9977490629
 Recover connectivity data from disk.
                           ----------------------------
                           !    Current Parameters    !
                           ! (Angstroms and Degrees)  !
 --------------------------                            --------------------------
 ! Name  Definition              Value                                          !
 --------------------------------------------------------------------------------
 ! R1    R(1,2)                  1.5148                                         !
 ! R2    R(1,6)                  1.0375                                         !
 ! R3    R(1,11)                 1.0229                                         !
 ! R4    R(1,12)                 1.0419                                         !
 ! R5    R(2,3)                  1.5506                                         !
 ! R6    R(2,5)                  1.5242                                         !
 ! R7    R(2,7)                  1.0954                                         !
 ! R8    R(3,4)                  1.2306                                         !
 ! R9    R(3,13)                 1.3449                                         !
 ! R10   R(5,8)                  1.0937                                         !
 ! R11   R(5,9)                  1.0948                                         !
 ! R12   R(5,10)                 1.0939                                         !
 ! R13   R(13,14)                1.4751                                         !
 ! R14   R(13,18)                1.0112                                         !
 ! R15   R(14,15)                1.5471                                         !
 ! R16   R(14,17)                1.5288                                         !
 ! R17   R(14,19)                1.0924                                         !
 ! R18   R(15,16)                1.2156                                         !
 ! R19   R(15,23)                1.3753                                         !
 ! R20   R(17,20)                1.0928                                         !
 ! R21   R(17,21)                1.0949                                         !
 ! R22   R(17,22)                1.0963                                         !
 ! R23   R(23,24)                1.4473                                         !
 ! R24   R(23,30)                1.01                                           !
 ! R25   R(24,25)                1.5255                                         !
 ! R26   R(24,27)                1.5403                                         !
 ! R27   R(24,31)                1.0948                                         !
 ! R28   R(25,26)                1.2287                                         !
 ! R29   R(25,28)                1.3286                                         !
 ! R30   R(27,32)                1.0925                                         !
 ! R31   R(27,33)                1.0957                                         !
 ! R32   R(27,34)                1.0931                                         !
 ! R33   R(28,29)                0.9765                                         !
 ! A1    A(2,1,6)              105.7074                                         !
 ! A2    A(2,1,11)             113.4342                                         !
 ! A3    A(2,1,12)             109.0726                                         !
 ! A4    A(6,1,11)             111.9358                                         !
 ! A5    A(6,1,12)             105.1454                                         !
 ! A6    A(11,1,12)            111.082                                          !
 ! A7    A(1,2,3)              102.0324                                         !
 ! A8    A(1,2,5)              110.5192                                         !
 ! A9    A(1,2,7)              106.3219                                         !
 ! A10   A(3,2,5)              117.2333                                         !
 ! A11   A(3,2,7)              108.6472                                         !
 ! A12   A(5,2,7)              111.2257                                         !
 ! A13   A(2,3,4)              117.6757                                         !
 ! A14   A(2,3,13)             118.6733                                         !
 ! A15   A(4,3,13)             123.6043                                         !
 ! A16   A(2,5,8)              110.8689                                         !
 ! A17   A(2,5,9)              110.9694                                         !
 ! A18   A(2,5,10)             110.2838                                         !
 ! A19   A(8,5,9)              108.8543                                         !
 ! A20   A(8,5,10)             109.2561                                         !
 ! A21   A(9,5,10)             106.4919                                         !
 ! A22   A(3,13,14)            119.8369                                         !
 ! A23   A(3,13,18)            121.0228                                         !
 ! A24   A(14,13,18)           119.0261                                         !
 ! A25   A(13,14,15)           110.4691                                         !
 ! A26   A(13,14,17)           110.2745                                         !
 ! A27   A(13,14,19)           108.6683                                         !
 ! A28   A(15,14,17)           111.5001                                         !
 ! A29   A(15,14,19)           105.0454                                         !
 ! A30   A(17,14,19)           110.7365                                         !
 ! A31   A(14,15,16)           121.086                                          !
 ! A32   A(14,15,23)           114.969                                          !
 ! A33   A(16,15,23)           123.8986                                         !
 ! A34   A(14,17,20)           109.1306                                         !
 ! A35   A(14,17,21)           110.9641                                         !
 ! A36   A(14,17,22)           111.3306                                         !
 ! A37   A(20,17,21)           108.2081                                         !
 ! A38   A(20,17,22)           107.9696                                         !
 ! A39   A(21,17,22)           109.1387                                         !
 ! A40   A(15,23,24)           121.6467                                         !
 ! A41   A(15,23,30)           117.7134                                         !
 ! A42   A(24,23,30)           115.8161                                         !
 ! A43   A(23,24,25)           109.2746                                         !
 ! A44   A(23,24,27)           112.7928                                         !
 ! A45   A(23,24,31)           107.0144                                         !
 ! A46   A(25,24,27)           110.3115                                         !
 ! A47   A(25,24,31)           107.9051                                         !
 ! A48   A(27,24,31)           109.3769                                         !
 ! A49   A(24,25,26)           124.5616                                         !
 ! A50   A(24,25,28)           112.1824                                         !
 ! A51   A(26,25,28)           123.217                                          !
 ! A52   A(24,27,32)           108.7255                                         !
 ! A53   A(24,27,33)           110.9547                                         !
 ! A54   A(24,27,34)           110.8125                                         !
 ! A55   A(32,27,33)           108.5167                                         !
 ! A56   A(32,27,34)           109.0127                                         !
 ! A57   A(33,27,34)           108.7684                                         !
 ! A58   A(25,28,29)           109.5851                                         !
 ! D1    D(6,1,2,3)            -38.5254                                         !
 ! D2    D(6,1,2,5)           -163.9313                                         !
 ! D3    D(6,1,2,7)             75.2447                                         !
 ! D4    D(11,1,2,3)          -161.5392                                         !
 ! D5    D(11,1,2,5)            73.0549                                         !
 ! D6    D(11,1,2,7)           -47.7691                                         !
 ! D7    D(12,1,2,3)            74.0812                                         !
 ! D8    D(12,1,2,5)           -51.3247                                         !
 ! D9    D(12,1,2,7)          -172.1487                                         !
 ! D10   D(1,2,3,4)             24.2683                                         !
 ! D11   D(1,2,3,13)          -153.3367                                         !
 ! D12   D(5,2,3,4)            145.1172                                         !
 ! D13   D(5,2,3,13)           -32.4878                                         !
 ! D14   D(7,2,3,4)            -87.768                                          !
 ! D15   D(7,2,3,13)            94.627                                          !
 ! D16   D(1,2,5,8)             62.8886                                         !
 ! D17   D(1,2,5,9)            -58.2086                                         !
 ! D18   D(1,2,5,10)          -175.9679                                         !
 ! D19   D(3,2,5,8)            -53.4042                                         !
 ! D20   D(3,2,5,9)           -174.5014                                         !
 ! D21   D(3,2,5,10)            67.7393                                         !
 ! D22   D(7,2,5,8)           -179.2541                                         !
 ! D23   D(7,2,5,9)             59.6488                                         !
 ! D24   D(7,2,5,10)           -58.1106                                         !
 ! D25   D(2,3,13,14)          170.4155                                         !
 ! D26   D(2,3,13,18)           -5.6605                                         !
 ! D27   D(4,3,13,14)           -7.0378                                         !
 ! D28   D(4,3,13,18)          176.8862                                         !
 ! D29   D(3,13,14,15)         -58.1871                                         !
 ! D30   D(3,13,14,17)         178.107                                          !
 ! D31   D(3,13,14,19)          56.558                                          !
 ! D32   D(18,13,14,15)        117.9673                                         !
 ! D33   D(18,13,14,17)         -5.7387                                         !
 ! D34   D(18,13,14,19)       -127.2877                                         !
 ! D35   D(13,14,15,16)        145.282                                          !
 ! D36   D(13,14,15,23)        -37.1019                                         !
 ! D37   D(17,14,15,16)        -91.7227                                         !
 ! D38   D(17,14,15,23)         85.8934                                         !
 ! D39   D(19,14,15,16)         28.2735                                         !
 ! D40   D(19,14,15,23)       -154.1105                                         !
 ! D41   D(13,14,17,20)        179.5619                                         !
 ! D42   D(13,14,17,21)        -61.289                                          !
 ! D43   D(13,14,17,22)         60.4827                                         !
 ! D44   D(15,14,17,20)         56.4556                                         !
 ! D45   D(15,14,17,21)        175.6047                                         !
 ! D46   D(15,14,17,22)        -62.6236                                         !
 ! D47   D(19,14,17,20)        -60.1251                                         !
 ! D48   D(19,14,17,21)         59.024                                          !
 ! D49   D(19,14,17,22)       -179.2043                                         !
 ! D50   D(14,15,23,24)        163.0361                                         !
 ! D51   D(14,15,23,30)          8.6667                                         !
 ! D52   D(16,15,23,24)        -19.4236                                         !
 ! D53   D(16,15,23,30)       -173.793                                          !
 ! D54   D(15,23,24,25)       -109.4668                                         !
 ! D55   D(15,23,24,27)        127.4516                                         !
 ! D56   D(15,23,24,31)          7.1239                                         !
 ! D57   D(30,23,24,25)         45.3571                                         !
 ! D58   D(30,23,24,27)        -77.7245                                         !
 ! D59   D(30,23,24,31)        161.9478                                         !
 ! D60   D(23,24,25,26)        -13.8632                                         !
 ! D61   D(23,24,25,28)        168.351                                          !
 ! D62   D(27,24,25,26)        110.6818                                         !
 ! D63   D(27,24,25,28)        -67.1041                                         !
 ! D64   D(31,24,25,26)       -129.8873                                         !
 ! D65   D(31,24,25,28)         52.3269                                         !
 ! D66   D(23,24,27,32)        -59.3065                                         !
 ! D67   D(23,24,27,33)         59.9613                                         !
 ! D68   D(23,24,27,34)       -179.0982                                         !
 ! D69   D(25,24,27,32)        178.1911                                         !
 ! D70   D(25,24,27,33)        -62.541                                          !
 ! D71   D(25,24,27,34)         58.3994                                         !
 ! D72   D(31,24,27,32)         59.6566                                         !
 ! D73   D(31,24,27,33)        178.9244                                         !
 ! D74   D(31,24,27,34)        -60.1351                                         !
 ! D75   D(24,25,28,29)        176.7102                                         !
 ! D76   D(26,25,28,29)         -1.1103                                         !
 --------------------------------------------------------------------------------
                          Input orientation:                          
 ---------------------------------------------------------------------
 Center     Atomic      Atomic             Coordinates (Angstroms)
 Number     Number       Type             X           Y           Z
 ---------------------------------------------------------------------
      1          7           0        2.484188  -13.414892   -8.684974
      2          6           0        1.282861  -13.786594   -9.529490
      3          6           0        0.107709  -13.527967   -8.551463
      4          8           0        0.291376  -12.725426   -7.636774
      5          6           0        1.433709  -15.199689  -10.080385
      6          1           0        2.194265  -12.584941   -8.134055
      7          1           0        1.234654  -13.048840  -10.337821
      8          1           0        1.467991  -15.932481   -9.269232
      9          1           0        2.345796  -15.291565  -10.678973
     10          1           0        0.599576  -15.437966  -10.746815
     11          1           0        3.327379  -13.233060   -9.234781
     12          1           0        2.650389  -14.164582   -7.980759
     13          7           0       -1.032657  -14.221986   -8.715026
     14          6           0       -2.085633  -14.157036   -7.684023
     15          6           0       -1.533321  -14.624116   -6.316454
     16          8           0       -1.917073  -14.119725   -5.279196
     17          6           0       -3.297402  -14.985467   -8.111453
     18          1           0       -1.159257  -14.837120   -9.507558
     19          1           0       -2.364989  -13.111548   -7.534915
     20          1           0       -4.061527  -14.930752   -7.332166
     21          1           0       -3.728234  -14.598739   -9.040827
     22          1           0       -3.030786  -16.039767   -8.250292
     23          7           0       -0.636539  -15.665057   -6.377390
     24          6           0        0.235504  -15.982101   -5.266666
     25          6           0        1.670153  -15.613625   -5.631685
     26          8           0        2.055828  -15.356700   -6.769677
     27          6           0        0.153738  -17.461952   -4.847355
     28          8           0        2.479741  -15.645989   -4.578778
     29          1           0        3.394415  -15.456058   -4.863203
     30          1           0       -0.308545  -15.949701   -7.289290
     31          1           0       -0.071461  -15.349309   -4.427595
     32          1           0       -0.875879  -17.689036   -4.561208
     33          1           0        0.437905  -18.120277   -5.675884
     34          1           0        0.811784  -17.661817   -3.997749
 ---------------------------------------------------------------------
                    Distance matrix (angstroms):
                    1          2          3          4          5
     1  N    0.000000
     2  C    1.514779   0.000000
     3  C    2.382911   1.550615   0.000000
     4  O    2.526363   2.385686   1.230635   0.000000
     5  C    2.497233   1.524164   2.624982   3.660347   0.000000
     6  H    1.037491   2.054718   2.327497   1.971804   3.347171
     7  H    2.104099   1.095447   2.165789   2.879241   2.175326
     8  H    2.777096   2.169525   2.854338   3.786099   1.093677
     9  H    2.741730   2.171654   3.556067   4.478916   1.094830
    10  H    3.449024   2.162356   2.951202   4.138262   1.093929
    11  H    1.022899   2.138529   3.304568   3.468232   2.858087
    12  H    1.041911   2.100375   2.682574   2.784679   2.638217
    13  N    3.608393   2.492898   1.344935   2.270547   2.983801
    14  C    4.736659   3.858721   2.441091   2.775231   4.383542
    15  C    4.817933   4.353840   2.981575   2.945808   4.827186
    16  O    5.609565   5.330625   3.893284   3.518450   5.953611
    17  C    6.018506   4.942362   3.729973   4.267603   5.128937
    18  H    3.996756   2.658576   2.057474   3.172289   2.680123
    19  H    4.992912   4.211986   2.705736   2.686212   5.026913
    20  H    6.853780   5.890655   4.564759   4.889173   6.150013
    21  H    6.334217   5.099945   4.012541   4.651659   5.299761
    22  H    6.123222   5.031967   4.031128   4.732655   4.897621
    23  N    4.486327   4.141070   3.138098   3.329941   4.267865
    24  C    4.830318   4.908042   4.102316   4.028209   5.021927
    25  C    3.849631   4.322144   3.913606   3.776652   4.474169
    26  O    2.760883   3.267917   3.211572   3.284623   3.372310
    27  C    6.044585   6.058511   5.403589   5.498589   5.843009
    28  O    4.673185   5.422123   5.088692   4.761299   5.617922
    29  H    4.427280   5.387022   5.303135   4.977740   5.579344
    30  H    4.021510   3.497156   2.762453   3.297969   3.374637
    31  H    5.329032   5.505052   4.511727   4.161158   5.851663
    32  H    6.823767   6.676304   5.848425   5.954747   6.480151
    33  H    5.948323   5.860464   5.428379   5.742036   5.377834
    34  H    6.542430   6.770482   6.190376   6.154777   6.591459
                    6          7          8          9         10
     6  H    0.000000
     7  H    2.447987   0.000000
     8  H    3.608618   3.084107   0.000000
     9  H    3.718250   2.526032   1.780079   0.000000
    10  H    4.184411   2.505697   1.783799   1.753659   0.000000
    11  H    1.707514   2.372790   3.278015   2.699377   3.819524
    12  H    1.651308   2.967310   2.486703   2.939937   3.671295
    13  N    3.664760   3.024969   3.079964   4.051547   2.875927
    14  C    4.581652   4.392613   4.277071   5.467581   4.269873
    15  C    4.621342   5.129773   4.408922   5.875764   4.983944
    16  O    5.235350   6.055566   5.537611   6.978743   6.161667
    17  C    5.993450   5.408028   4.994623   6.207378   4.726132
    18  H    4.266723   3.101305   2.856405   3.723457   2.233891
    19  H    4.628507   4.562636   5.065299   6.068696   4.951481
    20  H    6.729100   6.373782   5.944011   7.237755   5.800257
    21  H    6.320886   5.358604   5.369524   6.329089   4.727011
    22  H    6.265021   5.612255   4.613973   5.946927   4.446833
    23  N    4.537229   5.102056   3.586547   5.247612   4.546584
    24  C    4.857918   5.942973   4.188320   5.850063   5.519117
    25  C    3.963519   5.377314   3.657088   5.102483   5.228914
    26  O    3.092466   4.328071   2.631511   3.920576   4.236142
    27  C    6.225061   7.126651   4.859993   6.597231   6.252912
    28  O    4.700161   6.439099   4.806878   6.111950   6.451586
    29  H    4.514659   6.358514   4.832306   5.911838   6.513703
    30  H    4.277768   4.482187   2.660178   4.355297   3.611237
    31  H    5.149086   6.475250   5.113849   6.702700   6.355367
    32  H    6.945704   7.704221   5.544790   7.318066   6.745814
    33  H    6.306136   6.934547   4.331245   6.055787   5.738926
    34  H    6.692904   7.852063   5.586568   7.253277   7.109179
                   11         12         13         14         15
    11  H    0.000000
    12  H    1.702534   0.000000
    13  N    4.500893   3.755965   0.000000
    14  C    5.706074   4.745314   1.475108   0.000000
    15  C    5.837643   4.525981   2.483046   1.547080   0.000000
    16  O    6.628507   5.306804   3.549307   2.411016   1.215558
    17  C    6.944100   6.005593   2.465010   1.528849   2.542554
    18  H    4.772559   4.158945   1.011199   2.155450   3.220006
    19  H    5.942000   5.144091   2.097819   1.092392   2.112861
    20  H    7.816524   6.786568   3.404219   2.150953   2.741811
    21  H    7.189184   6.480668   2.741208   2.175812   3.498642
    22  H    7.019479   5.988716   2.740954   2.181433   2.825987
    23  N    5.458200   3.952988   2.775591   2.466027   1.375314
    24  C    5.732613   4.062184   4.073993   3.816038   2.464735
    25  C    4.625558   2.928948   4.329992   4.521025   3.422028
    26  O    3.493340   1.800380   3.822394   4.407598   3.691081
    27  C    6.870591   5.188846   5.183028   4.897339   3.613548
    28  O    5.312163   3.714453   5.610104   5.718581   4.490925
    29  H    4.904784   3.455522   5.996535   6.298842   5.204483
    30  H    4.938119   3.524212   2.354158   2.554898   2.050284
    31  H    6.256169   4.630012   4.536168   4.010327   2.496142
    32  H    7.704893   6.045632   5.412875   4.867289   3.592611
    33  H    6.700724   5.084787   5.157093   5.109613   4.064382
    34  H    7.305382   5.610302   6.122671   5.853813   4.483697
                   16         17         18         19         20
    16  O    0.000000
    17  C    3.267492   0.000000
    18  H    4.355225   2.557886   0.000000
    19  H    2.511039   2.171029   2.884911   0.000000
    20  H    3.077521   1.092781   3.628260   2.495768   0.000000
    21  H    4.202336   1.094948   2.621889   2.517528   1.772242
    22  H    3.708683   1.096316   2.555328   3.086992   1.770677
    23  N    2.287760   3.247924   3.279736   3.293602   3.630612
    24  C    2.846434   4.644084   4.608850   4.488606   4.882223
    25  C    3.901817   5.587525   4.861164   5.115177   6.017484
    26  O    4.419907   5.531297   4.254730   5.016963   6.157910
    27  C    3.955404   5.357022   5.507375   5.700261   5.509058
    28  O    4.706596   6.803784   6.179761   6.215589   7.133085
    29  H    5.492790   7.453389   6.533685   6.767976   7.871646
    30  H    3.158584   3.246378   2.623406   3.513461   3.889084
    31  H    2.375581   4.910182   5.220312   4.463550   4.953015
    32  H    3.786763   5.077135   5.716651   5.658072   5.043282
    33  H    4.659152   5.450830   5.292615   6.033206   5.758579
    34  H    4.651363   6.400846   6.497839   6.580910   6.505860
                   21         22         23         24         25
    21  H    0.000000
    22  H    1.785481   0.000000
    23  N    4.217761   3.062774   0.000000
    24  C    5.645281   4.424251   1.447302   0.000000
    25  C    6.464892   5.397919   2.424778   1.525527   0.000000
    26  O    6.260032   5.341577   2.738214   2.442078   1.228732
    27  C    6.391627   4.872759   2.488850   1.540281   2.516148
    28  O    7.716577   6.633324   3.598134   2.371237   1.328568
    29  H    8.301787   7.286721   4.311036   3.227728   1.894326
    30  H    4.072745   2.888292   1.010032   2.094767   2.603046
    31  H    5.934413   4.883375   2.054437   1.094849   2.133755
    32  H    6.144335   4.579634   2.729888   2.155567   3.454784
    33  H    6.409430   4.794571   2.770315   2.186372   2.793509
    34  H    7.444921   5.956552   3.427445   2.182589   2.757106
                   26         27         28         29         30
    26  O    0.000000
    27  C    3.427149   0.000000
    28  O    2.250206   2.963131   0.000000
    29  H    2.331594   3.811279   0.976525   0.000000
    30  H    2.492370   2.909236   3.900469   4.454379   0.000000
    31  H    3.163978   2.165681   2.572840   3.494774   2.933595
    32  H    4.348796   1.092501   3.928681   4.828333   3.284750
    33  H    3.383994   1.095720   3.390403   4.061953   2.805649
    34  H    3.813764   1.093070   2.680156   3.504906   3.875658
                   31         32         33         34
    31  H    0.000000
    32  H    2.477754   0.000000
    33  H    3.081548   1.776090   0.000000
    34  H    2.512486   1.779447   1.779356   0.000000
 Symmetry turned off by external request.
 Stoichiometry    C9H18N3O4(1+)
 Framework group  C1[X(C9H18N3O4)]
 Deg. of freedom    96
 Full point group                 C1      NOp   1
 Rotational constants (GHZ):           0.5641236           0.4983270           0.3284202
 Standard basis: 6-31G(d) (6D, 7F)
   276 basis functions,   520 primitive gaussians,   276 cartesian basis functions
    62 alpha electrons       62 beta electrons
       nuclear repulsion energy      1262.5313293087 Hartrees.
 NAtoms=   34 NActive=   34 NUniq=   34 SFac= 1.00D+00 NAtFMM=   60 NAOKFM=F Big=F
 Integral buffers will be    131072 words long.
 Raffenetti 2 integral format.
 Two-electron integral symmetry is turned off.
 Nuclear repulsion after empirical dispersion term =     1262.4920214086 Hartrees.
 One-electron integrals computed using PRISM.
 NBasis=   276 RedAO= T EigKep=  2.17D-03  NBF=   276
 NBsUse=   276 1.00D-06 EigRej= -1.00D+00 NBFU=   276
 Initial guess from the checkpoint file:  "conf-749.chk"
 B after Tr=     0.000000    0.000000    0.000000
         Rot=    1.000000    0.000000    0.000000    0.000000 Ang=   0.00 deg.
 Requested convergence on RMS density matrix=1.00D-08 within 128 cycles.
 Requested convergence on MAX density matrix=1.00D-06.
 Requested convergence on             energy=1.00D-06.
 No special actions if energy rises.
 SCF Done:  E(RB3LYP) =  -818.817793182     A.U. after    1 cycles
            NFock=  1  Conv=0.65D-08     -V/T= 2.0093

 **********************************************************************

            Population analysis using the SCF Density.

 **********************************************************************

 Alpha  occ. eigenvalues --  -19.34352 -19.29922 -19.27930 -19.22757 -14.60861
 Alpha  occ. eigenvalues --  -14.51988 -14.47663 -10.47278 -10.45262 -10.42697
 Alpha  occ. eigenvalues --  -10.40194 -10.36260 -10.36123 -10.35432 -10.30441
 Alpha  occ. eigenvalues --  -10.29649  -1.25725  -1.20718  -1.16781  -1.15331
 Alpha  occ. eigenvalues --   -1.14731  -1.08202  -1.04448  -0.94985  -0.90811
 Alpha  occ. eigenvalues --   -0.88577  -0.83070  -0.79877  -0.78288  -0.76195
 Alpha  occ. eigenvalues --   -0.75170  -0.74111  -0.72708  -0.70462  -0.67325
 Alpha  occ. eigenvalues --   -0.66215  -0.64422  -0.63640  -0.61932  -0.60533
 Alpha  occ. eigenvalues --   -0.59677  -0.59576  -0.57238  -0.56191  -0.55821
 Alpha  occ. eigenvalues --   -0.55312  -0.54717  -0.53709  -0.52987  -0.52162
 Alpha  occ. eigenvalues --   -0.51297  -0.50628  -0.50064  -0.48620  -0.48367
 Alpha  occ. eigenvalues --   -0.47099  -0.46889  -0.43218  -0.42107  -0.41917
 Alpha  occ. eigenvalues --   -0.37382  -0.36085
 Alpha virt. eigenvalues --   -0.14863  -0.13890  -0.10688  -0.09086  -0.07478
 Alpha virt. eigenvalues --   -0.05898  -0.05366  -0.04035  -0.02958  -0.01383
 Alpha virt. eigenvalues --   -0.00129   0.00344   0.01303   0.01823   0.02285
 Alpha virt. eigenvalues --    0.03597   0.04213   0.04264   0.05127   0.06364
 Alpha virt. eigenvalues --    0.06628   0.07291   0.07832   0.07965   0.09055
 Alpha virt. eigenvalues --    0.10152   0.11398   0.12023   0.13804   0.14471
 Alpha virt. eigenvalues --    0.18529   0.19833   0.21757   0.26384   0.26781
 Alpha virt. eigenvalues --    0.28766   0.33887   0.34831   0.36048   0.36404
 Alpha virt. eigenvalues --    0.38330   0.39568   0.40247   0.40629   0.42418
 Alpha virt. eigenvalues --    0.43022   0.43644   0.45671   0.46780   0.47507
 Alpha virt. eigenvalues --    0.49595   0.49769   0.50555   0.51350   0.53592
 Alpha virt. eigenvalues --    0.53793   0.55027   0.56979   0.58029   0.59970
 Alpha virt. eigenvalues --    0.61097   0.61836   0.62525   0.63450   0.64104
 Alpha virt. eigenvalues --    0.64837   0.65402   0.66852   0.68022   0.68933
 Alpha virt. eigenvalues --    0.71020   0.71333   0.72355   0.73412   0.74174
 Alpha virt. eigenvalues --    0.75005   0.76350   0.76627   0.77269   0.77814
 Alpha virt. eigenvalues --    0.79008   0.79523   0.80114   0.80475   0.81737
 Alpha virt. eigenvalues --    0.82186   0.82996   0.84601   0.85233   0.86436
 Alpha virt. eigenvalues --    0.86504   0.88557   0.91165   0.91969   0.95436
 Alpha virt. eigenvalues --    0.96280   0.97962   0.99909   1.00824   1.02369
 Alpha virt. eigenvalues --    1.03404   1.06860   1.08640   1.10862   1.14550
 Alpha virt. eigenvalues --    1.14972   1.17972   1.20309   1.20963   1.24730
 Alpha virt. eigenvalues --    1.25376   1.28234   1.29257   1.30104   1.31102
 Alpha virt. eigenvalues --    1.33369   1.36585   1.39453   1.42305   1.48000
 Alpha virt. eigenvalues --    1.50685   1.51508   1.52577   1.53663   1.54226
 Alpha virt. eigenvalues --    1.55915   1.58061   1.58623   1.61275   1.62411
 Alpha virt. eigenvalues --    1.64243   1.64403   1.65853   1.66392   1.68478
 Alpha virt. eigenvalues --    1.69826   1.70707   1.71123   1.73146   1.75146
 Alpha virt. eigenvalues --    1.75746   1.77987   1.81386   1.81653   1.82994
 Alpha virt. eigenvalues --    1.84159   1.84947   1.86893   1.88055   1.88780
 Alpha virt. eigenvalues --    1.90915   1.91982   1.93297   1.93972   1.95015
 Alpha virt. eigenvalues --    1.97285   1.97791   2.00505   2.01900   2.03091
 Alpha virt. eigenvalues --    2.09223   2.10200   2.12314   2.13467   2.15300
 Alpha virt. eigenvalues --    2.16281   2.17652   2.18054   2.19398   2.22036
 Alpha virt. eigenvalues --    2.23560   2.25611   2.29862   2.30737   2.33529
 Alpha virt. eigenvalues --    2.34744   2.37463   2.39050   2.42322   2.43814
 Alpha virt. eigenvalues --    2.48443   2.48660   2.51027   2.51829   2.54877
 Alpha virt. eigenvalues --    2.57517   2.63452   2.64423   2.65953   2.72020
 Alpha virt. eigenvalues --    2.76186   2.82083   2.85405   2.87580   2.90440
 Alpha virt. eigenvalues --    2.95698   3.01389   3.04320   3.65239   3.71220
 Alpha virt. eigenvalues --    3.87478   3.89516   3.97531   4.03060   4.04872
 Alpha virt. eigenvalues --    4.09732   4.12983   4.16121   4.18056   4.22125
 Alpha virt. eigenvalues --    4.36769   4.39779   4.50655   4.57584
          Condensed to atoms (all electrons):
               1          2          3          4          5          6
     1  N    6.943299   0.215087  -0.044838  -0.028764  -0.051394   0.255200
     2  C    0.215087   5.269056   0.292385  -0.089823   0.337400  -0.038870
     3  C   -0.044838   0.292385   4.356069   0.528798  -0.035873  -0.003684
     4  O   -0.028764  -0.089823   0.528798   8.112879   0.001803   0.058374
     5  C   -0.051394   0.337400  -0.035873   0.001803   5.150368   0.004923
     6  H    0.255200  -0.038870  -0.003684   0.058374   0.004923   0.312773
     7  H   -0.037281   0.375159  -0.026229   0.000623  -0.032960   0.000340
     8  H   -0.002888  -0.034892  -0.003768   0.000109   0.371450   0.000006
     9  H   -0.003178  -0.026276   0.002867  -0.000065   0.371145  -0.000153
    10  H    0.003810  -0.025653  -0.004300  -0.000006   0.370455  -0.000113
    11  H    0.298949  -0.020109   0.004633   0.000999   0.000018  -0.009001
    12  H    0.230140  -0.016804  -0.003195   0.000840  -0.002169  -0.008751
    13  N    0.001077  -0.117209   0.315390  -0.087497   0.006204   0.002182
    14  C   -0.000055   0.006863  -0.036374   0.003496  -0.000168  -0.000070
    15  C    0.000046  -0.000671  -0.001976   0.008699  -0.000032   0.000006
    16  O   -0.000000  -0.000010  -0.000480  -0.000845   0.000000   0.000001
    17  C    0.000001  -0.000179   0.005384   0.000470  -0.000026  -0.000000
    18  H    0.000136  -0.000552  -0.024427   0.002745   0.003288  -0.000092
    19  H   -0.000010   0.000154  -0.002355   0.004241   0.000008  -0.000007
    20  H   -0.000000   0.000003  -0.000046   0.000001  -0.000000  -0.000000
    21  H    0.000000   0.000004  -0.000073  -0.000001  -0.000004   0.000000
    22  H   -0.000000  -0.000005  -0.000138  -0.000009   0.000005   0.000000
    23  N    0.000042  -0.000198   0.006470  -0.002480  -0.000222   0.000019
    24  C   -0.000166   0.000016  -0.001477  -0.000180   0.000030   0.000000
    25  C    0.001196  -0.000165   0.001276   0.001498   0.000003   0.000042
    26  O   -0.029177   0.001017   0.006036  -0.001495  -0.004161   0.000291
    27  C    0.000000  -0.000001   0.000031   0.000000   0.000001   0.000000
    28  O    0.000018   0.000002   0.000009  -0.000001  -0.000002  -0.000001
    29  H   -0.000091   0.000001  -0.000004   0.000001   0.000000  -0.000001
    30  H   -0.000001  -0.000537   0.000197  -0.001160   0.000779   0.000013
    31  H    0.000005  -0.000001  -0.000074   0.000024  -0.000001   0.000000
    32  H   -0.000000   0.000000  -0.000001   0.000000   0.000000  -0.000000
    33  H    0.000000   0.000000  -0.000002  -0.000000  -0.000003  -0.000000
    34  H    0.000000   0.000000  -0.000000   0.000000   0.000000  -0.000000
               7          8          9         10         11         12
     1  N   -0.037281  -0.002888  -0.003178   0.003810   0.298949   0.230140
     2  C    0.375159  -0.034892  -0.026276  -0.025653  -0.020109  -0.016804
     3  C   -0.026229  -0.003768   0.002867  -0.004300   0.004633  -0.003195
     4  O    0.000623   0.000109  -0.000065  -0.000006   0.000999   0.000840
     5  C   -0.032960   0.371450   0.371145   0.370455   0.000018  -0.002169
     6  H    0.000340   0.000006  -0.000153  -0.000113  -0.009001  -0.008751
     7  H    0.485733   0.003954  -0.002877  -0.002221  -0.002858   0.002877
     8  H    0.003954   0.494251  -0.024420  -0.022080  -0.000166   0.002526
     9  H   -0.002877  -0.024420   0.506027  -0.021456   0.001683  -0.000258
    10  H   -0.002221  -0.022080  -0.021456   0.499191  -0.000083  -0.000015
    11  H   -0.002858  -0.000166   0.001683  -0.000083   0.325741  -0.009602
    12  H    0.002877   0.002526  -0.000258  -0.000015  -0.009602   0.301272
    13  N   -0.000090   0.000127   0.000170   0.000598  -0.000051   0.000317
    14  C   -0.000174  -0.000159   0.000001   0.000105   0.000001  -0.000001
    15  C   -0.000001   0.000044  -0.000001   0.000001   0.000000  -0.000009
    16  O    0.000000   0.000000  -0.000000  -0.000000  -0.000000   0.000001
    17  C    0.000003   0.000002   0.000000  -0.000018  -0.000000  -0.000000
    18  H    0.000075  -0.000186  -0.000081   0.004810  -0.000006   0.000003
    19  H    0.000015  -0.000001   0.000000  -0.000003  -0.000000   0.000001
    20  H   -0.000000  -0.000000   0.000000  -0.000000   0.000000  -0.000000
    21  H   -0.000001  -0.000000  -0.000000   0.000001   0.000000   0.000000
    22  H    0.000001  -0.000001   0.000000  -0.000006   0.000000   0.000000
    23  N   -0.000005  -0.000106   0.000001   0.000002  -0.000000  -0.000201
    24  C   -0.000001  -0.000146  -0.000001  -0.000000  -0.000001   0.001207
    25  C    0.000003   0.000301  -0.000001  -0.000000   0.000015  -0.003332
    26  O    0.000019   0.009122   0.000031   0.000067   0.000437   0.064707
    27  C    0.000000  -0.000007   0.000000  -0.000000   0.000000  -0.000010
    28  O    0.000000   0.000015   0.000000   0.000000   0.000000  -0.000453
    29  H   -0.000000  -0.000006  -0.000000  -0.000000  -0.000000   0.000758
    30  H    0.000030   0.003033   0.000000  -0.000023  -0.000003  -0.000246
    31  H   -0.000000   0.000004  -0.000000   0.000000  -0.000000  -0.000037
    32  H   -0.000000  -0.000000  -0.000000  -0.000000  -0.000000   0.000000
    33  H    0.000000   0.000021  -0.000000   0.000000  -0.000000  -0.000004
    34  H   -0.000000  -0.000000  -0.000000  -0.000000   0.000000  -0.000000
              13         14         15         16         17         18
     1  N    0.001077  -0.000055   0.000046  -0.000000   0.000001   0.000136
     2  C   -0.117209   0.006863  -0.000671  -0.000010  -0.000179  -0.000552
     3  C    0.315390  -0.036374  -0.001976  -0.000480   0.005384  -0.024427
     4  O   -0.087497   0.003496   0.008699  -0.000845   0.000470   0.002745
     5  C    0.006204  -0.000168  -0.000032   0.000000  -0.000026   0.003288
     6  H    0.002182  -0.000070   0.000006   0.000001  -0.000000  -0.000092
     7  H   -0.000090  -0.000174  -0.000001   0.000000   0.000003   0.000075
     8  H    0.000127  -0.000159   0.000044   0.000000   0.000002  -0.000186
     9  H    0.000170   0.000001  -0.000001  -0.000000   0.000000  -0.000081
    10  H    0.000598   0.000105   0.000001  -0.000000  -0.000018   0.004810
    11  H   -0.000051   0.000001   0.000000  -0.000000  -0.000000  -0.000006
    12  H    0.000317  -0.000001  -0.000009   0.000001  -0.000000   0.000003
    13  N    7.175559   0.162719  -0.044232   0.002760  -0.037450   0.295498
    14  C    0.162719   5.144191   0.331959  -0.069015   0.347241  -0.018425
    15  C   -0.044232   0.331959   4.391211   0.588148  -0.035187   0.001364
    16  O    0.002760  -0.069015   0.588148   8.025315  -0.001451  -0.000071
    17  C   -0.037450   0.347241  -0.035187  -0.001451   5.126668  -0.002484
    18  H    0.295498  -0.018425   0.001364  -0.000071  -0.002484   0.378672
    19  H   -0.043591   0.373104  -0.036590   0.004661  -0.028436   0.002607
    20  H    0.003735  -0.029497   0.000147   0.002402   0.377263  -0.000157
    21  H   -0.002435  -0.029423   0.003878  -0.000065   0.372378   0.002192
    22  H   -0.004300  -0.031533  -0.008630  -0.000062   0.369130   0.002941
    23  N   -0.003233  -0.125271   0.229379  -0.096507  -0.000169  -0.000278
    24  C    0.000348   0.006396  -0.020733  -0.003131  -0.000122   0.000043
    25  C   -0.000478  -0.000024   0.001542   0.000279  -0.000003  -0.000004
    26  O   -0.000751  -0.000033   0.000498  -0.000001  -0.000000  -0.000029
    27  C   -0.000011  -0.000248   0.000705  -0.000147   0.000014  -0.000001
    28  O   -0.000001   0.000000   0.000027  -0.000002   0.000000  -0.000000
    29  H    0.000000  -0.000000  -0.000004   0.000000  -0.000000   0.000000
    30  H    0.014614  -0.005424  -0.021440   0.003326   0.000305   0.000176
    31  H   -0.000098   0.001244   0.001076   0.020943  -0.000020   0.000003
    32  H   -0.000000  -0.000001   0.000610   0.000204   0.000000   0.000000
    33  H   -0.000002  -0.000000  -0.000047  -0.000009  -0.000000  -0.000000
    34  H    0.000000   0.000004  -0.000037  -0.000004  -0.000000   0.000000
              19         20         21         22         23         24
     1  N   -0.000010  -0.000000   0.000000  -0.000000   0.000042  -0.000166
     2  C    0.000154   0.000003   0.000004  -0.000005  -0.000198   0.000016
     3  C   -0.002355  -0.000046  -0.000073  -0.000138   0.006470  -0.001477
     4  O    0.004241   0.000001  -0.000001  -0.000009  -0.002480  -0.000180
     5  C    0.000008  -0.000000  -0.000004   0.000005  -0.000222   0.000030
     6  H   -0.000007  -0.000000   0.000000   0.000000   0.000019   0.000000
     7  H    0.000015  -0.000000  -0.000001   0.000001  -0.000005  -0.000001
     8  H   -0.000001  -0.000000  -0.000000  -0.000001  -0.000106  -0.000146
     9  H    0.000000   0.000000  -0.000000   0.000000   0.000001  -0.000001
    10  H   -0.000003  -0.000000   0.000001  -0.000006   0.000002  -0.000000
    11  H   -0.000000   0.000000   0.000000   0.000000  -0.000000  -0.000001
    12  H    0.000001  -0.000000   0.000000   0.000000  -0.000201   0.001207
    13  N   -0.043591   0.003735  -0.002435  -0.004300  -0.003233   0.000348
    14  C    0.373104  -0.029497  -0.029423  -0.031533  -0.125271   0.006396
    15  C   -0.036590   0.000147   0.003878  -0.008630   0.229379  -0.020733
    16  O    0.004661   0.002402  -0.000065  -0.000062  -0.096507  -0.003131
    17  C   -0.028436   0.377263   0.372378   0.369130  -0.000169  -0.000122
    18  H    0.002607  -0.000157   0.002192   0.002941  -0.000278   0.000043
    19  H    0.503224  -0.001586  -0.005136   0.004565   0.005181  -0.000108
    20  H   -0.001586   0.475988  -0.021245  -0.022969   0.000258  -0.000019
    21  H   -0.005136  -0.021245   0.528279  -0.030711  -0.000120   0.000004
    22  H    0.004565  -0.022969  -0.030711   0.555163   0.003839  -0.000059
    23  N    0.005181   0.000258  -0.000120   0.003839   7.178575   0.255510
    24  C   -0.000108  -0.000019   0.000004  -0.000059   0.255510   5.064392
    25  C    0.000001  -0.000000   0.000000   0.000001  -0.047813   0.325742
    26  O    0.000001   0.000000   0.000000  -0.000000  -0.005683  -0.070869
    27  C    0.000001   0.000001  -0.000000   0.000002  -0.052903   0.354251
    28  O   -0.000000   0.000000  -0.000000  -0.000000   0.002426  -0.088456
    29  H    0.000000  -0.000000   0.000000   0.000000  -0.000273   0.008900
    30  H    0.000330  -0.000062  -0.000057   0.001018   0.286549  -0.034541
    31  H   -0.000032  -0.000005   0.000000  -0.000003  -0.048580   0.362969
    32  H    0.000000  -0.000001   0.000000   0.000007  -0.000755  -0.027785
    33  H    0.000000   0.000000   0.000000   0.000001  -0.003099  -0.034701
    34  H   -0.000000  -0.000000   0.000000   0.000000   0.003953  -0.030415
              25         26         27         28         29         30
     1  N    0.001196  -0.029177   0.000000   0.000018  -0.000091  -0.000001
     2  C   -0.000165   0.001017  -0.000001   0.000002   0.000001  -0.000537
     3  C    0.001276   0.006036   0.000031   0.000009  -0.000004   0.000197
     4  O    0.001498  -0.001495   0.000000  -0.000001   0.000001  -0.001160
     5  C    0.000003  -0.004161   0.000001  -0.000002   0.000000   0.000779
     6  H    0.000042   0.000291   0.000000  -0.000001  -0.000001   0.000013
     7  H    0.000003   0.000019   0.000000   0.000000  -0.000000   0.000030
     8  H    0.000301   0.009122  -0.000007   0.000015  -0.000006   0.003033
     9  H   -0.000001   0.000031   0.000000   0.000000  -0.000000   0.000000
    10  H   -0.000000   0.000067  -0.000000   0.000000  -0.000000  -0.000023
    11  H    0.000015   0.000437   0.000000   0.000000  -0.000000  -0.000003
    12  H   -0.003332   0.064707  -0.000010  -0.000453   0.000758  -0.000246
    13  N   -0.000478  -0.000751  -0.000011  -0.000001   0.000000   0.014614
    14  C   -0.000024  -0.000033  -0.000248   0.000000  -0.000000  -0.005424
    15  C    0.001542   0.000498   0.000705   0.000027  -0.000004  -0.021440
    16  O    0.000279  -0.000001  -0.000147  -0.000002   0.000000   0.003326
    17  C   -0.000003  -0.000000   0.000014   0.000000  -0.000000   0.000305
    18  H   -0.000004  -0.000029  -0.000001  -0.000000   0.000000   0.000176
    19  H    0.000001   0.000001   0.000001  -0.000000   0.000000   0.000330
    20  H   -0.000000   0.000000   0.000001   0.000000  -0.000000  -0.000062
    21  H    0.000000   0.000000  -0.000000  -0.000000   0.000000  -0.000057
    22  H    0.000001  -0.000000   0.000002  -0.000000   0.000000   0.001018
    23  N   -0.047813  -0.005683  -0.052903   0.002426  -0.000273   0.286549
    24  C    0.325742  -0.070869   0.354251  -0.088456   0.008900  -0.034541
    25  C    4.363536   0.502185  -0.044592   0.316257  -0.005741  -0.004672
    26  O    0.502185   8.127323  -0.001241  -0.080637   0.007829   0.010906
    27  C   -0.044592  -0.001241   5.103225   0.001709  -0.000440   0.000247
    28  O    0.316257  -0.080637   0.001709   8.139040   0.220982   0.000131
    29  H   -0.005741   0.007829  -0.000440   0.220982   0.338783  -0.000018
    30  H   -0.004672   0.010906   0.000247   0.000131  -0.000018   0.417958
    31  H   -0.026437   0.001473  -0.028881   0.001821  -0.000328   0.004901
    32  H    0.004045  -0.000054   0.377431   0.000034   0.000015  -0.000267
    33  H   -0.004815   0.000927   0.373206  -0.000089  -0.000057   0.002630
    34  H   -0.001142   0.000080   0.368669   0.003636  -0.000028  -0.000136
              31         32         33         34
     1  N    0.000005  -0.000000   0.000000   0.000000
     2  C   -0.000001   0.000000   0.000000   0.000000
     3  C   -0.000074  -0.000001  -0.000002  -0.000000
     4  O    0.000024   0.000000  -0.000000   0.000000
     5  C   -0.000001   0.000000  -0.000003   0.000000
     6  H    0.000000  -0.000000  -0.000000  -0.000000
     7  H   -0.000000  -0.000000   0.000000  -0.000000
     8  H    0.000004  -0.000000   0.000021  -0.000000
     9  H   -0.000000  -0.000000  -0.000000  -0.000000
    10  H    0.000000  -0.000000   0.000000  -0.000000
    11  H   -0.000000  -0.000000  -0.000000   0.000000
    12  H   -0.000037   0.000000  -0.000004  -0.000000
    13  N   -0.000098  -0.000000  -0.000002   0.000000
    14  C    0.001244  -0.000001  -0.000000   0.000004
    15  C    0.001076   0.000610  -0.000047  -0.000037
    16  O    0.020943   0.000204  -0.000009  -0.000004
    17  C   -0.000020   0.000000  -0.000000  -0.000000
    18  H    0.000003   0.000000  -0.000000   0.000000
    19  H   -0.000032   0.000000   0.000000  -0.000000
    20  H   -0.000005  -0.000001   0.000000  -0.000000
    21  H    0.000000   0.000000   0.000000   0.000000
    22  H   -0.000003   0.000007   0.000001   0.000000
    23  N   -0.048580  -0.000755  -0.003099   0.003953
    24  C    0.362969  -0.027785  -0.034701  -0.030415
    25  C   -0.026437   0.004045  -0.004815  -0.001142
    26  O    0.001473  -0.000054   0.000927   0.000080
    27  C   -0.028881   0.377431   0.373206   0.368669
    28  O    0.001821   0.000034  -0.000089   0.003636
    29  H   -0.000328   0.000015  -0.000057  -0.000028
    30  H    0.004901  -0.000267   0.002630  -0.000136
    31  H    0.474655  -0.004332   0.004137  -0.001237
    32  H   -0.004332   0.499143  -0.027253  -0.020412
    33  H    0.004137  -0.027253   0.558858  -0.026307
    34  H   -0.001237  -0.020412  -0.026307   0.511797
 Mulliken charges:
               1
     1  N   -0.751164
     2  C   -0.125191
     3  C    0.669769
     4  O   -0.513274
     5  C   -0.490869
     6  H    0.426573
     7  H    0.235864
     8  H    0.203859
     9  H    0.196840
    10  H    0.196939
    11  H    0.409403
    12  H    0.440437
    13  N   -0.639868
    14  C   -0.031427
    15  C    0.610250
    16  O   -0.476241
    17  C   -0.493314
    18  H    0.352241
    19  H    0.219764
    20  H    0.215790
    21  H    0.182535
    22  H    0.161754
    23  N   -0.584311
    24  C   -0.066896
    25  C    0.621297
    26  O   -0.538817
    27  C   -0.451012
    28  O   -0.516465
    29  H    0.429722
    30  H    0.321442
    31  H    0.236811
    32  H    0.199370
    33  H    0.156609
    34  H    0.191581
 Sum of Mulliken charges =   1.00000
 Mulliken charges with hydrogens summed into heavy atoms:
               1
     1  N    0.525249
     2  C    0.110673
     3  C    0.669769
     4  O   -0.513274
     5  C    0.106769
    13  N   -0.287627
    14  C    0.188336
    15  C    0.610250
    16  O   -0.476241
    17  C    0.066766
    23  N   -0.262869
    24  C    0.169915
    25  C    0.621297
    26  O   -0.538817
    27  C    0.096548
    28  O   -0.086743
 Electronic spatial extent (au):  <R**2>=         123419.4622
 Charge=              1.0000 electrons
 Dipole moment (field-independent basis, Debye):
    X=              8.4203    Y=            -71.3106    Z=            -42.6375  Tot=             83.5109
 Quadrupole moment (field-independent basis, Debye-Ang):
   XX=            -54.3286   YY=            973.7513   ZZ=            296.5952
   XY=           -113.2551   XZ=            -61.0778   YZ=            618.8746
 Traceless Quadrupole moment (field-independent basis, Debye-Ang):
   XX=           -459.6679   YY=            568.4120   ZZ=           -108.7441
   XY=           -113.2551   XZ=            -61.0778   YZ=            618.8746
 Octapole moment (field-independent basis, Debye-Ang**2):
  XXX=             61.3510  YYY=         -11939.1614  ZZZ=          -1625.9495  XYY=           1521.5781
  XXY=            836.6517  XXZ=            357.8299  XZZ=            483.0587  YZZ=          -4200.0492
  YYZ=          -8376.5567  XYZ=            804.1439
 Hexadecapole moment (field-independent basis, Debye-Ang**3):
 XXXX=          -1340.7473 YYYY=         120415.7520 ZZZZ=           3687.5124 XXXY=           -795.1989
 XXXZ=           -410.1771 YYYX=         -20365.8233 YYYZ=         103703.1282 ZZZX=          -4098.4643
 ZZZY=          22212.7360 XXYY=         -13258.1246 XXZZ=          -2810.7865 YYZZ=          54679.2627
 XXYZ=          -5499.9705 YYXZ=         -10548.2621 ZZXY=          -6243.7261
 N-N= 1.262492021409D+03 E-N=-4.417820660620D+03  KE= 8.112657066158D+02
 Unable to Open any file for archive entry.
 1\1\GINC-AMR-134\SP\RB3LYP\6-31G(d)\C9H18N3O4(1+)\KENGMITH\04-Jun-2022
 \0\\# B3LYP/6-31G* empiricaldispersion=gd3 guess=read geom=check nosym
 m integral(ultrafinegrid)\\Candidate Structure: Conf:749 Charge calc i
 n gas phase\\1,1\N,0,2.484187656,-13.4148923706,-8.6849744712\C,0,1.28
 28613053,-13.7865940718,-9.5294902523\C,0,0.1077087905,-13.5279669333,
 -8.5514634788\O,0,0.2913759231,-12.7254258003,-7.6367738024\C,0,1.4337
 08937,-15.1996885846,-10.0803850228\H,0,2.1942646875,-12.5849405962,-8
 .1340554104\H,0,1.2346541334,-13.0488402006,-10.3378213097\H,0,1.46799
 14003,-15.9324809398,-9.2692320666\H,0,2.3457963353,-15.2915654593,-10
 .678972564\H,0,0.5995764181,-15.4379656984,-10.7468146084\H,0,3.327379
 284,-13.2330604156,-9.2347809284\H,0,2.6503889574,-14.1645821412,-7.98
 07585775\N,0,-1.0326567539,-14.2219862541,-8.7150259118\C,0,-2.0856325
 255,-14.1570361333,-7.684023087\C,0,-1.5333205837,-14.624115716,-6.316
 4539391\O,0,-1.9170730296,-14.1197252817,-5.2791955177\C,0,-3.29740223
 27,-14.9854668427,-8.1114533903\H,0,-1.1592568102,-14.8371196542,-9.50
 75576787\H,0,-2.364988515,-13.1115475789,-7.5349145497\H,0,-4.06152733
 58,-14.930751973,-7.3321662592\H,0,-3.7282335779,-14.5987385098,-9.040
 8274245\H,0,-3.0307861088,-16.039767147,-8.2502916687\N,0,-0.636539273
 7,-15.6650572184,-6.3773897523\C,0,0.2355037077,-15.9821009388,-5.2666
 662741\C,0,1.6701528411,-15.6136245968,-5.631684532\O,0,2.0558278253,-
 15.3566997749,-6.7696767317\C,0,0.1537379562,-17.4619517468,-4.8473554
 181\O,0,2.4797412376,-15.6459892984,-4.5787782842\H,0,3.3944152293,-15
 .4560577774,-4.8632033743\H,0,-0.3085449867,-15.9497011547,-7.28929032
 27\H,0,-0.0714607147,-15.3493088031,-4.4275952249\H,0,-0.8758786044,-1
 7.6890364408,-4.5612084308\H,0,0.4379048591,-18.1202767486,-5.67588351
 31\H,0,0.8117840885,-17.6618170991,-3.9977490629\\Version=ES64L-G16Rev
 C.01\HF=-818.8177932\RMSD=6.493e-09\Dipole=3.015735,-0.0671746,-3.2363
 722\Quadrupole=-341.751817,422.6003623,-80.8485454,-84.2023598,-45.409
 8219,460.118105\PG=C01 [X(C9H18N3O4)]\\@
 The archive entry for this job was punched.


 You don't have to suffer to be a poet.
 Adolescence is enough suffering for anyone.
                             -- John Ciardi
 Job cpu time:       0 days  0 hours  0 minutes 20.5 seconds.
 Elapsed time:       0 days  0 hours  0 minutes  5.4 seconds.
 File lengths (MBytes):  RWF=    168 Int=      0 D2E=      0 Chk=     16 Scr=     16
 Normal termination of Gaussian 16 at Sat Jun  4 16:59:04 2022.
