 Entering Gaussian System, Link 0=/opt/software/Gaussian/g16-AVX2-C.01/g16/g16
 Input=charge-conf-962.com
 Output=charge-conf-962.log
 Initial command:
 /opt/software/Gaussian/g16-AVX2-C.01/g16/l1.exe "/mnt/gs18/scratch/users/kengmith/Gau-30252.inp" -scrdir="/mnt/gs18/scratch/users/kengmith/"
 Entering Link 1 = /opt/software/Gaussian/g16-AVX2-C.01/g16/l1.exe PID=     30263.
  
 Copyright (c) 1988-2019, Gaussian, Inc.  All Rights Reserved.
  
 This is part of the Gaussian(R) 16 program.  It is based on
 the Gaussian(R) 09 system (copyright 2009, Gaussian, Inc.),
 the Gaussian(R) 03 system (copyright 2003, Gaussian, Inc.),
 the Gaussian(R) 98 system (copyright 1998, Gaussian, Inc.),
 the Gaussian(R) 94 system (copyright 1995, Gaussian, Inc.),
 the Gaussian 92(TM) system (copyright 1992, Gaussian, Inc.),
 the Gaussian 90(TM) system (copyright 1990, Gaussian, Inc.),
 the Gaussian 88(TM) system (copyright 1988, Gaussian, Inc.),
 the Gaussian 86(TM) system (copyright 1986, Carnegie Mellon
 University), and the Gaussian 82(TM) system (copyright 1983,
 Carnegie Mellon University). Gaussian is a federally registered
 trademark of Gaussian, Inc.
  
 This software contains proprietary and confidential information,
 including trade secrets, belonging to Gaussian, Inc.
  
 This software is provided under written license and may be
 used, copied, transmitted, or stored only in accord with that
 written license.
  
 The following legend is applicable only to US Government
 contracts under FAR:
  
                    RESTRICTED RIGHTS LEGEND
  
 Use, reproduction and disclosure by the US Government is
 subject to restrictions as set forth in subparagraphs (a)
 and (c) of the Commercial Computer Software - Restricted
 Rights clause in FAR 52.227-19.
  
 Gaussian, Inc.
 340 Quinnipiac St., Bldg. 40, Wallingford CT 06492
  
  
 ---------------------------------------------------------------
 Warning -- This program may not be used in any manner that
 competes with the business of Gaussian, Inc. or will provide
 assistance to any competitor of Gaussian, Inc.  The licensee
 of this program is prohibited from giving any competitor of
 Gaussian, Inc. access to this program.  By using this program,
 the user acknowledges that Gaussian, Inc. is engaged in the
 business of creating and licensing software in the field of
 computational chemistry and represents and warrants to the
 licensee that it is not a competitor of Gaussian, Inc. and that
 it will not use this program in any manner prohibited above.
 ---------------------------------------------------------------
  

 Cite this work as:
 Gaussian 16, Revision C.01,
 M. J. Frisch, G. W. Trucks, H. B. Schlegel, G. E. Scuseria, 
 M. A. Robb, J. R. Cheeseman, G. Scalmani, V. Barone, 
 G. A. Petersson, H. Nakatsuji, X. Li, M. Caricato, A. V. Marenich, 
 J. Bloino, B. G. Janesko, R. Gomperts, B. Mennucci, H. P. Hratchian, 
 J. V. Ortiz, A. F. Izmaylov, J. L. Sonnenberg, D. Williams-Young, 
 F. Ding, F. Lipparini, F. Egidi, J. Goings, B. Peng, A. Petrone, 
 T. Henderson, D. Ranasinghe, V. G. Zakrzewski, J. Gao, N. Rega, 
 G. Zheng, W. Liang, M. Hada, M. Ehara, K. Toyota, R. Fukuda, 
 J. Hasegawa, M. Ishida, T. Nakajima, Y. Honda, O. Kitao, H. Nakai, 
 T. Vreven, K. Throssell, J. A. Montgomery, Jr., J. E. Peralta, 
 F. Ogliaro, M. J. Bearpark, J. J. Heyd, E. N. Brothers, K. N. Kudin, 
 V. N. Staroverov, T. A. Keith, R. Kobayashi, J. Normand, 
 K. Raghavachari, A. P. Rendell, J. C. Burant, S. S. Iyengar, 
 J. Tomasi, M. Cossi, J. M. Millam, M. Klene, C. Adamo, R. Cammi, 
 J. W. Ochterski, R. L. Martin, K. Morokuma, O. Farkas, 
 J. B. Foresman, and D. J. Fox, Gaussian, Inc., Wallingford CT, 2019.
 
 ******************************************
 Gaussian 16:  ES64L-G16RevC.01  3-Jul-2019
                11-Jun-2022 
 ******************************************
 %mem=8gb
 %nproc=4
 Will use up to    4 processors via shared memory.
 %chk=conf-962.chk
 ----------------------------------------------------------------------
 # B3LYP/6-31G* empiricaldispersion=gd3 guess=read geom=check nosymm in
 tegral(ultrafinegrid)
 ----------------------------------------------------------------------
 1/29=2,38=1,172=1/1;
 2/12=2,15=1,40=1/2;
 3/5=1,6=6,7=1,11=2,14=-4,25=1,30=1,74=-5,75=-5,116=-2,124=31/1,2,3;
 4/5=1/1;
 5/5=2,38=6/2;
 6/7=2,8=2,9=2,10=2,28=1/1;
 99/5=1,9=1/99;
 ------------------------------------------------------
 Candidate Structure: Conf:962 Charge calc in gas phase
 ------------------------------------------------------
 Structure from the checkpoint file:  "conf-962.chk"
 Charge =  1 Multiplicity = 1
 Redundant internal coordinates found in file.  (old form).
 N,0,-2.6683583408,11.9543909376,-3.869539555
 C,0,-2.3554083953,10.5206827115,-4.0465079603
 C,0,-0.9392172347,10.4783263757,-4.6621569436
 O,0,-0.2165770658,11.4643697551,-4.6267301055
 C,0,-3.4227500524,9.8591109902,-4.9573454589
 C,0,-4.8390313113,10.2167073511,-4.5587304323
 C,0,-5.3729966586,9.7827715569,-3.3365167408
 C,0,-5.6187309228,11.0293521788,-5.3918420849
 C,0,-6.6619036642,10.1531516261,-2.9521343473
 C,0,-6.9101430507,11.3973350233,-5.0076509841
 C,0,-7.4340598781,10.963804094,-3.7887498867
 H,0,-3.5616275198,12.0600541964,-3.3921416029
 H,0,-2.3368054964,9.9990575461,-3.0775264956
 H,0,-3.2930222296,8.7693882082,-4.903589062
 H,0,-3.2515784354,10.1629613106,-5.9945779003
 H,0,-4.7795288009,9.1439579685,-2.6848226206
 H,0,-5.2171355975,11.3584365371,-6.3455272834
 H,0,-7.0657481701,9.8040306307,-2.0058433495
 H,0,-7.5087528308,12.020177697,-5.6671522994
 H,0,-8.440136668,11.2480024838,-3.4929792074
 H,0,-1.9300519423,12.3948887228,-3.3223281009
 H,0,-2.5439667078,12.558241103,-5.3023498625
 N,0,-0.5691990482,9.3149811036,-5.2776791271
 C,0,0.5143244022,9.3013946696,-6.264040809
 C,0,0.0163177489,9.8712358203,-7.6099691875
 O,0,0.6194558022,10.7487473181,-8.2170769676
 C,0,1.0888912933,7.8847344148,-6.4143656772
 C,0,2.157129886,7.7322535151,-7.5147656061
 C,0,3.3257431712,8.7114597525,-7.3289886939
 C,0,2.6510042807,6.2793321464,-7.5533887986
 H,0,-1.1932835866,8.5207304207,-5.2426481131
 H,0,1.2758927412,9.9974813832,-5.9141082214
 H,0,1.5130121356,7.5924914437,-5.4446943105
 H,0,0.2643250543,7.1855977938,-6.6234297751
 H,0,1.6799878843,7.9534843612,-8.4807485264
 H,0,3.0044581263,9.7506184826,-7.4493207812
 H,0,3.7770964502,8.5973179813,-6.3347185767
 H,0,4.1073272772,8.5190186208,-8.0720278723
 H,0,3.1554451554,6.0136574101,-6.6156928142
 H,0,1.82392775,5.5740930359,-7.7010253933
 H,0,3.3673598929,6.132832575,-8.3688956067
 N,0,-1.1236926103,9.2886735342,-8.1046211018
 C,0,-1.7955984274,9.8449975117,-9.2760816873
 C,0,-2.6288268703,11.0552203957,-8.8329163381
 O,0,-3.7620225194,10.9238399401,-8.3653277462
 C,0,-2.6982349509,8.8066751848,-9.9371535089
 C,0,-3.3170929644,9.386197373,-11.2115265577
 N,0,-3.9630691142,8.4896731895,-12.0017074796
 O,0,-3.2367561691,10.5782304997,-11.4894315027
 H,0,-1.7012462393,8.7551453652,-7.4689268588
 H,0,-1.0190364769,10.1647284154,-9.9723562098
 H,0,-2.1251997017,7.8987757957,-10.1572631848
 H,0,-3.5122020147,8.5407181795,-9.2507619895
 H,0,-4.4089768543,8.823557373,-12.8449173295
 H,0,-4.0255847963,7.5077903005,-11.7784171204
 N,0,-2.0198895622,12.2602117507,-8.9409035287
 C,0,-2.7503758969,13.4446653186,-8.5205860466
 C,0,-3.1409154834,13.3520850321,-7.0247025514
 O,0,-4.1516014487,13.9057456434,-6.5646161959
 C,0,-3.9683398677,13.7134620184,-9.4495506426
 C,0,-4.0239250734,15.0977844251,-10.1285765711
 C,0,-3.8918158302,16.3283823542,-9.2151380181
 N,0,-4.7028819805,16.1581535534,-7.9982025201
 C,0,-4.7548209934,17.031171202,-6.9913626887
 N,0,-4.6280801406,18.3523427696,-7.2084707291
 N,0,-4.9302788367,16.5659644095,-5.7458061845
 O,0,-2.2724044533,12.7034302592,-6.3161564827
 H,0,-1.0095816562,12.2766034656,-9.0258039995
 H,0,-2.0352955977,14.2748676021,-8.5797968963
 H,0,-4.8908942869,13.5217726628,-8.89495147
 H,0,-3.9460249683,12.9624039812,-10.2433376512
 H,0,-3.2270133522,15.1765258879,-10.8776357792
 H,0,-4.9720847298,15.1610076943,-10.6742409638
 H,0,-2.8451036898,16.4898468619,-8.9229022574
 H,0,-4.2172880573,17.2173851567,-9.7660342445
 H,0,-4.7591593242,15.1862712377,-7.6647347449
 H,0,-4.5860520352,19.0093173281,-6.4435148806
 H,0,-4.7100024099,18.7296793489,-8.140784127
 H,0,-5.2279753866,17.1624106006,-4.9881838001
 H,0,-4.7862235232,15.5719020451,-5.5739488289
 Recover connectivity data from disk.
                           ----------------------------
                           !    Current Parameters    !
                           ! (Angstroms and Degrees)  !
 --------------------------                            --------------------------
 ! Name  Definition              Value                                          !
 --------------------------------------------------------------------------------
 ! R1    R(1,2)                  1.4781                                         !
 ! R2    R(1,12)                 1.0183                                         !
 ! R3    R(1,21)                 1.0191                                         !
 ! R4    R(2,3)                  1.5448                                         !
 ! R5    R(2,5)                  1.5513                                         !
 ! R6    R(2,13)                 1.1006                                         !
 ! R7    R(3,4)                  1.223                                          !
 ! R8    R(3,23)                 1.3672                                         !
 ! R9    R(5,6)                  1.5141                                         !
 ! R10   R(5,14)                 1.0987                                         !
 ! R11   R(5,15)                 1.0943                                         !
 ! R12   R(6,7)                  1.4026                                         !
 ! R13   R(6,8)                  1.4009                                         !
 ! R14   R(7,9)                  1.3951                                         !
 ! R15   R(7,16)                 1.0886                                         !
 ! R16   R(8,10)                 1.3967                                         !
 ! R17   R(8,17)                 1.0859                                         !
 ! R18   R(9,11)                 1.3976                                         !
 ! R19   R(9,18)                 1.0865                                         !
 ! R20   R(10,11)                1.3958                                         !
 ! R21   R(10,19)                1.0868                                         !
 ! R22   R(11,20)                1.0865                                         !
 ! R23   R(22,67)                1.0595                                         !
 ! R24   R(23,24)                1.4653                                         !
 ! R25   R(23,31)                1.0107                                         !
 ! R26   R(24,25)                1.5441                                         !
 ! R27   R(24,27)                1.5361                                         !
 ! R28   R(24,32)                1.0895                                         !
 ! R29   R(25,26)                1.2257                                         !
 ! R30   R(25,42)                1.3725                                         !
 ! R31   R(27,28)                1.5412                                         !
 ! R32   R(27,33)                1.098                                          !
 ! R33   R(27,34)                1.1011                                         !
 ! R34   R(28,29)                1.5359                                         !
 ! R35   R(28,30)                1.5351                                         !
 ! R36   R(28,35)                1.0999                                         !
 ! R37   R(29,36)                1.0943                                         !
 ! R38   R(29,37)                1.0979                                         !
 ! R39   R(29,38)                1.0955                                         !
 ! R40   R(30,39)                1.0974                                         !
 ! R41   R(30,40)                1.0969                                         !
 ! R42   R(30,41)                1.0953                                         !
 ! R43   R(42,43)                1.4606                                         !
 ! R44   R(42,50)                1.0111                                         !
 ! R45   R(43,44)                1.5347                                         !
 ! R46   R(43,46)                1.5264                                         !
 ! R47   R(43,51)                1.0909                                         !
 ! R48   R(44,45)                1.2329                                         !
 ! R49   R(44,56)                1.3544                                         !
 ! R50   R(46,47)                1.5306                                         !
 ! R51   R(46,52)                1.0959                                         !
 ! R52   R(46,53)                1.0975                                         !
 ! R53   R(47,48)                1.3585                                         !
 ! R54   R(47,49)                1.2266                                         !
 ! R55   R(48,54)                1.0106                                         !
 ! R56   R(48,55)                1.0089                                         !
 ! R57   R(56,57)                1.4537                                         !
 ! R58   R(56,68)                1.014                                          !
 ! R59   R(57,58)                1.5488                                         !
 ! R60   R(57,60)                1.5552                                         !
 ! R61   R(57,69)                1.0973                                         !
 ! R62   R(58,59)                1.2408                                         !
 ! R63   R(58,67)                1.295                                          !
 ! R64   R(60,61)                1.5429                                         !
 ! R65   R(60,70)                1.0934                                         !
 ! R66   R(60,71)                1.093                                          !
 ! R67   R(61,62)                1.5382                                         !
 ! R68   R(61,72)                1.0965                                         !
 ! R69   R(61,73)                1.0958                                         !
 ! R70   R(62,63)                1.4723                                         !
 ! R71   R(62,74)                1.0987                                         !
 ! R72   R(62,75)                1.0953                                         !
 ! R73   R(63,64)                1.3336                                         !
 ! R74   R(63,76)                1.029                                          !
 ! R75   R(64,65)                1.3449                                         !
 ! R76   R(64,66)                1.3411                                         !
 ! R77   R(65,77)                1.0092                                         !
 ! R78   R(65,78)                1.0091                                         !
 ! R79   R(66,79)                1.0091                                         !
 ! R80   R(66,80)                1.019                                          !
 ! A1    A(2,1,12)             110.029                                          !
 ! A2    A(2,1,21)             109.2785                                         !
 ! A3    A(12,1,21)            109.8109                                         !
 ! A4    A(1,2,3)              105.5695                                         !
 ! A5    A(1,2,5)              109.7721                                         !
 ! A6    A(1,2,13)             110.9698                                         !
 ! A7    A(3,2,5)              112.6476                                         !
 ! A8    A(3,2,13)             108.8065                                         !
 ! A9    A(5,2,13)             109.0524                                         !
 ! A10   A(2,3,4)              120.5326                                         !
 ! A11   A(2,3,23)             116.7994                                         !
 ! A12   A(4,3,23)             122.6272                                         !
 ! A13   A(2,5,6)              112.8471                                         !
 ! A14   A(2,5,14)             108.2403                                         !
 ! A15   A(2,5,15)             109.2986                                         !
 ! A16   A(6,5,14)             109.3777                                         !
 ! A17   A(6,5,15)             109.2851                                         !
 ! A18   A(14,5,15)            107.6557                                         !
 ! A19   A(5,6,7)              120.8263                                         !
 ! A20   A(5,6,8)              120.0697                                         !
 ! A21   A(7,6,8)              119.0662                                         !
 ! A22   A(6,7,9)              120.6433                                         !
 ! A23   A(6,7,16)             119.7152                                         !
 ! A24   A(9,7,16)             119.6396                                         !
 ! A25   A(6,8,10)             120.2571                                         !
 ! A26   A(6,8,17)             119.4909                                         !
 ! A27   A(10,8,17)            120.2453                                         !
 ! A28   A(7,9,11)             119.967                                          !
 ! A29   A(7,9,18)             119.8731                                         !
 ! A30   A(11,9,18)            120.1582                                         !
 ! A31   A(8,10,11)            120.3612                                         !
 ! A32   A(8,10,19)            119.5601                                         !
 ! A33   A(11,10,19)           120.0779                                         !
 ! A34   A(9,11,10)            119.7048                                         !
 ! A35   A(9,11,20)            120.024                                          !
 ! A36   A(10,11,20)           120.2696                                         !
 ! A37   A(3,23,24)            120.7358                                         !
 ! A38   A(3,23,31)            119.0751                                         !
 ! A39   A(24,23,31)           118.2054                                         !
 ! A40   A(23,24,25)           110.172                                          !
 ! A41   A(23,24,27)           110.5491                                         !
 ! A42   A(23,24,32)           107.143                                          !
 ! A43   A(25,24,27)           112.0663                                         !
 ! A44   A(25,24,32)           105.6422                                         !
 ! A45   A(27,24,32)           111.0512                                         !
 ! A46   A(24,25,26)           122.496                                          !
 ! A47   A(24,25,42)           115.1762                                         !
 ! A48   A(26,25,42)           122.2823                                         !
 ! A49   A(24,27,28)           114.858                                          !
 ! A50   A(24,27,33)           107.6694                                         !
 ! A51   A(24,27,34)           108.9079                                         !
 ! A52   A(28,27,33)           109.6631                                         !
 ! A53   A(28,27,34)           108.7034                                         !
 ! A54   A(33,27,34)           106.7351                                         !
 ! A55   A(27,28,29)           112.2058                                         !
 ! A56   A(27,28,30)           109.5488                                         !
 ! A57   A(27,28,35)           107.8477                                         !
 ! A58   A(29,28,30)           111.2035                                         !
 ! A59   A(29,28,35)           107.9428                                         !
 ! A60   A(30,28,35)           107.9299                                         !
 ! A61   A(28,29,36)           111.6366                                         !
 ! A62   A(28,29,37)           110.8585                                         !
 ! A63   A(28,29,38)           110.415                                          !
 ! A64   A(36,29,37)           108.603                                          !
 ! A65   A(36,29,38)           107.5599                                         !
 ! A66   A(37,29,38)           107.6198                                         !
 ! A67   A(28,30,39)           110.8258                                         !
 ! A68   A(28,30,40)           111.6744                                         !
 ! A69   A(28,30,41)           110.8395                                         !
 ! A70   A(39,30,40)           107.815                                          !
 ! A71   A(39,30,41)           107.6485                                         !
 ! A72   A(40,30,41)           107.8746                                         !
 ! A73   A(25,42,43)           120.6308                                         !
 ! A74   A(25,42,50)           118.1541                                         !
 ! A75   A(43,42,50)           116.262                                          !
 ! A76   A(42,43,44)           108.5735                                         !
 ! A77   A(42,43,46)           111.1188                                         !
 ! A78   A(42,43,51)           107.2222                                         !
 ! A79   A(44,43,46)           109.9027                                         !
 ! A80   A(44,43,51)           109.8565                                         !
 ! A81   A(46,43,51)           110.1148                                         !
 ! A82   A(43,44,45)           121.635                                          !
 ! A83   A(43,44,56)           115.7504                                         !
 ! A84   A(45,44,56)           122.5664                                         !
 ! A85   A(43,46,47)           110.0063                                         !
 ! A86   A(43,46,52)           109.9566                                         !
 ! A87   A(43,46,53)           109.4251                                         !
 ! A88   A(47,46,52)           110.9675                                         !
 ! A89   A(47,46,53)           108.2163                                         !
 ! A90   A(52,46,53)           108.2195                                         !
 ! A91   A(46,47,48)           115.2568                                         !
 ! A92   A(46,47,49)           122.011                                          !
 ! A93   A(48,47,49)           122.7312                                         !
 ! A94   A(47,48,54)           118.4964                                         !
 ! A95   A(47,48,55)           122.8891                                         !
 ! A96   A(54,48,55)           118.611                                          !
 ! A97   A(44,56,57)           118.4193                                         !
 ! A98   A(44,56,68)           117.9701                                         !
 ! A99   A(57,56,68)           120.778                                          !
 ! A100  A(56,57,58)           110.9324                                         !
 ! A101  A(56,57,60)           111.2019                                         !
 ! A102  A(56,57,69)           105.866                                          !
 ! A103  A(58,57,60)           112.9404                                         !
 ! A104  A(58,57,69)           105.1689                                         !
 ! A105  A(60,57,69)           110.3259                                         !
 ! A106  A(57,58,59)           122.4681                                         !
 ! A107  A(57,58,67)           112.9089                                         !
 ! A108  A(59,58,67)           124.5327                                         !
 ! A109  A(57,60,61)           116.4983                                         !
 ! A110  A(57,60,70)           109.1182                                         !
 ! A111  A(57,60,71)           107.4004                                         !
 ! A112  A(61,60,70)           110.496                                          !
 ! A113  A(61,60,71)           107.316                                          !
 ! A114  A(70,60,71)           105.3749                                         !
 ! A115  A(60,61,62)           116.9587                                         !
 ! A116  A(60,61,72)           109.8092                                         !
 ! A117  A(60,61,73)           107.5834                                         !
 ! A118  A(62,61,72)           106.6059                                         !
 ! A119  A(62,61,73)           108.8963                                         !
 ! A120  A(72,61,73)           106.5311                                         !
 ! A121  A(61,62,63)           110.5491                                         !
 ! A122  A(61,62,74)           110.9371                                         !
 ! A123  A(61,62,75)           108.9731                                         !
 ! A124  A(63,62,74)           108.7816                                         !
 ! A125  A(63,62,75)           110.2342                                         !
 ! A126  A(74,62,75)           107.3131                                         !
 ! A127  A(62,63,64)           124.7343                                         !
 ! A128  A(62,63,76)           114.0272                                         !
 ! A129  A(64,63,76)           111.8066                                         !
 ! A130  A(63,64,65)           121.1668                                         !
 ! A131  A(63,64,66)           118.6321                                         !
 ! A132  A(65,64,66)           120.2002                                         !
 ! A133  A(64,65,77)           121.4032                                         !
 ! A134  A(64,65,78)           120.5864                                         !
 ! A135  A(77,65,78)           117.4028                                         !
 ! A136  A(64,66,79)           122.062                                          !
 ! A137  A(64,66,80)           118.4577                                         !
 ! A138  A(79,66,80)           119.4488                                         !
 ! A139  A(22,67,58)           114.8508                                         !
 ! D1    D(12,1,2,3)          -175.2271                                         !
 ! D2    D(12,1,2,5)            63.1091                                         !
 ! D3    D(12,1,2,13)          -57.5054                                         !
 ! D4    D(21,1,2,3)           -54.5852                                         !
 ! D5    D(21,1,2,5)          -176.249                                          !
 ! D6    D(21,1,2,13)           63.1366                                         !
 ! D7    D(1,2,3,4)             16.2076                                         !
 ! D8    D(1,2,3,23)          -161.5305                                         !
 ! D9    D(5,2,3,4)            135.9936                                         !
 ! D10   D(5,2,3,23)           -41.7445                                         !
 ! D11   D(13,2,3,4)          -102.9589                                         !
 ! D12   D(13,2,3,23)           79.3029                                         !
 ! D13   D(1,2,5,6)            -47.1313                                         !
 ! D14   D(1,2,5,14)          -168.3258                                         !
 ! D15   D(1,2,5,15)            74.6892                                         !
 ! D16   D(3,2,5,6)           -164.4564                                         !
 ! D17   D(3,2,5,14)            74.3492                                         !
 ! D18   D(3,2,5,15)           -42.6359                                         !
 ! D19   D(13,2,5,6)            74.6366                                         !
 ! D20   D(13,2,5,14)          -46.5578                                         !
 ! D21   D(13,2,5,15)         -163.5429                                         !
 ! D22   D(2,3,23,24)          158.9436                                         !
 ! D23   D(2,3,23,31)           -4.7492                                         !
 ! D24   D(4,3,23,24)          -18.7431                                         !
 ! D25   D(4,3,23,31)          177.564                                          !
 ! D26   D(2,5,6,7)            -66.4068                                         !
 ! D27   D(2,5,6,8)            111.3382                                         !
 ! D28   D(14,5,6,7)            54.1395                                         !
 ! D29   D(14,5,6,8)          -128.1154                                         !
 ! D30   D(15,5,6,7)           171.7651                                         !
 ! D31   D(15,5,6,8)           -10.4898                                         !
 ! D32   D(5,6,7,9)            177.7576                                         !
 ! D33   D(5,6,7,16)            -2.7536                                         !
 ! D34   D(8,6,7,9)             -0.0098                                         !
 ! D35   D(8,6,7,16)           179.479                                          !
 ! D36   D(5,6,8,10)          -177.9154                                         !
 ! D37   D(5,6,8,17)             3.0204                                         !
 ! D38   D(7,6,8,10)            -0.1308                                         !
 ! D39   D(7,6,8,17)          -179.1949                                         !
 ! D40   D(6,7,9,11)             0.0299                                         !
 ! D41   D(6,7,9,18)           179.5635                                         !
 ! D42   D(16,7,9,11)         -179.4594                                         !
 ! D43   D(16,7,9,18)            0.0742                                         !
 ! D44   D(6,8,10,11)            0.2527                                         !
 ! D45   D(6,8,10,19)         -179.4039                                         !
 ! D46   D(17,8,10,11)         179.3098                                         !
 ! D47   D(17,8,10,19)          -0.3469                                         !
 ! D48   D(7,9,11,10)            0.0903                                         !
 ! D49   D(7,9,11,20)          179.6399                                         !
 ! D50   D(18,9,11,10)        -179.442                                          !
 ! D51   D(18,9,11,20)           0.1077                                         !
 ! D52   D(8,10,11,9)           -0.2313                                         !
 ! D53   D(8,10,11,20)        -179.7799                                         !
 ! D54   D(19,10,11,9)         179.4235                                         !
 ! D55   D(19,10,11,20)         -0.1251                                         !
 ! D56   D(3,23,24,25)         -76.7355                                         !
 ! D57   D(3,23,24,27)         158.8525                                         !
 ! D58   D(3,23,24,32)          37.7162                                         !
 ! D59   D(31,23,24,25)         87.0957                                         !
 ! D60   D(31,23,24,27)        -37.3163                                         !
 ! D61   D(31,23,24,32)       -158.4526                                         !
 ! D62   D(23,24,25,26)        129.6687                                         !
 ! D63   D(23,24,25,42)        -52.7358                                         !
 ! D64   D(27,24,25,26)       -106.7976                                         !
 ! D65   D(27,24,25,42)         70.7979                                         !
 ! D66   D(32,24,25,26)         14.267                                          !
 ! D67   D(32,24,25,42)       -168.1374                                         !
 ! D68   D(23,24,27,28)        175.1035                                         !
 ! D69   D(23,24,27,33)        -62.431                                          !
 ! D70   D(23,24,27,34)         52.945                                          !
 ! D71   D(25,24,27,28)         51.7817                                         !
 ! D72   D(25,24,27,33)        174.2473                                         !
 ! D73   D(25,24,27,34)        -70.3767                                         !
 ! D74   D(32,24,27,28)        -66.108                                          !
 ! D75   D(32,24,27,33)         56.3576                                         !
 ! D76   D(32,24,27,34)        171.7336                                         !
 ! D77   D(24,25,42,43)        172.0852                                         !
 ! D78   D(24,25,42,50)         17.9116                                         !
 ! D79   D(26,25,42,43)        -10.3136                                         !
 ! D80   D(26,25,42,50)       -164.4872                                         !
 ! D81   D(24,27,28,29)         55.6431                                         !
 ! D82   D(24,27,28,30)        179.6642                                         !
 ! D83   D(24,27,28,35)        -63.108                                          !
 ! D84   D(33,27,28,29)        -65.7413                                         !
 ! D85   D(33,27,28,30)         58.2797                                         !
 ! D86   D(33,27,28,35)        175.5075                                         !
 ! D87   D(34,27,28,29)        177.9121                                         !
 ! D88   D(34,27,28,30)        -58.0668                                         !
 ! D89   D(34,27,28,35)         59.161                                          !
 ! D90   D(27,28,29,36)        -65.3974                                         !
 ! D91   D(27,28,29,37)         55.8277                                         !
 ! D92   D(27,28,29,38)        175.0012                                         !
 ! D93   D(30,28,29,36)        171.5081                                         !
 ! D94   D(30,28,29,37)        -67.2668                                         !
 ! D95   D(30,28,29,38)         51.9068                                         !
 ! D96   D(35,28,29,36)         53.2976                                         !
 ! D97   D(35,28,29,37)        174.5228                                         !
 ! D98   D(35,28,29,38)        -66.3037                                         !
 ! D99   D(27,28,30,39)        -63.973                                          !
 ! D100  D(27,28,30,40)         56.2528                                         !
 ! D101  D(27,28,30,41)        176.5636                                         !
 ! D102  D(29,28,30,39)         60.6326                                         !
 ! D103  D(29,28,30,40)       -179.1416                                         !
 ! D104  D(29,28,30,41)        -58.8308                                         !
 ! D105  D(35,28,30,39)        178.8509                                         !
 ! D106  D(35,28,30,40)        -60.9234                                         !
 ! D107  D(35,28,30,41)         59.3874                                         !
 ! D108  D(25,42,43,44)        -79.3949                                         !
 ! D109  D(25,42,43,46)        159.6228                                         !
 ! D110  D(25,42,43,51)         39.2453                                         !
 ! D111  D(50,42,43,44)         75.2447                                         !
 ! D112  D(50,42,43,46)        -45.7376                                         !
 ! D113  D(50,42,43,51)       -166.1151                                         !
 ! D114  D(42,43,44,45)        -83.6677                                         !
 ! D115  D(42,43,44,56)         93.8691                                         !
 ! D116  D(46,43,44,45)         38.0612                                         !
 ! D117  D(46,43,44,56)       -144.402                                          !
 ! D118  D(51,43,44,45)        159.3677                                         !
 ! D119  D(51,43,44,56)        -23.0955                                         !
 ! D120  D(42,43,46,47)       -176.295                                          !
 ! D121  D(42,43,46,52)        -53.7912                                         !
 ! D122  D(42,43,46,53)         64.9439                                         !
 ! D123  D(44,43,46,47)         63.5074                                         !
 ! D124  D(44,43,46,52)       -173.9888                                         !
 ! D125  D(44,43,46,53)        -55.2536                                         !
 ! D126  D(51,43,46,47)        -57.6441                                         !
 ! D127  D(51,43,46,52)         64.8597                                         !
 ! D128  D(51,43,46,53)       -176.4052                                         !
 ! D129  D(43,44,56,57)       -179.2065                                         !
 ! D130  D(43,44,56,68)        -18.0959                                         !
 ! D131  D(45,44,56,57)         -1.6949                                         !
 ! D132  D(45,44,56,68)        159.4156                                         !
 ! D133  D(43,46,47,48)        169.6769                                         !
 ! D134  D(43,46,47,49)        -10.6625                                         !
 ! D135  D(52,46,47,48)         47.7719                                         !
 ! D136  D(52,46,47,49)       -132.5675                                         !
 ! D137  D(53,46,47,48)        -70.8228                                         !
 ! D138  D(53,46,47,49)        108.8378                                         !
 ! D139  D(46,47,48,54)        178.568                                          !
 ! D140  D(46,47,48,55)         -0.7416                                         !
 ! D141  D(49,47,48,54)         -1.0899                                         !
 ! D142  D(49,47,48,55)        179.6005                                         !
 ! D143  D(44,56,57,58)         59.7692                                         !
 ! D144  D(44,56,57,60)        -66.8144                                         !
 ! D145  D(44,56,57,69)        173.3452                                         !
 ! D146  D(68,56,57,58)       -100.792                                          !
 ! D147  D(68,56,57,60)        132.6244                                         !
 ! D148  D(68,56,57,69)         12.7841                                         !
 ! D149  D(56,57,58,59)       -150.8596                                         !
 ! D150  D(56,57,58,67)         32.4506                                         !
 ! D151  D(60,57,58,59)        -25.2427                                         !
 ! D152  D(60,57,58,67)        158.0674                                         !
 ! D153  D(69,57,58,59)         95.1255                                         !
 ! D154  D(69,57,58,67)        -81.5644                                         !
 ! D155  D(56,57,60,61)       -123.5022                                         !
 ! D156  D(56,57,60,70)        110.5608                                         !
 ! D157  D(56,57,60,71)         -3.1863                                         !
 ! D158  D(58,57,60,61)        111.0262                                         !
 ! D159  D(58,57,60,70)        -14.9108                                         !
 ! D160  D(58,57,60,71)       -128.6579                                         !
 ! D161  D(69,57,60,61)         -6.3471                                         !
 ! D162  D(69,57,60,70)       -132.2841                                         !
 ! D163  D(69,57,60,71)        113.9688                                         !
 ! D164  D(57,58,67,22)       -175.604                                          !
 ! D165  D(59,58,67,22)          7.7862                                         !
 ! D166  D(57,60,61,62)        -52.4676                                         !
 ! D167  D(57,60,61,72)         69.1334                                         !
 ! D168  D(57,60,61,73)       -175.3099                                         !
 ! D169  D(70,60,61,62)         72.776                                          !
 ! D170  D(70,60,61,72)       -165.623                                          !
 ! D171  D(70,60,61,73)        -50.0663                                         !
 ! D172  D(71,60,61,62)       -172.8286                                         !
 ! D173  D(71,60,61,72)        -51.2276                                         !
 ! D174  D(71,60,61,73)         64.3291                                         !
 ! D175  D(60,61,62,63)        -43.3634                                         !
 ! D176  D(60,61,62,74)         77.4052                                         !
 ! D177  D(60,61,62,75)       -164.6593                                         !
 ! D178  D(72,61,62,63)       -166.6231                                         !
 ! D179  D(72,61,62,74)        -45.8545                                         !
 ! D180  D(72,61,62,75)         72.081                                          !
 ! D181  D(73,61,62,63)         78.7998                                         !
 ! D182  D(73,61,62,74)       -160.4316                                         !
 ! D183  D(73,61,62,75)        -42.4961                                         !
 ! D184  D(61,62,63,64)        177.305                                          !
 ! D185  D(61,62,63,76)         33.7924                                         !
 ! D186  D(74,62,63,64)         55.2612                                         !
 ! D187  D(74,62,63,76)        -88.2514                                         !
 ! D188  D(75,62,63,64)        -62.1489                                         !
 ! D189  D(75,62,63,76)        154.3385                                         !
 ! D190  D(62,63,64,65)         32.3878                                         !
 ! D191  D(62,63,64,66)       -147.2711                                         !
 ! D192  D(76,63,64,65)        176.5861                                         !
 ! D193  D(76,63,64,66)         -3.0728                                         !
 ! D194  D(63,64,65,77)       -174.5927                                         !
 ! D195  D(63,64,65,78)         14.5765                                         !
 ! D196  D(66,64,65,77)          5.0609                                         !
 ! D197  D(66,64,65,78)       -165.7699                                         !
 ! D198  D(63,64,66,79)       -162.8641                                         !
 ! D199  D(63,64,66,80)         15.0793                                         !
 ! D200  D(65,64,66,79)         17.4736                                         !
 ! D201  D(65,64,66,80)       -164.583                                          !
 --------------------------------------------------------------------------------
 Symmetry turned off by external request.
 Stoichiometry    C25H41N8O6(1+)
 Framework group  C1[X(C25H41N8O6)]
 Deg. of freedom   234
 Full point group                 C1      NOp   1
                          Input orientation:                          
 ---------------------------------------------------------------------
 Center     Atomic      Atomic             Coordinates (Angstroms)
 Number     Number       Type             X           Y           Z
 ---------------------------------------------------------------------
      1          7           0       -2.668358   11.954391   -3.869540
      2          6           0       -2.355408   10.520683   -4.046508
      3          6           0       -0.939217   10.478326   -4.662157
      4          8           0       -0.216577   11.464370   -4.626730
      5          6           0       -3.422750    9.859111   -4.957345
      6          6           0       -4.839031   10.216707   -4.558730
      7          6           0       -5.372997    9.782772   -3.336517
      8          6           0       -5.618731   11.029352   -5.391842
      9          6           0       -6.661904   10.153152   -2.952134
     10          6           0       -6.910143   11.397335   -5.007651
     11          6           0       -7.434060   10.963804   -3.788750
     12          1           0       -3.561628   12.060054   -3.392142
     13          1           0       -2.336805    9.999058   -3.077526
     14          1           0       -3.293022    8.769388   -4.903589
     15          1           0       -3.251578   10.162961   -5.994578
     16          1           0       -4.779529    9.143958   -2.684823
     17          1           0       -5.217136   11.358437   -6.345527
     18          1           0       -7.065748    9.804031   -2.005843
     19          1           0       -7.508753   12.020178   -5.667152
     20          1           0       -8.440137   11.248002   -3.492979
     21          1           0       -1.930052   12.394889   -3.322328
     22          1           0       -2.543967   12.558241   -5.302350
     23          7           0       -0.569199    9.314981   -5.277679
     24          6           0        0.514324    9.301395   -6.264041
     25          6           0        0.016318    9.871236   -7.609969
     26          8           0        0.619456   10.748747   -8.217077
     27          6           0        1.088891    7.884734   -6.414366
     28          6           0        2.157130    7.732254   -7.514766
     29          6           0        3.325743    8.711460   -7.328989
     30          6           0        2.651004    6.279332   -7.553389
     31          1           0       -1.193284    8.520730   -5.242648
     32          1           0        1.275893    9.997481   -5.914108
     33          1           0        1.513012    7.592491   -5.444694
     34          1           0        0.264325    7.185598   -6.623430
     35          1           0        1.679988    7.953484   -8.480749
     36          1           0        3.004458    9.750618   -7.449321
     37          1           0        3.777096    8.597318   -6.334719
     38          1           0        4.107327    8.519019   -8.072028
     39          1           0        3.155445    6.013657   -6.615693
     40          1           0        1.823928    5.574093   -7.701025
     41          1           0        3.367360    6.132833   -8.368896
     42          7           0       -1.123693    9.288674   -8.104621
     43          6           0       -1.795598    9.844998   -9.276082
     44          6           0       -2.628827   11.055220   -8.832916
     45          8           0       -3.762023   10.923840   -8.365328
     46          6           0       -2.698235    8.806675   -9.937154
     47          6           0       -3.317093    9.386197  -11.211527
     48          7           0       -3.963069    8.489673  -12.001707
     49          8           0       -3.236756   10.578230  -11.489432
     50          1           0       -1.701246    8.755145   -7.468927
     51          1           0       -1.019036   10.164728   -9.972356
     52          1           0       -2.125200    7.898776  -10.157263
     53          1           0       -3.512202    8.540718   -9.250762
     54          1           0       -4.408977    8.823557  -12.844917
     55          1           0       -4.025585    7.507790  -11.778417
     56          7           0       -2.019890   12.260212   -8.940904
     57          6           0       -2.750376   13.444665   -8.520586
     58          6           0       -3.140915   13.352085   -7.024703
     59          8           0       -4.151601   13.905746   -6.564616
     60          6           0       -3.968340   13.713462   -9.449551
     61          6           0       -4.023925   15.097784  -10.128577
     62          6           0       -3.891816   16.328382   -9.215138
     63          7           0       -4.702882   16.158154   -7.998203
     64          6           0       -4.754821   17.031171   -6.991363
     65          7           0       -4.628080   18.352343   -7.208471
     66          7           0       -4.930279   16.565964   -5.745806
     67          8           0       -2.272404   12.703430   -6.316156
     68          1           0       -1.009582   12.276603   -9.025804
     69          1           0       -2.035296   14.274868   -8.579797
     70          1           0       -4.890894   13.521773   -8.894951
     71          1           0       -3.946025   12.962404  -10.243338
     72          1           0       -3.227013   15.176526  -10.877636
     73          1           0       -4.972085   15.161008  -10.674241
     74          1           0       -2.845104   16.489847   -8.922902
     75          1           0       -4.217288   17.217385   -9.766034
     76          1           0       -4.759159   15.186271   -7.664735
     77          1           0       -4.586052   19.009317   -6.443515
     78          1           0       -4.710002   18.729679   -8.140784
     79          1           0       -5.227975   17.162411   -4.988184
     80          1           0       -4.786224   15.571902   -5.573949
 ---------------------------------------------------------------------
 Rotational constants (GHZ):           0.1045861           0.0646699           0.0553425
 Standard basis: 6-31G(d) (6D, 7F)
   667 basis functions,  1256 primitive gaussians,   667 cartesian basis functions
   147 alpha electrons      147 beta electrons
       nuclear repulsion energy      4932.8691357759 Hartrees.
 NAtoms=   80 NActive=   80 NUniq=   80 SFac= 1.00D+00 NAtFMM=   60 NAOKFM=T Big=T
 Integral buffers will be    131072 words long.
 Raffenetti 2 integral format.
 Two-electron integral symmetry is turned off.
 Nuclear repulsion after empirical dispersion term =     4932.7578355428 Hartrees.
 One-electron integrals computed using PRISM.
 NBasis=   667 RedAO= T EigKep=  4.49D-04  NBF=   667
 NBsUse=   667 1.00D-06 EigRej= -1.00D+00 NBFU=   667
 Initial guess from the checkpoint file:  "conf-962.chk"
 B after Tr=     0.000000    0.000000    0.000000
         Rot=    1.000000    0.000000    0.000000    0.000000 Ang=   0.00 deg.
 Requested convergence on RMS density matrix=1.00D-08 within 128 cycles.
 Requested convergence on MAX density matrix=1.00D-06.
 Requested convergence on             energy=1.00D-06.
 No special actions if energy rises.
 SCF Done:  E(RB3LYP) =  -1866.73987812     A.U. after    1 cycles
            NFock=  1  Conv=0.22D-08     -V/T= 2.0095

 **********************************************************************

            Population analysis using the SCF Density.

 **********************************************************************

 Alpha  occ. eigenvalues --  -19.25754 -19.23708 -19.20296 -19.20193 -19.20095
 Alpha  occ. eigenvalues --  -19.19110 -14.51485 -14.50270 -14.48905 -14.45006
 Alpha  occ. eigenvalues --  -14.44889 -14.44057 -14.43949 -14.43378 -10.46818
 Alpha  occ. eigenvalues --  -10.41431 -10.37533 -10.36993 -10.36951 -10.36731
 Alpha  occ. eigenvalues --  -10.34746 -10.33325 -10.32604 -10.31667 -10.31083
 Alpha  occ. eigenvalues --  -10.29352 -10.28184 -10.28172 -10.27755 -10.27285
 Alpha  occ. eigenvalues --  -10.26552 -10.26420 -10.26254 -10.26116 -10.26059
 Alpha  occ. eigenvalues --  -10.25751 -10.25576 -10.23293 -10.22737  -1.18557
 Alpha  occ. eigenvalues --   -1.15383  -1.12724  -1.12289  -1.11522  -1.10763
 Alpha  occ. eigenvalues --   -1.09733  -1.04477  -1.03666  -1.02001  -1.00982
 Alpha  occ. eigenvalues --   -1.00411  -1.00098  -0.98099  -0.92797  -0.90075
 Alpha  occ. eigenvalues --   -0.88668  -0.86698  -0.86209  -0.84470  -0.82479
 Alpha  occ. eigenvalues --   -0.81551  -0.79695  -0.79383  -0.77542  -0.75808
 Alpha  occ. eigenvalues --   -0.74083  -0.73692  -0.72472  -0.72156  -0.71696
 Alpha  occ. eigenvalues --   -0.69974  -0.68600  -0.67997  -0.67532  -0.67047
 Alpha  occ. eigenvalues --   -0.66211  -0.65333  -0.64935  -0.64484  -0.63930
 Alpha  occ. eigenvalues --   -0.63497  -0.62523  -0.62096  -0.61128  -0.60403
 Alpha  occ. eigenvalues --   -0.59671  -0.58951  -0.58782  -0.58474  -0.58242
 Alpha  occ. eigenvalues --   -0.57340  -0.56778  -0.55879  -0.54868  -0.54314
 Alpha  occ. eigenvalues --   -0.54219  -0.53437  -0.52737  -0.52580  -0.52412
 Alpha  occ. eigenvalues --   -0.52090  -0.51975  -0.51518  -0.51065  -0.49991
 Alpha  occ. eigenvalues --   -0.49889  -0.49400  -0.48926  -0.48826  -0.48183
 Alpha  occ. eigenvalues --   -0.47925  -0.47796  -0.47525  -0.47192  -0.46833
 Alpha  occ. eigenvalues --   -0.46488  -0.46102  -0.45601  -0.45028  -0.44598
 Alpha  occ. eigenvalues --   -0.44411  -0.43958  -0.43714  -0.43657  -0.43609
 Alpha  occ. eigenvalues --   -0.42884  -0.42755  -0.42203  -0.41362  -0.41044
 Alpha  occ. eigenvalues --   -0.40137  -0.39478  -0.39270  -0.38902  -0.38745
 Alpha  occ. eigenvalues --   -0.38304  -0.37103  -0.36406  -0.35728  -0.34404
 Alpha  occ. eigenvalues --   -0.34146  -0.33561  -0.33099  -0.32363  -0.32220
 Alpha  occ. eigenvalues --   -0.32070  -0.31664
 Alpha virt. eigenvalues --   -0.11528  -0.08730  -0.08302  -0.07358  -0.07215
 Alpha virt. eigenvalues --   -0.06960  -0.06210  -0.05627  -0.04806  -0.03765
 Alpha virt. eigenvalues --   -0.03211  -0.01488  -0.00652   0.00126   0.00229
 Alpha virt. eigenvalues --    0.01372   0.01651   0.02117   0.02631   0.03128
 Alpha virt. eigenvalues --    0.03709   0.04185   0.04420   0.04917   0.05232
 Alpha virt. eigenvalues --    0.05809   0.05849   0.06145   0.06888   0.07119
 Alpha virt. eigenvalues --    0.07340   0.07513   0.07902   0.08114   0.08663
 Alpha virt. eigenvalues --    0.08781   0.08968   0.09375   0.09579   0.09742
 Alpha virt. eigenvalues --    0.09895   0.10389   0.10691   0.10922   0.11211
 Alpha virt. eigenvalues --    0.11500   0.11808   0.11934   0.12631   0.12879
 Alpha virt. eigenvalues --    0.13013   0.13384   0.13729   0.13862   0.14312
 Alpha virt. eigenvalues --    0.14774   0.15644   0.16010   0.16700   0.17279
 Alpha virt. eigenvalues --    0.17329   0.17768   0.18168   0.19247   0.19324
 Alpha virt. eigenvalues --    0.19884   0.20639   0.20990   0.21171   0.21563
 Alpha virt. eigenvalues --    0.22194   0.23619   0.24550   0.24979   0.25126
 Alpha virt. eigenvalues --    0.25543   0.26319   0.27274   0.27528   0.28519
 Alpha virt. eigenvalues --    0.29217   0.30066   0.30699   0.32132   0.32516
 Alpha virt. eigenvalues --    0.34108   0.34399   0.37629   0.38118   0.40198
 Alpha virt. eigenvalues --    0.40358   0.40802   0.41869   0.42849   0.43480
 Alpha virt. eigenvalues --    0.43551   0.43805   0.44480   0.44902   0.45513
 Alpha virt. eigenvalues --    0.45794   0.46027   0.46627   0.46729   0.46938
 Alpha virt. eigenvalues --    0.47370   0.47596   0.48061   0.48158   0.48806
 Alpha virt. eigenvalues --    0.49435   0.50091   0.50470   0.51086   0.51288
 Alpha virt. eigenvalues --    0.51746   0.52114   0.52225   0.52428   0.52875
 Alpha virt. eigenvalues --    0.53299   0.53416   0.53889   0.54431   0.54500
 Alpha virt. eigenvalues --    0.54766   0.54963   0.55393   0.55653   0.56262
 Alpha virt. eigenvalues --    0.56563   0.56748   0.57096   0.57283   0.57999
 Alpha virt. eigenvalues --    0.58659   0.58963   0.59233   0.59714   0.59880
 Alpha virt. eigenvalues --    0.60411   0.60534   0.61693   0.61961   0.62139
 Alpha virt. eigenvalues --    0.62889   0.63279   0.64422   0.64686   0.65103
 Alpha virt. eigenvalues --    0.65271   0.65975   0.66661   0.66908   0.67463
 Alpha virt. eigenvalues --    0.67918   0.68967   0.70185   0.70277   0.71070
 Alpha virt. eigenvalues --    0.71425   0.72093   0.72176   0.72925   0.73466
 Alpha virt. eigenvalues --    0.73798   0.74241   0.74456   0.74914   0.75507
 Alpha virt. eigenvalues --    0.76009   0.76513   0.76824   0.77062   0.77410
 Alpha virt. eigenvalues --    0.77576   0.77692   0.77939   0.78498   0.79163
 Alpha virt. eigenvalues --    0.79476   0.79516   0.79863   0.79977   0.80624
 Alpha virt. eigenvalues --    0.80830   0.81177   0.81451   0.81859   0.82338
 Alpha virt. eigenvalues --    0.82813   0.83449   0.83730   0.83885   0.84426
 Alpha virt. eigenvalues --    0.84641   0.84864   0.85230   0.85470   0.85534
 Alpha virt. eigenvalues --    0.85901   0.86556   0.86643   0.86994   0.87669
 Alpha virt. eigenvalues --    0.87750   0.88462   0.88668   0.89289   0.89676
 Alpha virt. eigenvalues --    0.90488   0.90796   0.90997   0.91932   0.92145
 Alpha virt. eigenvalues --    0.92796   0.93380   0.93991   0.94482   0.95266
 Alpha virt. eigenvalues --    0.95816   0.96563   0.97825   0.98118   0.98501
 Alpha virt. eigenvalues --    0.99093   1.00482   1.01747   1.01973   1.02315
 Alpha virt. eigenvalues --    1.02818   1.03921   1.05535   1.05709   1.05845
 Alpha virt. eigenvalues --    1.06841   1.08606   1.09156   1.09630   1.10130
 Alpha virt. eigenvalues --    1.11550   1.12222   1.12428   1.13549   1.13765
 Alpha virt. eigenvalues --    1.14320   1.15147   1.16138   1.16794   1.16999
 Alpha virt. eigenvalues --    1.18319   1.18987   1.19572   1.20508   1.22019
 Alpha virt. eigenvalues --    1.22107   1.23412   1.24286   1.25254   1.25593
 Alpha virt. eigenvalues --    1.26537   1.26915   1.28008   1.28808   1.30090
 Alpha virt. eigenvalues --    1.30743   1.32386   1.32557   1.34087   1.34386
 Alpha virt. eigenvalues --    1.35043   1.35455   1.35967   1.36706   1.37066
 Alpha virt. eigenvalues --    1.38091   1.38897   1.39688   1.40504   1.40855
 Alpha virt. eigenvalues --    1.41460   1.41868   1.42467   1.43331   1.43963
 Alpha virt. eigenvalues --    1.44093   1.44957   1.45336   1.46722   1.48124
 Alpha virt. eigenvalues --    1.49954   1.50718   1.51934   1.52169   1.53953
 Alpha virt. eigenvalues --    1.54952   1.55291   1.55703   1.56320   1.56942
 Alpha virt. eigenvalues --    1.57492   1.58341   1.58599   1.60385   1.60630
 Alpha virt. eigenvalues --    1.61022   1.62460   1.62770   1.64131   1.65240
 Alpha virt. eigenvalues --    1.66029   1.66659   1.68117   1.68787   1.69721
 Alpha virt. eigenvalues --    1.69926   1.70523   1.70758   1.71491   1.72472
 Alpha virt. eigenvalues --    1.72709   1.73261   1.73479   1.74127   1.74634
 Alpha virt. eigenvalues --    1.74764   1.75219   1.75901   1.77214   1.77668
 Alpha virt. eigenvalues --    1.78109   1.78377   1.79018   1.79870   1.80726
 Alpha virt. eigenvalues --    1.80991   1.81510   1.82420   1.82716   1.83138
 Alpha virt. eigenvalues --    1.83771   1.84355   1.84704   1.85661   1.85738
 Alpha virt. eigenvalues --    1.86462   1.86738   1.87072   1.87725   1.89256
 Alpha virt. eigenvalues --    1.89365   1.90365   1.90384   1.91436   1.92041
 Alpha virt. eigenvalues --    1.92136   1.92934   1.93740   1.94047   1.94272
 Alpha virt. eigenvalues --    1.94538   1.95177   1.95705   1.96369   1.97548
 Alpha virt. eigenvalues --    1.98224   1.98799   1.99719   1.99968   2.00337
 Alpha virt. eigenvalues --    2.01352   2.02110   2.02351   2.03297   2.04112
 Alpha virt. eigenvalues --    2.04775   2.05696   2.05936   2.07084   2.07508
 Alpha virt. eigenvalues --    2.07648   2.08310   2.08484   2.09827   2.11684
 Alpha virt. eigenvalues --    2.12368   2.13342   2.13711   2.14179   2.14426
 Alpha virt. eigenvalues --    2.14934   2.15863   2.16704   2.17896   2.18169
 Alpha virt. eigenvalues --    2.19123   2.19322   2.20551   2.20877   2.22359
 Alpha virt. eigenvalues --    2.22762   2.23280   2.23886   2.24369   2.26236
 Alpha virt. eigenvalues --    2.26462   2.27268   2.29877   2.30542   2.31654
 Alpha virt. eigenvalues --    2.32282   2.32922   2.33367   2.34764   2.35563
 Alpha virt. eigenvalues --    2.37075   2.37173   2.37782   2.38351   2.38996
 Alpha virt. eigenvalues --    2.40726   2.41164   2.41779   2.42815   2.44708
 Alpha virt. eigenvalues --    2.44817   2.45753   2.46307   2.46867   2.47782
 Alpha virt. eigenvalues --    2.48348   2.49672   2.51126   2.51567   2.51959
 Alpha virt. eigenvalues --    2.52862   2.54015   2.54676   2.55220   2.56037
 Alpha virt. eigenvalues --    2.56133   2.58222   2.58362   2.58899   2.59655
 Alpha virt. eigenvalues --    2.61116   2.62464   2.63336   2.63930   2.65000
 Alpha virt. eigenvalues --    2.65479   2.66831   2.67602   2.68027   2.68427
 Alpha virt. eigenvalues --    2.69739   2.70041   2.71145   2.74894   2.77035
 Alpha virt. eigenvalues --    2.78500   2.79962   2.82539   2.85453   2.86252
 Alpha virt. eigenvalues --    2.87723   2.89835   2.91046   2.94113   2.95529
 Alpha virt. eigenvalues --    2.95987   2.96305   2.96723   2.98343   3.00025
 Alpha virt. eigenvalues --    3.02197   3.03178   3.07553   3.09031   3.11368
 Alpha virt. eigenvalues --    3.33845   3.66528   3.74025   3.74260   3.81929
 Alpha virt. eigenvalues --    3.90212   3.92735   3.92997   3.97187   3.98006
 Alpha virt. eigenvalues --    4.02400   4.02510   4.05028   4.05967   4.07834
 Alpha virt. eigenvalues --    4.08509   4.10443   4.13417   4.15084   4.18878
 Alpha virt. eigenvalues --    4.21339   4.22839   4.23610   4.25694   4.26658
 Alpha virt. eigenvalues --    4.30343   4.32582   4.34328   4.35444   4.38615
 Alpha virt. eigenvalues --    4.43577   4.44063   4.45089   4.49303   4.54829
 Alpha virt. eigenvalues --    4.57425   4.57903   4.61779   4.63413   4.65929
          Condensed to atoms (all electrons):
 Mulliken charges:
               1
     1  N   -0.788683
     2  C   -0.077458
     3  C    0.647819
     4  O   -0.508393
     5  C   -0.398371
     6  C    0.133635
     7  C   -0.188121
     8  C   -0.191295
     9  C   -0.130979
    10  C   -0.138935
    11  C   -0.129561
    12  H    0.346195
    13  H    0.174617
    14  H    0.142184
    15  H    0.191556
    16  H    0.128675
    17  H    0.180149
    18  H    0.145697
    19  H    0.134076
    20  H    0.142488
    21  H    0.354450
    22  H    0.478810
    23  N   -0.632638
    24  C   -0.062732
    25  C    0.641002
    26  O   -0.523085
    27  C   -0.276037
    28  C   -0.081375
    29  C   -0.462504
    30  C   -0.444836
    31  H    0.325417
    32  H    0.212813
    33  H    0.161068
    34  H    0.119434
    35  H    0.137823
    36  H    0.173004
    37  H    0.142653
    38  H    0.153646
    39  H    0.148846
    40  H    0.138726
    41  H    0.156204
    42  N   -0.605586
    43  C   -0.050141
    44  C    0.679523
    45  O   -0.559679
    46  C   -0.401202
    47  C    0.637770
    48  N   -0.755838
    49  O   -0.514188
    50  H    0.322086
    51  H    0.195917
    52  H    0.175848
    53  H    0.190236
    54  H    0.354723
    55  H    0.347291
    56  N   -0.594523
    57  C   -0.042378
    58  C    0.643784
    59  O   -0.571597
    60  C   -0.322284
    61  C   -0.300513
    62  C   -0.163112
    63  N   -0.620336
    64  C    0.798954
    65  N   -0.753523
    66  N   -0.777650
    67  O   -0.575850
    68  H    0.368087
    69  H    0.171187
    70  H    0.178493
    71  H    0.223459
    72  H    0.174515
    73  H    0.174091
    74  H    0.176120
    75  H    0.167746
    76  H    0.408447
    77  H    0.377443
    78  H    0.384097
    79  H    0.368264
    80  H    0.414340
 Sum of Mulliken charges =   1.00000
 Mulliken charges with hydrogens summed into heavy atoms:
               1
     1  N   -0.088038
     2  C    0.097158
     3  C    0.647819
     4  O   -0.508393
     5  C   -0.064632
     6  C    0.133635
     7  C   -0.059447
     8  C   -0.011146
     9  C    0.014717
    10  C   -0.004859
    11  C    0.012926
    23  N   -0.307221
    24  C    0.150080
    25  C    0.641002
    26  O   -0.523085
    27  C    0.004465
    28  C    0.056448
    29  C    0.006799
    30  C   -0.001060
    42  N   -0.283500
    43  C    0.145776
    44  C    0.679523
    45  O   -0.559679
    46  C   -0.035117
    47  C    0.637770
    48  N   -0.053824
    49  O   -0.514188
    56  N   -0.226437
    57  C    0.128809
    58  C    0.643784
    59  O   -0.571597
    60  C    0.079667
    61  C    0.048093
    62  C    0.180754
    63  N   -0.211889
    64  C    0.798954
    65  N    0.008017
    66  N    0.004954
    67  O   -0.097039
 Electronic spatial extent (au):  <R**2>=         219531.9752
 Charge=              1.0000 electrons
 Dipole moment (field-independent basis, Debye):
    X=            -19.7856    Y=             66.0178    Z=            -32.8665  Tot=             76.3546
 Quadrupole moment (field-independent basis, Debye-Ang):
   XX=           -140.8647   YY=            818.6197   ZZ=             45.0609
   XY=           -301.7045   XZ=            133.7414   YZ=           -443.9718
 Traceless Quadrupole moment (field-independent basis, Debye-Ang):
   XX=           -381.8033   YY=            577.6810   ZZ=           -195.8777
   XY=           -301.7045   XZ=            133.7414   YZ=           -443.9718
 Octapole moment (field-independent basis, Debye-Ang**2):
  XXX=           1372.7415  YYY=          10183.9990  ZZZ=           2298.8318  XYY=          -4390.0261
  XXY=          -1242.7076  XXZ=           1048.2474  XZZ=           -538.0400  YZZ=            897.4816
  YYZ=          -5463.7080  XYZ=           1987.7847
 Hexadecapole moment (field-independent basis, Debye-Ang**3):
 XXXX=         -16649.4309 YYYY=         131479.3401 ZZZZ=         -50631.5585 XXXY=          16446.6660
 XXXZ=          -9559.8594 YYYX=         -63145.0780 YYYZ=         -67631.0473 ZZZX=           -945.0473
 ZZZY=          25095.0506 XXYY=         -12012.3891 XXZZ=         -11057.9868 YYZZ=           9948.6609
 XXYZ=           9858.7015 YYXZ=          28905.0368 ZZXY=          -7836.8591
 N-N= 4.932757835543D+03 E-N=-1.418722856547D+04  KE= 1.849254858153D+03
 Unable to Open any file for archive entry.
 1\1\GINC-LAC-251\SP\RB3LYP\6-31G(d)\C25H41N8O6(1+)\KENGMITH\11-Jun-202
 2\0\\# B3LYP/6-31G* empiricaldispersion=gd3 guess=read geom=check nosy
 mm integral(ultrafinegrid)\\Candidate Structure: Conf:962 Charge calc 
 in gas phase\\1,1\N,0,-2.6683583408,11.9543909376,-3.869539555\C,0,-2.
 3554083953,10.5206827115,-4.0465079603\C,0,-0.9392172347,10.4783263757
 ,-4.6621569436\O,0,-0.2165770658,11.4643697551,-4.6267301055\C,0,-3.42
 27500524,9.8591109902,-4.9573454589\C,0,-4.8390313113,10.2167073511,-4
 .5587304323\C,0,-5.3729966586,9.7827715569,-3.3365167408\C,0,-5.618730
 9228,11.0293521788,-5.3918420849\C,0,-6.6619036642,10.1531516261,-2.95
 21343473\C,0,-6.9101430507,11.3973350233,-5.0076509841\C,0,-7.43405987
 81,10.963804094,-3.7887498867\H,0,-3.5616275198,12.0600541964,-3.39214
 16029\H,0,-2.3368054964,9.9990575461,-3.0775264956\H,0,-3.2930222296,8
 .7693882082,-4.903589062\H,0,-3.2515784354,10.1629613106,-5.9945779003
 \H,0,-4.7795288009,9.1439579685,-2.6848226206\H,0,-5.2171355975,11.358
 4365371,-6.3455272834\H,0,-7.0657481701,9.8040306307,-2.0058433495\H,0
 ,-7.5087528308,12.020177697,-5.6671522994\H,0,-8.440136668,11.24800248
 38,-3.4929792074\H,0,-1.9300519423,12.3948887228,-3.3223281009\H,0,-2.
 5439667078,12.558241103,-5.3023498625\N,0,-0.5691990482,9.3149811036,-
 5.2776791271\C,0,0.5143244022,9.3013946696,-6.264040809\C,0,0.01631774
 89,9.8712358203,-7.6099691875\O,0,0.6194558022,10.7487473181,-8.217076
 9676\C,0,1.0888912933,7.8847344148,-6.4143656772\C,0,2.157129886,7.732
 2535151,-7.5147656061\C,0,3.3257431712,8.7114597525,-7.3289886939\C,0,
 2.6510042807,6.2793321464,-7.5533887986\H,0,-1.1932835866,8.5207304207
 ,-5.2426481131\H,0,1.2758927412,9.9974813832,-5.9141082214\H,0,1.51301
 21356,7.5924914437,-5.4446943105\H,0,0.2643250543,7.1855977938,-6.6234
 297751\H,0,1.6799878843,7.9534843612,-8.4807485264\H,0,3.0044581263,9.
 7506184826,-7.4493207812\H,0,3.7770964502,8.5973179813,-6.3347185767\H
 ,0,4.1073272772,8.5190186208,-8.0720278723\H,0,3.1554451554,6.01365741
 01,-6.6156928142\H,0,1.82392775,5.5740930359,-7.7010253933\H,0,3.36735
 98929,6.132832575,-8.3688956067\N,0,-1.1236926103,9.2886735342,-8.1046
 211018\C,0,-1.7955984274,9.8449975117,-9.2760816873\C,0,-2.6288268703,
 11.0552203957,-8.8329163381\O,0,-3.7620225194,10.9238399401,-8.3653277
 462\C,0,-2.6982349509,8.8066751848,-9.9371535089\C,0,-3.3170929644,9.3
 86197373,-11.2115265577\N,0,-3.9630691142,8.4896731895,-12.0017074796\
 O,0,-3.2367561691,10.5782304997,-11.4894315027\H,0,-1.7012462393,8.755
 1453652,-7.4689268588\H,0,-1.0190364769,10.1647284154,-9.9723562098\H,
 0,-2.1251997017,7.8987757957,-10.1572631848\H,0,-3.5122020147,8.540718
 1795,-9.2507619895\H,0,-4.4089768543,8.823557373,-12.8449173295\H,0,-4
 .0255847963,7.5077903005,-11.7784171204\N,0,-2.0198895622,12.260211750
 7,-8.9409035287\C,0,-2.7503758969,13.4446653186,-8.5205860466\C,0,-3.1
 409154834,13.3520850321,-7.0247025514\O,0,-4.1516014487,13.9057456434,
 -6.5646161959\C,0,-3.9683398677,13.7134620184,-9.4495506426\C,0,-4.023
 9250734,15.0977844251,-10.1285765711\C,0,-3.8918158302,16.3283823542,-
 9.2151380181\N,0,-4.7028819805,16.1581535534,-7.9982025201\C,0,-4.7548
 209934,17.031171202,-6.9913626887\N,0,-4.6280801406,18.3523427696,-7.2
 084707291\N,0,-4.9302788367,16.5659644095,-5.7458061845\O,0,-2.2724044
 533,12.7034302592,-6.3161564827\H,0,-1.0095816562,12.2766034656,-9.025
 8039995\H,0,-2.0352955977,14.2748676021,-8.5797968963\H,0,-4.890894286
 9,13.5217726628,-8.89495147\H,0,-3.9460249683,12.9624039812,-10.243337
 6512\H,0,-3.2270133522,15.1765258879,-10.8776357792\H,0,-4.9720847298,
 15.1610076943,-10.6742409638\H,0,-2.8451036898,16.4898468619,-8.922902
 2574\H,0,-4.2172880573,17.2173851567,-9.7660342445\H,0,-4.7591593242,1
 5.1862712377,-7.6647347449\H,0,-4.5860520352,19.0093173281,-6.44351488
 06\H,0,-4.7100024099,18.7296793489,-8.140784127\H,0,-5.2279753866,17.1
 624106006,-4.9881838001\H,0,-4.7862235232,15.5719020451,-5.5739488289\
 \Version=ES64L-G16RevC.01\HF=-1866.7398781\RMSD=2.195e-09\Dipole=-2.83
 77719,4.3695085,0.5486027\Quadrupole=-283.8614284,429.4916926,-145.630
 2642,-224.3099364,99.4334843,-330.0821523\PG=C01 [X(C25H41N8O6)]\\@
 The archive entry for this job was punched.


 IBM COMPATIBILITY IS LIKE PREGNANCY. YOU ARE OR
 OR YOU ARE NOT. -- ADAM OSBORNE
 Job cpu time:       0 days  0 hours  2 minutes 18.8 seconds.
 Elapsed time:       0 days  0 hours  0 minutes 35.3 seconds.
 File lengths (MBytes):  RWF=    344 Int=      0 D2E=      0 Chk=     48 Scr=     16
 Normal termination of Gaussian 16 at Sat Jun 11 20:56:00 2022.
