 Entering Gaussian System, Link 0=/opt/software/Gaussian/g16-AVX-C.01/g16/g16
 Input=charge-conf-217.com
 Output=charge-conf-217.log
 Initial command:
 /opt/software/Gaussian/g16-AVX-C.01/g16/l1.exe "/mnt/gs18/scratch/users/kengmith/Gau-6612.inp" -scrdir="/mnt/gs18/scratch/users/kengmith/"
 Entering Link 1 = /opt/software/Gaussian/g16-AVX-C.01/g16/l1.exe PID=      6649.
  
 Copyright (c) 1988-2019, Gaussian, Inc.  All Rights Reserved.
  
 This is part of the Gaussian(R) 16 program.  It is based on
 the Gaussian(R) 09 system (copyright 2009, Gaussian, Inc.),
 the Gaussian(R) 03 system (copyright 2003, Gaussian, Inc.),
 the Gaussian(R) 98 system (copyright 1998, Gaussian, Inc.),
 the Gaussian(R) 94 system (copyright 1995, Gaussian, Inc.),
 the Gaussian 92(TM) system (copyright 1992, Gaussian, Inc.),
 the Gaussian 90(TM) system (copyright 1990, Gaussian, Inc.),
 the Gaussian 88(TM) system (copyright 1988, Gaussian, Inc.),
 the Gaussian 86(TM) system (copyright 1986, Carnegie Mellon
 University), and the Gaussian 82(TM) system (copyright 1983,
 Carnegie Mellon University). Gaussian is a federally registered
 trademark of Gaussian, Inc.
  
 This software contains proprietary and confidential information,
 including trade secrets, belonging to Gaussian, Inc.
  
 This software is provided under written license and may be
 used, copied, transmitted, or stored only in accord with that
 written license.
  
 The following legend is applicable only to US Government
 contracts under FAR:
  
                    RESTRICTED RIGHTS LEGEND
  
 Use, reproduction and disclosure by the US Government is
 subject to restrictions as set forth in subparagraphs (a)
 and (c) of the Commercial Computer Software - Restricted
 Rights clause in FAR 52.227-19.
  
 Gaussian, Inc.
 340 Quinnipiac St., Bldg. 40, Wallingford CT 06492
  
  
 ---------------------------------------------------------------
 Warning -- This program may not be used in any manner that
 competes with the business of Gaussian, Inc. or will provide
 assistance to any competitor of Gaussian, Inc.  The licensee
 of this program is prohibited from giving any competitor of
 Gaussian, Inc. access to this program.  By using this program,
 the user acknowledges that Gaussian, Inc. is engaged in the
 business of creating and licensing software in the field of
 computational chemistry and represents and warrants to the
 licensee that it is not a competitor of Gaussian, Inc. and that
 it will not use this program in any manner prohibited above.
 ---------------------------------------------------------------
  

 Cite this work as:
 Gaussian 16, Revision C.01,
 M. J. Frisch, G. W. Trucks, H. B. Schlegel, G. E. Scuseria, 
 M. A. Robb, J. R. Cheeseman, G. Scalmani, V. Barone, 
 G. A. Petersson, H. Nakatsuji, X. Li, M. Caricato, A. V. Marenich, 
 J. Bloino, B. G. Janesko, R. Gomperts, B. Mennucci, H. P. Hratchian, 
 J. V. Ortiz, A. F. Izmaylov, J. L. Sonnenberg, D. Williams-Young, 
 F. Ding, F. Lipparini, F. Egidi, J. Goings, B. Peng, A. Petrone, 
 T. Henderson, D. Ranasinghe, V. G. Zakrzewski, J. Gao, N. Rega, 
 G. Zheng, W. Liang, M. Hada, M. Ehara, K. Toyota, R. Fukuda, 
 J. Hasegawa, M. Ishida, T. Nakajima, Y. Honda, O. Kitao, H. Nakai, 
 T. Vreven, K. Throssell, J. A. Montgomery, Jr., J. E. Peralta, 
 F. Ogliaro, M. J. Bearpark, J. J. Heyd, E. N. Brothers, K. N. Kudin, 
 V. N. Staroverov, T. A. Keith, R. Kobayashi, J. Normand, 
 K. Raghavachari, A. P. Rendell, J. C. Burant, S. S. Iyengar, 
 J. Tomasi, M. Cossi, J. M. Millam, M. Klene, C. Adamo, R. Cammi, 
 J. W. Ochterski, R. L. Martin, K. Morokuma, O. Farkas, 
 J. B. Foresman, and D. J. Fox, Gaussian, Inc., Wallingford CT, 2019.
 
 ******************************************
 Gaussian 16:  ES64L-G16RevC.01  3-Jul-2019
                11-Jun-2022 
 ******************************************
 %mem=8gb
 %nproc=4
 Will use up to    4 processors via shared memory.
 %chk=conf-217.chk
 ----------------------------------------------------------------------
 # B3LYP/6-31G* empiricaldispersion=gd3 guess=read geom=check nosymm in
 tegral(ultrafinegrid)
 ----------------------------------------------------------------------
 1/29=2,38=1,172=1/1;
 2/12=2,15=1,40=1/2;
 3/5=1,6=6,7=1,11=2,14=-4,25=1,30=1,74=-5,75=-5,116=-2,124=31/1,2,3;
 4/5=1/1;
 5/5=2,38=6/2;
 6/7=2,8=2,9=2,10=2,28=1/1;
 99/5=1,9=1/99;
 ------------------------------------------------------
 Candidate Structure: Conf:217 Charge calc in gas phase
 ------------------------------------------------------
 Structure from the checkpoint file:  "conf-217.chk"
 Charge =  1 Multiplicity = 1
 Redundant internal coordinates found in file.  (old form).
 N,0,-1.0698101661,12.2094401033,-8.1948277647
 C,0,-0.1514180664,12.5132945451,-7.0534016189
 C,0,-0.0855498536,11.1765163857,-6.2766658012
 O,0,-0.1164584773,10.1267711047,-6.9109748826
 C,0,-0.6791127749,13.7416515887,-6.2870313424
 C,0,-0.8715224402,14.9442492326,-7.1889553657
 C,0,0.1806973937,15.8408537716,-7.4167648917
 C,0,-2.0920374773,15.1387935747,-7.8526996047
 C,0,0.0178035569,16.917034861,-8.2892852115
 C,0,-2.2499524036,16.2110159566,-8.7328692559
 C,0,-1.1988379903,17.1032302765,-8.9503449296
 H,0,-1.1655897301,12.9601975462,-8.8857840015
 H,0,0.8381567829,12.7227783805,-7.4730795437
 H,0,0.0431073577,13.9825464854,-5.4979040248
 H,0,-1.6270519013,13.4706977399,-5.8089858659
 H,0,1.1290447372,15.7022978732,-6.9014347395
 H,0,-2.9135495204,14.4428807955,-7.702168016
 H,0,0.8379905429,17.6107609592,-8.450158599
 H,0,-3.1983871947,16.3465969663,-9.2445106964
 H,0,-1.3256324178,17.9416192805,-9.6292230302
 H,0,-0.8320410652,11.3283250492,-8.6681688524
 H,0,-2.0292253183,12.0531130222,-7.8098076597
 N,0,-0.0528112689,11.2207418353,-4.923894506
 C,0,-0.1693663536,9.9856403549,-4.1379822621
 C,0,-1.4935942673,9.2434862174,-4.4286963592
 O,0,-1.5645930826,8.0296911648,-4.3334750671
 C,0,-0.0312879506,10.2799682075,-2.637822662
 C,0,1.3064313776,10.9111364995,-2.2008860586
 C,0,1.2821693355,11.1651043665,-0.6865279246
 C,0,2.5121193541,10.0467424093,-2.5939419113
 H,0,-0.042788551,12.1068724027,-4.4393239276
 H,0,0.6064801507,9.2906800626,-4.4660468607
 H,0,-0.8651302449,10.9257608362,-2.3253065306
 H,0,-0.1673491651,9.3244897972,-2.1170978925
 H,0,1.4144797329,11.8886215387,-2.6985830599
 H,0,1.1965350814,10.2193994996,-0.1371361362
 H,0,2.2022445011,11.6597709464,-0.3572809515
 H,0,0.4354723418,11.7988085315,-0.3968789541
 H,0,2.42488427,9.0410353605,-2.1642217701
 H,0,2.6108360811,9.9410831091,-3.6799319319
 H,0,3.4420248507,10.4893578672,-2.2210663448
 N,0,-2.5623001103,10.0415063884,-4.7488320203
 C,0,-3.6513941053,9.5103950102,-5.5482691205
 C,0,-3.8549956485,10.4984745871,-6.7250606773
 O,0,-3.2597378702,11.5995217538,-6.7140900271
 C,0,-4.9208256808,9.2593055886,-4.6984793239
 C,0,-5.8352794133,8.1835673791,-5.2808303528
 N,0,-6.607569962,7.5256835107,-4.3860558298
 O,0,-5.8943290791,7.9347437569,-6.4887149075
 H,0,-2.3682568759,11.0133920242,-4.9594161488
 H,0,-3.3268302,8.5483138643,-5.9598547564
 H,0,-4.5828903842,8.9613257149,-3.7012127937
 H,0,-5.4995573545,10.1840809412,-4.5751530231
 H,0,-7.2091944792,6.7864646988,-4.7249325293
 H,0,-6.4938568886,7.6307560386,-3.3888640287
 N,0,-4.6466764644,10.0828006426,-7.709460477
 C,0,-4.9055972283,10.7922939824,-8.9698244001
 C,0,-3.6020195394,11.4740902456,-9.4876446403
 O,0,-3.5459083031,12.736416817,-9.515171771
 C,0,-6.1280445523,11.7252568906,-8.8874676006
 C,0,-6.8854973846,11.9215704073,-10.2202429724
 C,0,-6.2899078872,12.8965031773,-11.2518876283
 N,0,-4.9849140528,12.4935351535,-11.8007329172
 C,0,-4.765105271,11.4758268021,-12.635718121
 N,0,-5.7137835509,11.1109281999,-13.5248701863
 N,0,-3.5952550668,10.8255302586,-12.5953029649
 O,0,-2.7088485572,10.6885743578,-9.909922045
 H,0,-5.122162381,9.1877999466,-7.5426280964
 H,0,-5.1144027987,9.9909547484,-9.6881254379
 H,0,-5.8086578191,12.6878424758,-8.4751892562
 H,0,-6.8366652635,11.2808711199,-8.1788584309
 H,0,-7.041017067,10.9458717481,-10.7024702515
 H,0,-7.8868829974,12.3067957129,-9.9898204821
 H,0,-7.0033072269,13.0520078948,-12.0686839655
 H,0,-6.1204417088,13.874569625,-10.7950835823
 H,0,-4.2064303832,12.7524449125,-11.1800975539
 H,0,-5.5900333867,10.2985078868,-14.1103573884
 H,0,-6.4465623695,11.7551556063,-13.7825983599
 H,0,-3.3521733576,10.1690157614,-13.3235304084
 H,0,-3.065048938,10.7814207346,-11.7063998945
 Recover connectivity data from disk.
                           ----------------------------
                           !    Current Parameters    !
                           ! (Angstroms and Degrees)  !
 --------------------------                            --------------------------
 ! Name  Definition              Value                                          !
 --------------------------------------------------------------------------------
 ! R1    R(1,2)                  1.4962                                         !
 ! R2    R(1,12)                 1.0248                                         !
 ! R3    R(1,21)                 1.0281                                         !
 ! R4    R(1,22)                 1.0455                                         !
 ! R5    R(2,3)                  1.5475                                         !
 ! R6    R(2,5)                  1.541                                          !
 ! R7    R(2,13)                 1.0951                                         !
 ! R8    R(3,4)                  1.2269                                         !
 ! R9    R(3,23)                 1.3539                                         !
 ! R10   R(5,6)                  1.5155                                         !
 ! R11   R(5,14)                 1.0965                                         !
 ! R12   R(5,15)                 1.0957                                         !
 ! R13   R(6,7)                  1.4011                                         !
 ! R14   R(6,8)                  1.4029                                         !
 ! R15   R(7,9)                  1.395                                          !
 ! R16   R(7,16)                 1.0882                                         !
 ! R17   R(8,10)                 1.3962                                         !
 ! R18   R(8,17)                 1.0871                                         !
 ! R19   R(9,11)                 1.3971                                         !
 ! R20   R(9,18)                 1.0862                                         !
 ! R21   R(10,11)                1.3958                                         !
 ! R22   R(10,19)                1.0861                                         !
 ! R23   R(11,20)                1.0862                                         !
 ! R24   R(23,24)                1.4686                                         !
 ! R25   R(23,31)                1.01                                           !
 ! R26   R(24,25)                1.5456                                         !
 ! R27   R(24,27)                1.535                                          !
 ! R28   R(24,32)                1.092                                          !
 ! R29   R(25,26)                1.2196                                         !
 ! R30   R(25,42)                1.3717                                         !
 ! R31   R(27,28)                1.5423                                         !
 ! R32   R(27,33)                1.1                                            !
 ! R33   R(27,34)                1.0966                                         !
 ! R34   R(28,29)                1.5357                                         !
 ! R35   R(28,30)                1.5347                                         !
 ! R36   R(28,35)                1.1022                                         !
 ! R37   R(29,36)                1.0971                                         !
 ! R38   R(29,37)                1.0953                                         !
 ! R39   R(29,38)                1.0965                                         !
 ! R40   R(30,39)                1.0971                                         !
 ! R41   R(30,40)                1.0956                                         !
 ! R42   R(30,41)                1.0953                                         !
 ! R43   R(42,43)                1.4517                                         !
 ! R44   R(42,50)                1.0132                                         !
 ! R45   R(43,44)                1.55                                           !
 ! R46   R(43,46)                1.5481                                         !
 ! R47   R(43,51)                1.0956                                         !
 ! R48   R(44,45)                1.2517                                         !
 ! R49   R(44,56)                1.3299                                         !
 ! R50   R(46,47)                1.5273                                         !
 ! R51   R(46,52)                1.0943                                         !
 ! R52   R(46,53)                1.0979                                         !
 ! R53   R(47,48)                1.3527                                         !
 ! R54   R(47,49)                1.2347                                         !
 ! R55   R(48,54)                1.0116                                         !
 ! R56   R(48,55)                1.0091                                         !
 ! R57   R(56,57)                1.4693                                         !
 ! R58   R(56,68)                1.0271                                         !
 ! R59   R(57,58)                1.5596                                         !
 ! R60   R(57,60)                1.54                                           !
 ! R61   R(57,69)                1.0962                                         !
 ! R62   R(58,59)                1.2639                                         !
 ! R63   R(58,67)                1.2622                                         !
 ! R64   R(60,61)                1.5455                                         !
 ! R65   R(60,70)                1.0948                                         !
 ! R66   R(60,71)                1.0962                                         !
 ! R67   R(61,62)                1.5393                                         !
 ! R68   R(61,72)                1.0994                                         !
 ! R69   R(61,73)                1.0974                                         !
 ! R70   R(62,63)                1.4719                                         !
 ! R71   R(62,74)                1.0956                                         !
 ! R72   R(62,75)                1.0927                                         !
 ! R73   R(63,64)                1.3346                                         !
 ! R74   R(63,76)                1.0287                                         !
 ! R75   R(64,65)                1.3505                                         !
 ! R76   R(64,66)                1.3391                                         !
 ! R77   R(65,77)                1.009                                          !
 ! R78   R(65,78)                1.0092                                         !
 ! R79   R(66,79)                1.0102                                         !
 ! R80   R(66,80)                1.036                                          !
 ! A1    A(2,1,12)             115.021                                          !
 ! A2    A(2,1,21)             112.5403                                         !
 ! A3    A(2,1,22)             108.2212                                         !
 ! A4    A(12,1,21)            109.8191                                         !
 ! A5    A(12,1,22)            105.7867                                         !
 ! A6    A(21,1,22)            104.6922                                         !
 ! A7    A(1,2,3)              103.51                                           !
 ! A8    A(1,2,5)              109.3348                                         !
 ! A9    A(1,2,13)             107.5267                                         !
 ! A10   A(3,2,5)              116.9714                                         !
 ! A11   A(3,2,13)             108.611                                          !
 ! A12   A(5,2,13)             110.3372                                         !
 ! A13   A(2,3,4)              118.5904                                         !
 ! A14   A(2,3,23)             118.3163                                         !
 ! A15   A(4,3,23)             123.0339                                         !
 ! A16   A(2,5,6)              112.3365                                         !
 ! A17   A(2,5,14)             107.9075                                         !
 ! A18   A(2,5,15)             108.4286                                         !
 ! A19   A(6,5,14)             109.73                                           !
 ! A20   A(6,5,15)             110.2458                                         !
 ! A21   A(14,5,15)            108.0696                                         !
 ! A22   A(5,6,7)              120.6131                                         !
 ! A23   A(5,6,8)              120.1376                                         !
 ! A24   A(7,6,8)              119.1907                                         !
 ! A25   A(6,7,9)              120.5107                                         !
 ! A26   A(6,7,16)             119.7376                                         !
 ! A27   A(9,7,16)             119.7489                                         !
 ! A28   A(6,8,10)             120.21                                           !
 ! A29   A(6,8,17)             120.2092                                         !
 ! A30   A(10,8,17)            119.5665                                         !
 ! A31   A(7,9,11)             120.03                                           !
 ! A32   A(7,9,18)             119.8131                                         !
 ! A33   A(11,9,18)            120.1566                                         !
 ! A34   A(8,10,11)            120.2621                                         !
 ! A35   A(8,10,19)            119.4458                                         !
 ! A36   A(11,10,19)           120.2919                                         !
 ! A37   A(9,11,10)            119.794                                          !
 ! A38   A(9,11,20)            120.0164                                         !
 ! A39   A(10,11,20)           120.1894                                         !
 ! A40   A(3,23,24)            120.3525                                         !
 ! A41   A(3,23,31)            120.5484                                         !
 ! A42   A(24,23,31)           118.8097                                         !
 ! A43   A(23,24,25)           111.7881                                         !
 ! A44   A(23,24,27)           110.7695                                         !
 ! A45   A(23,24,32)           108.5458                                         !
 ! A46   A(25,24,27)           110.6688                                         !
 ! A47   A(25,24,32)           104.2776                                         !
 ! A48   A(27,24,32)           110.5924                                         !
 ! A49   A(24,25,26)           120.8692                                         !
 ! A50   A(24,25,42)           115.5995                                         !
 ! A51   A(26,25,42)           123.4968                                         !
 ! A52   A(24,27,28)           115.6809                                         !
 ! A53   A(24,27,33)           108.7864                                         !
 ! A54   A(24,27,34)           106.6091                                         !
 ! A55   A(28,27,33)           109.6781                                         !
 ! A56   A(28,27,34)           109.2474                                         !
 ! A57   A(33,27,34)           106.4131                                         !
 ! A58   A(27,28,29)           109.4713                                         !
 ! A59   A(27,28,30)           112.2311                                         !
 ! A60   A(27,28,35)           108.6646                                         !
 ! A61   A(29,28,30)           110.984                                          !
 ! A62   A(29,28,35)           107.4671                                         !
 ! A63   A(30,28,35)           107.8687                                         !
 ! A64   A(28,29,36)           110.6404                                         !
 ! A65   A(28,29,37)           110.968                                          !
 ! A66   A(28,29,38)           111.608                                          !
 ! A67   A(36,29,37)           107.7197                                         !
 ! A68   A(36,29,38)           107.7962                                         !
 ! A69   A(37,29,38)           107.9526                                         !
 ! A70   A(28,30,39)           110.7023                                         !
 ! A71   A(28,30,40)           112.2702                                         !
 ! A72   A(28,30,41)           110.6214                                         !
 ! A73   A(39,30,40)           107.8789                                         !
 ! A74   A(39,30,41)           107.7338                                         !
 ! A75   A(40,30,41)           107.4534                                         !
 ! A76   A(25,42,43)           120.014                                          !
 ! A77   A(25,42,50)           117.2171                                         !
 ! A78   A(43,42,50)           112.3444                                         !
 ! A79   A(42,43,44)           106.4646                                         !
 ! A80   A(42,43,46)           111.8535                                         !
 ! A81   A(42,43,51)           107.8128                                         !
 ! A82   A(44,43,46)           114.3573                                         !
 ! A83   A(44,43,51)           108.2686                                         !
 ! A84   A(46,43,51)           107.8607                                         !
 ! A85   A(43,44,45)           119.4467                                         !
 ! A86   A(43,44,56)           116.1629                                         !
 ! A87   A(45,44,56)           124.3699                                         !
 ! A88   A(43,46,47)           113.3222                                         !
 ! A89   A(43,46,52)           106.9288                                         !
 ! A90   A(43,46,53)           110.9336                                         !
 ! A91   A(47,46,52)           109.9128                                         !
 ! A92   A(47,46,53)           108.6934                                         !
 ! A93   A(52,46,53)           106.8447                                         !
 ! A94   A(46,47,48)           115.6055                                         !
 ! A95   A(46,47,49)           122.9302                                         !
 ! A96   A(48,47,49)           121.4529                                         !
 ! A97   A(47,48,54)           118.253                                          !
 ! A98   A(47,48,55)           122.5924                                         !
 ! A99   A(54,48,55)           118.304                                          !
 ! A100  A(44,56,57)           126.0802                                         !
 ! A101  A(44,56,68)           115.3228                                         !
 ! A102  A(57,56,68)           118.5884                                         !
 ! A103  A(56,57,58)           110.4021                                         !
 ! A104  A(56,57,60)           112.7394                                         !
 ! A105  A(56,57,69)           104.043                                          !
 ! A106  A(58,57,60)           114.6081                                         !
 ! A107  A(58,57,69)           105.1424                                         !
 ! A108  A(60,57,69)           109.0685                                         !
 ! A109  A(57,58,59)           118.7488                                         !
 ! A110  A(57,58,67)           115.4989                                         !
 ! A111  A(59,58,67)           125.6535                                         !
 ! A112  A(57,60,61)           114.827                                          !
 ! A113  A(57,60,70)           108.7372                                         !
 ! A114  A(57,60,71)           107.584                                          !
 ! A115  A(61,60,70)           110.8576                                         !
 ! A116  A(61,60,71)           106.9845                                         !
 ! A117  A(70,60,71)           107.5524                                         !
 ! A118  A(60,61,62)           117.9545                                         !
 ! A119  A(60,61,72)           109.5633                                         !
 ! A120  A(60,61,73)           108.1041                                         !
 ! A121  A(62,61,72)           108.8354                                         !
 ! A122  A(62,61,73)           105.7512                                         !
 ! A123  A(72,61,73)           105.9353                                         !
 ! A124  A(61,62,63)           114.8054                                         !
 ! A125  A(61,62,74)           109.7313                                         !
 ! A126  A(61,62,75)           110.2879                                         !
 ! A127  A(63,62,74)           109.7658                                         !
 ! A128  A(63,62,75)           105.2733                                         !
 ! A129  A(74,62,75)           106.5956                                         !
 ! A130  A(62,63,64)           126.0188                                         !
 ! A131  A(62,63,76)           112.1517                                         !
 ! A132  A(64,63,76)           116.4061                                         !
 ! A133  A(63,64,65)           120.1498                                         !
 ! A134  A(63,64,66)           119.6908                                         !
 ! A135  A(65,64,66)           120.157                                          !
 ! A136  A(64,65,77)           120.8933                                         !
 ! A137  A(64,65,78)           120.3811                                         !
 ! A138  A(77,65,78)           117.0556                                         !
 ! A139  A(64,66,79)           120.2713                                         !
 ! A140  A(64,66,80)           119.5844                                         !
 ! A141  A(79,66,80)           117.8877                                         !
 ! D1    D(12,1,2,3)          -174.1178                                         !
 ! D2    D(12,1,2,5)            60.5276                                         !
 ! D3    D(12,1,2,13)          -59.2781                                         !
 ! D4    D(21,1,2,3)           -47.3315                                         !
 ! D5    D(21,1,2,5)          -172.6861                                         !
 ! D6    D(21,1,2,13)           67.5082                                         !
 ! D7    D(22,1,2,3)            67.8652                                         !
 ! D8    D(22,1,2,5)           -57.4895                                         !
 ! D9    D(22,1,2,13)         -177.2951                                         !
 ! D10   D(1,2,3,4)             35.4574                                         !
 ! D11   D(1,2,3,23)          -141.8255                                         !
 ! D12   D(5,2,3,4)            155.7446                                         !
 ! D13   D(5,2,3,23)           -21.5383                                         !
 ! D14   D(13,2,3,4)           -78.6043                                         !
 ! D15   D(13,2,3,23)          104.1128                                         !
 ! D16   D(1,2,5,6)            -55.3195                                         !
 ! D17   D(1,2,5,14)          -176.4054                                         !
 ! D18   D(1,2,5,15)            66.7704                                         !
 ! D19   D(3,2,5,6)           -172.4715                                         !
 ! D20   D(3,2,5,14)            66.4425                                         !
 ! D21   D(3,2,5,15)           -50.3817                                         !
 ! D22   D(13,2,5,6)            62.7421                                         !
 ! D23   D(13,2,5,14)          -58.3438                                         !
 ! D24   D(13,2,5,15)         -175.168                                          !
 ! D25   D(2,3,23,24)          171.881                                          !
 ! D26   D(2,3,23,31)           -1.8673                                         !
 ! D27   D(4,3,23,24)           -5.2731                                         !
 ! D28   D(4,3,23,31)         -179.0213                                         !
 ! D29   D(2,5,6,7)            -88.4553                                         !
 ! D30   D(2,5,6,8)             88.736                                          !
 ! D31   D(14,5,6,7)            31.5786                                         !
 ! D32   D(14,5,6,8)          -151.23                                           !
 ! D33   D(15,5,6,7)           150.4926                                         !
 ! D34   D(15,5,6,8)           -32.316                                          !
 ! D35   D(5,6,7,9)            177.4159                                         !
 ! D36   D(5,6,7,16)            -3.1988                                         !
 ! D37   D(8,6,7,9)              0.1982                                         !
 ! D38   D(8,6,7,16)           179.5835                                         !
 ! D39   D(5,6,8,10)          -176.9708                                         !
 ! D40   D(5,6,8,17)             1.6494                                         !
 ! D41   D(7,6,8,10)             0.2604                                         !
 ! D42   D(7,6,8,17)           178.8806                                         !
 ! D43   D(6,7,9,11)            -0.387                                          !
 ! D44   D(6,7,9,18)           179.4072                                         !
 ! D45   D(16,7,9,11)         -179.7722                                         !
 ! D46   D(16,7,9,18)            0.022                                          !
 ! D47   D(6,8,10,11)           -0.5323                                         !
 ! D48   D(6,8,10,19)          179.6482                                         !
 ! D49   D(17,8,10,11)        -179.1613                                         !
 ! D50   D(17,8,10,19)           1.0192                                         !
 ! D51   D(7,9,11,10)            0.1156                                         !
 ! D52   D(7,9,11,20)          179.9628                                         !
 ! D53   D(18,9,11,10)        -179.6779                                         !
 ! D54   D(18,9,11,20)           0.1693                                         !
 ! D55   D(8,10,11,9)            0.3429                                         !
 ! D56   D(8,10,11,20)        -179.5041                                         !
 ! D57   D(19,10,11,9)        -179.8392                                         !
 ! D58   D(19,10,11,20)          0.3138                                         !
 ! D59   D(3,23,24,25)         -59.0662                                         !
 ! D60   D(3,23,24,27)         177.0066                                         !
 ! D61   D(3,23,24,32)          55.4055                                         !
 ! D62   D(31,23,24,25)        114.7897                                         !
 ! D63   D(31,23,24,27)         -9.1375                                         !
 ! D64   D(31,23,24,32)       -130.7386                                         !
 ! D65   D(23,24,25,26)        150.3962                                         !
 ! D66   D(23,24,25,42)        -31.6664                                         !
 ! D67   D(27,24,25,26)        -85.62                                           !
 ! D68   D(27,24,25,42)         92.3174                                         !
 ! D69   D(32,24,25,26)         33.3202                                         !
 ! D70   D(32,24,25,42)       -148.7424                                         !
 ! D71   D(23,24,27,28)        -60.4898                                         !
 ! D72   D(23,24,27,33)         63.4443                                         !
 ! D73   D(23,24,27,34)        177.8328                                         !
 ! D74   D(25,24,27,28)        174.9444                                         !
 ! D75   D(25,24,27,33)        -61.1215                                         !
 ! D76   D(25,24,27,34)         53.2669                                         !
 ! D77   D(32,24,27,28)         59.9002                                         !
 ! D78   D(32,24,27,33)       -176.1657                                         !
 ! D79   D(32,24,27,34)        -61.7773                                         !
 ! D80   D(24,25,42,43)        154.6857                                         !
 ! D81   D(24,25,42,50)         12.4239                                         !
 ! D82   D(26,25,42,43)        -27.4373                                         !
 ! D83   D(26,25,42,50)       -169.6991                                         !
 ! D84   D(24,27,28,29)        179.074                                          !
 ! D85   D(24,27,28,30)        -57.2264                                         !
 ! D86   D(24,27,28,35)         61.9791                                         !
 ! D87   D(33,27,28,29)         55.6063                                         !
 ! D88   D(33,27,28,30)        179.3059                                         !
 ! D89   D(33,27,28,35)        -61.4886                                         !
 ! D90   D(34,27,28,29)        -60.6712                                         !
 ! D91   D(34,27,28,30)         63.0284                                         !
 ! D92   D(34,27,28,35)       -177.7661                                         !
 ! D93   D(27,28,29,36)         63.3235                                         !
 ! D94   D(27,28,29,37)       -177.1613                                         !
 ! D95   D(27,28,29,38)        -56.7084                                         !
 ! D96   D(30,28,29,36)        -61.1066                                         !
 ! D97   D(30,28,29,37)         58.4086                                         !
 ! D98   D(30,28,29,38)        178.8615                                         !
 ! D99   D(35,28,29,36)       -178.8302                                         !
 ! D100  D(35,28,29,37)        -59.315                                          !
 ! D101  D(35,28,29,38)         61.1379                                         !
 ! D102  D(27,28,30,39)        -57.3717                                         !
 ! D103  D(27,28,30,40)         63.2534                                         !
 ! D104  D(27,28,30,41)       -176.7203                                         !
 ! D105  D(29,28,30,39)         65.4785                                         !
 ! D106  D(29,28,30,40)       -173.8964                                         !
 ! D107  D(29,28,30,41)        -53.8701                                         !
 ! D108  D(35,28,30,39)       -177.0426                                         !
 ! D109  D(35,28,30,40)        -56.4175                                         !
 ! D110  D(35,28,30,41)         63.6088                                         !
 ! D111  D(25,42,43,44)       -127.7716                                         !
 ! D112  D(25,42,43,46)        106.6451                                         !
 ! D113  D(25,42,43,51)        -11.7764                                         !
 ! D114  D(50,42,43,44)         16.1797                                         !
 ! D115  D(50,42,43,46)       -109.4036                                         !
 ! D116  D(50,42,43,51)        132.1749                                         !
 ! D117  D(42,43,44,45)         -9.8579                                         !
 ! D118  D(42,43,44,56)        168.5638                                         !
 ! D119  D(46,43,44,45)        114.1892                                         !
 ! D120  D(46,43,44,56)        -67.3892                                         !
 ! D121  D(51,43,44,45)       -125.5466                                         !
 ! D122  D(51,43,44,56)         52.8751                                         !
 ! D123  D(42,43,46,47)       -154.5382                                         !
 ! D124  D(42,43,46,52)        -33.2785                                         !
 ! D125  D(42,43,46,53)         82.8728                                         !
 ! D126  D(44,43,46,47)         84.346                                          !
 ! D127  D(44,43,46,52)       -154.3943                                         !
 ! D128  D(44,43,46,53)        -38.243                                          !
 ! D129  D(51,43,46,47)        -36.1452                                         !
 ! D130  D(51,43,46,52)         85.1145                                         !
 ! D131  D(51,43,46,53)       -158.7342                                         !
 ! D132  D(43,44,56,57)       -174.9005                                         !
 ! D133  D(43,44,56,68)          6.1916                                         !
 ! D134  D(45,44,56,57)          3.4342                                         !
 ! D135  D(45,44,56,68)       -175.4737                                         !
 ! D136  D(43,46,47,48)        153.1781                                         !
 ! D137  D(43,46,47,49)        -28.0322                                         !
 ! D138  D(52,46,47,48)         33.6117                                         !
 ! D139  D(52,46,47,49)       -147.5986                                         !
 ! D140  D(53,46,47,48)        -82.9997                                         !
 ! D141  D(53,46,47,49)         95.79                                           !
 ! D142  D(46,47,48,54)       -178.2719                                         !
 ! D143  D(46,47,48,55)         -9.0193                                         !
 ! D144  D(49,47,48,54)          2.9189                                         !
 ! D145  D(49,47,48,55)        172.1715                                         !
 ! D146  D(44,56,57,58)         38.3863                                         !
 ! D147  D(44,56,57,60)        -91.2274                                         !
 ! D148  D(44,56,57,69)        150.7399                                         !
 ! D149  D(68,56,57,58)       -142.7379                                         !
 ! D150  D(68,56,57,60)         87.6484                                         !
 ! D151  D(68,56,57,69)        -30.3844                                         !
 ! D152  D(56,57,58,59)       -113.3328                                         !
 ! D153  D(56,57,58,67)         70.0747                                         !
 ! D154  D(60,57,58,59)         15.2731                                         !
 ! D155  D(60,57,58,67)       -161.3194                                         !
 ! D156  D(69,57,58,59)        135.0222                                         !
 ! D157  D(69,57,58,67)        -41.5703                                         !
 ! D158  D(56,57,60,61)       -150.0301                                         !
 ! D159  D(56,57,60,70)         85.1369                                         !
 ! D160  D(56,57,60,71)        -31.0668                                         !
 ! D161  D(58,57,60,61)         82.5462                                         !
 ! D162  D(58,57,60,70)        -42.2868                                         !
 ! D163  D(58,57,60,71)       -158.4905                                         !
 ! D164  D(69,57,60,61)        -34.9902                                         !
 ! D165  D(69,57,60,70)       -159.8232                                         !
 ! D166  D(69,57,60,71)         83.9731                                         !
 ! D167  D(57,60,61,62)        -78.7717                                         !
 ! D168  D(57,60,61,72)         46.4315                                         !
 ! D169  D(57,60,61,73)        161.4384                                         !
 ! D170  D(70,60,61,62)         44.9412                                         !
 ! D171  D(70,60,61,72)        170.1443                                         !
 ! D172  D(70,60,61,73)        -74.8488                                         !
 ! D173  D(71,60,61,62)        161.9302                                         !
 ! D174  D(71,60,61,72)        -72.8666                                         !
 ! D175  D(71,60,61,73)         42.1403                                         !
 ! D176  D(60,61,62,63)         64.5623                                         !
 ! D177  D(60,61,62,74)       -171.2742                                         !
 ! D178  D(60,61,62,75)        -54.1392                                         !
 ! D179  D(72,61,62,63)        -60.9977                                         !
 ! D180  D(72,61,62,74)         63.1657                                         !
 ! D181  D(72,61,62,75)       -179.6993                                         !
 ! D182  D(73,61,62,63)       -174.427                                          !
 ! D183  D(73,61,62,74)        -50.2636                                         !
 ! D184  D(73,61,62,75)         66.8714                                         !
 ! D185  D(61,62,63,64)         70.3702                                         !
 ! D186  D(61,62,63,76)        -82.4598                                         !
 ! D187  D(74,62,63,64)        -53.7749                                         !
 ! D188  D(74,62,63,76)        153.395                                          !
 ! D189  D(75,62,63,64)       -168.1517                                         !
 ! D190  D(75,62,63,76)         39.0183                                         !
 ! D191  D(62,63,64,65)         31.129                                          !
 ! D192  D(62,63,64,66)       -149.4298                                         !
 ! D193  D(76,63,64,65)       -177.0478                                         !
 ! D194  D(76,63,64,66)          2.3935                                         !
 ! D195  D(63,64,65,77)       -175.0768                                         !
 ! D196  D(63,64,65,78)         20.0826                                         !
 ! D197  D(66,64,65,77)          5.4846                                         !
 ! D198  D(66,64,65,78)       -159.3561                                         !
 ! D199  D(63,64,66,79)       -169.0285                                         !
 ! D200  D(63,64,66,80)         28.3895                                         !
 ! D201  D(65,64,66,79)         10.4127                                         !
 ! D202  D(65,64,66,80)       -152.1693                                         !
 --------------------------------------------------------------------------------
 Symmetry turned off by external request.
 Stoichiometry    C25H41N8O6(1+)
 Framework group  C1[X(C25H41N8O6)]
 Deg. of freedom   234
 Full point group                 C1      NOp   1
                          Input orientation:                          
 ---------------------------------------------------------------------
 Center     Atomic      Atomic             Coordinates (Angstroms)
 Number     Number       Type             X           Y           Z
 ---------------------------------------------------------------------
      1          7           0       -1.069810   12.209440   -8.194828
      2          6           0       -0.151418   12.513295   -7.053402
      3          6           0       -0.085550   11.176516   -6.276666
      4          8           0       -0.116458   10.126771   -6.910975
      5          6           0       -0.679113   13.741652   -6.287031
      6          6           0       -0.871522   14.944249   -7.188955
      7          6           0        0.180697   15.840854   -7.416765
      8          6           0       -2.092037   15.138794   -7.852700
      9          6           0        0.017804   16.917035   -8.289285
     10          6           0       -2.249952   16.211016   -8.732869
     11          6           0       -1.198838   17.103230   -8.950345
     12          1           0       -1.165590   12.960198   -8.885784
     13          1           0        0.838157   12.722778   -7.473080
     14          1           0        0.043107   13.982546   -5.497904
     15          1           0       -1.627052   13.470698   -5.808986
     16          1           0        1.129045   15.702298   -6.901435
     17          1           0       -2.913550   14.442881   -7.702168
     18          1           0        0.837991   17.610761   -8.450159
     19          1           0       -3.198387   16.346597   -9.244511
     20          1           0       -1.325632   17.941619   -9.629223
     21          1           0       -0.832041   11.328325   -8.668169
     22          1           0       -2.029225   12.053113   -7.809808
     23          7           0       -0.052811   11.220742   -4.923895
     24          6           0       -0.169366    9.985640   -4.137982
     25          6           0       -1.493594    9.243486   -4.428696
     26          8           0       -1.564593    8.029691   -4.333475
     27          6           0       -0.031288   10.279968   -2.637823
     28          6           0        1.306431   10.911136   -2.200886
     29          6           0        1.282169   11.165104   -0.686528
     30          6           0        2.512119   10.046742   -2.593942
     31          1           0       -0.042789   12.106872   -4.439324
     32          1           0        0.606480    9.290680   -4.466047
     33          1           0       -0.865130   10.925761   -2.325307
     34          1           0       -0.167349    9.324490   -2.117098
     35          1           0        1.414480   11.888622   -2.698583
     36          1           0        1.196535   10.219399   -0.137136
     37          1           0        2.202245   11.659771   -0.357281
     38          1           0        0.435472   11.798809   -0.396879
     39          1           0        2.424884    9.041035   -2.164222
     40          1           0        2.610836    9.941083   -3.679932
     41          1           0        3.442025   10.489358   -2.221066
     42          7           0       -2.562300   10.041506   -4.748832
     43          6           0       -3.651394    9.510395   -5.548269
     44          6           0       -3.854996   10.498475   -6.725061
     45          8           0       -3.259738   11.599522   -6.714090
     46          6           0       -4.920826    9.259306   -4.698479
     47          6           0       -5.835279    8.183567   -5.280830
     48          7           0       -6.607570    7.525684   -4.386056
     49          8           0       -5.894329    7.934744   -6.488715
     50          1           0       -2.368257   11.013392   -4.959416
     51          1           0       -3.326830    8.548314   -5.959855
     52          1           0       -4.582890    8.961326   -3.701213
     53          1           0       -5.499557   10.184081   -4.575153
     54          1           0       -7.209194    6.786465   -4.724933
     55          1           0       -6.493857    7.630756   -3.388864
     56          7           0       -4.646676   10.082801   -7.709460
     57          6           0       -4.905597   10.792294   -8.969824
     58          6           0       -3.602020   11.474090   -9.487645
     59          8           0       -3.545908   12.736417   -9.515172
     60          6           0       -6.128045   11.725257   -8.887468
     61          6           0       -6.885497   11.921570  -10.220243
     62          6           0       -6.289908   12.896503  -11.251888
     63          7           0       -4.984914   12.493535  -11.800733
     64          6           0       -4.765105   11.475827  -12.635718
     65          7           0       -5.713784   11.110928  -13.524870
     66          7           0       -3.595255   10.825530  -12.595303
     67          8           0       -2.708849   10.688574   -9.909922
     68          1           0       -5.122162    9.187800   -7.542628
     69          1           0       -5.114403    9.990955   -9.688125
     70          1           0       -5.808658   12.687842   -8.475189
     71          1           0       -6.836665   11.280871   -8.178858
     72          1           0       -7.041017   10.945872  -10.702470
     73          1           0       -7.886883   12.306796   -9.989820
     74          1           0       -7.003307   13.052008  -12.068684
     75          1           0       -6.120442   13.874570  -10.795084
     76          1           0       -4.206430   12.752445  -11.180098
     77          1           0       -5.590033   10.298508  -14.110357
     78          1           0       -6.446562   11.755156  -13.782598
     79          1           0       -3.352173   10.169016  -13.323530
     80          1           0       -3.065049   10.781421  -11.706400
 ---------------------------------------------------------------------
 Rotational constants (GHZ):           0.1053840           0.0662678           0.0465861
 Standard basis: 6-31G(d) (6D, 7F)
   667 basis functions,  1256 primitive gaussians,   667 cartesian basis functions
   147 alpha electrons      147 beta electrons
       nuclear repulsion energy      4877.4520060495 Hartrees.
 NAtoms=   80 NActive=   80 NUniq=   80 SFac= 1.00D+00 NAtFMM=   60 NAOKFM=T Big=T
 Integral buffers will be    131072 words long.
 Raffenetti 2 integral format.
 Two-electron integral symmetry is turned off.
 Nuclear repulsion after empirical dispersion term =     4877.3400885505 Hartrees.
 One-electron integrals computed using PRISM.
 NBasis=   667 RedAO= T EigKep=  4.64D-04  NBF=   667
 NBsUse=   667 1.00D-06 EigRej= -1.00D+00 NBFU=   667
 Initial guess from the checkpoint file:  "conf-217.chk"
 B after Tr=     0.000000    0.000000    0.000000
         Rot=    1.000000    0.000000    0.000000    0.000000 Ang=   0.00 deg.
 Requested convergence on RMS density matrix=1.00D-08 within 128 cycles.
 Requested convergence on MAX density matrix=1.00D-06.
 Requested convergence on             energy=1.00D-06.
 No special actions if energy rises.
 SCF Done:  E(RB3LYP) =  -1866.74464415     A.U. after    3 cycles
            NFock=  3  Conv=0.11D-08     -V/T= 2.0094

 **********************************************************************

            Population analysis using the SCF Density.

 **********************************************************************

 Alpha  occ. eigenvalues --  -19.22464 -19.22225 -19.21330 -19.19101 -19.18567
 Alpha  occ. eigenvalues --  -19.18422 -14.52043 -14.50104 -14.48093 -14.47727
 Alpha  occ. eigenvalues --  -14.46903 -14.45037 -14.44995 -14.43215 -10.45390
 Alpha  occ. eigenvalues --  -10.39724 -10.38904 -10.38836 -10.36716 -10.36281
 Alpha  occ. eigenvalues --  -10.36031 -10.33606 -10.32556 -10.31724 -10.31463
 Alpha  occ. eigenvalues --  -10.30515 -10.29222 -10.28896 -10.28694 -10.27450
 Alpha  occ. eigenvalues --  -10.27346 -10.27102 -10.27097 -10.27087 -10.27034
 Alpha  occ. eigenvalues --  -10.26941 -10.26906 -10.24195 -10.24174  -1.14884
 Alpha  occ. eigenvalues --   -1.14019  -1.13753  -1.12841  -1.11951  -1.11037
 Alpha  occ. eigenvalues --   -1.07704  -1.03539  -1.03191  -1.02656  -1.01885
 Alpha  occ. eigenvalues --   -1.01545  -1.00211  -0.99739  -0.94207  -0.89981
 Alpha  occ. eigenvalues --   -0.89297  -0.88437  -0.87049  -0.84040  -0.83669
 Alpha  occ. eigenvalues --   -0.82595  -0.81747  -0.78876  -0.76686  -0.76062
 Alpha  occ. eigenvalues --   -0.75219  -0.74930  -0.72842  -0.70957  -0.70133
 Alpha  occ. eigenvalues --   -0.69994  -0.69056  -0.68918  -0.67733  -0.67439
 Alpha  occ. eigenvalues --   -0.66926  -0.66648  -0.65894  -0.65464  -0.64162
 Alpha  occ. eigenvalues --   -0.63903  -0.63089  -0.62732  -0.62248  -0.60968
 Alpha  occ. eigenvalues --   -0.59875  -0.59305  -0.58937  -0.58396  -0.57641
 Alpha  occ. eigenvalues --   -0.57053  -0.56360  -0.55536  -0.55283  -0.54535
 Alpha  occ. eigenvalues --   -0.54317  -0.53981  -0.53610  -0.53496  -0.52998
 Alpha  occ. eigenvalues --   -0.52748  -0.52191  -0.51953  -0.51669  -0.51163
 Alpha  occ. eigenvalues --   -0.50483  -0.50259  -0.50133  -0.49618  -0.49214
 Alpha  occ. eigenvalues --   -0.49022  -0.48683  -0.48467  -0.47918  -0.47253
 Alpha  occ. eigenvalues --   -0.46856  -0.46505  -0.46196  -0.45729  -0.45562
 Alpha  occ. eigenvalues --   -0.45379  -0.44935  -0.44651  -0.44223  -0.43975
 Alpha  occ. eigenvalues --   -0.43209  -0.42992  -0.42660  -0.42218  -0.40764
 Alpha  occ. eigenvalues --   -0.40257  -0.40135  -0.39847  -0.37809  -0.37352
 Alpha  occ. eigenvalues --   -0.36732  -0.36352  -0.36268  -0.35842  -0.35242
 Alpha  occ. eigenvalues --   -0.34736  -0.33682  -0.33246  -0.32888  -0.32727
 Alpha  occ. eigenvalues --   -0.32153  -0.32077
 Alpha virt. eigenvalues --   -0.10277  -0.09345  -0.08781  -0.08527  -0.08073
 Alpha virt. eigenvalues --   -0.06895  -0.06537  -0.05646  -0.05317  -0.03011
 Alpha virt. eigenvalues --   -0.02718  -0.00650  -0.00362   0.00456   0.00571
 Alpha virt. eigenvalues --    0.01264   0.01528   0.01851   0.02053   0.02594
 Alpha virt. eigenvalues --    0.02861   0.03800   0.04237   0.04903   0.05133
 Alpha virt. eigenvalues --    0.05362   0.05642   0.05864   0.06161   0.06246
 Alpha virt. eigenvalues --    0.06569   0.06849   0.07195   0.07479   0.08044
 Alpha virt. eigenvalues --    0.08283   0.08335   0.08542   0.08685   0.08983
 Alpha virt. eigenvalues --    0.09366   0.09569   0.10185   0.10574   0.10907
 Alpha virt. eigenvalues --    0.11412   0.11716   0.11924   0.12310   0.12730
 Alpha virt. eigenvalues --    0.13017   0.13355   0.13545   0.13745   0.14584
 Alpha virt. eigenvalues --    0.14615   0.14912   0.15064   0.15518   0.15932
 Alpha virt. eigenvalues --    0.16036   0.16910   0.17154   0.17693   0.18279
 Alpha virt. eigenvalues --    0.18853   0.19362   0.19760   0.20453   0.21181
 Alpha virt. eigenvalues --    0.22922   0.23457   0.23792   0.24791   0.25062
 Alpha virt. eigenvalues --    0.25901   0.26843   0.26977   0.27588   0.27713
 Alpha virt. eigenvalues --    0.29045   0.30577   0.30976   0.31537   0.33864
 Alpha virt. eigenvalues --    0.34181   0.35580   0.36573   0.38082   0.39619
 Alpha virt. eigenvalues --    0.40389   0.41164   0.41581   0.42781   0.42893
 Alpha virt. eigenvalues --    0.43373   0.43504   0.43678   0.44042   0.44448
 Alpha virt. eigenvalues --    0.44720   0.44847   0.45522   0.45713   0.45925
 Alpha virt. eigenvalues --    0.46533   0.46913   0.47312   0.48260   0.48379
 Alpha virt. eigenvalues --    0.49206   0.49333   0.49839   0.50008   0.50414
 Alpha virt. eigenvalues --    0.51077   0.51296   0.51420   0.51706   0.52103
 Alpha virt. eigenvalues --    0.52644   0.53043   0.53350   0.53558   0.53800
 Alpha virt. eigenvalues --    0.54034   0.54323   0.55438   0.55654   0.56085
 Alpha virt. eigenvalues --    0.56402   0.56796   0.56875   0.56907   0.57304
 Alpha virt. eigenvalues --    0.58163   0.58199   0.58466   0.58905   0.59845
 Alpha virt. eigenvalues --    0.60565   0.60812   0.61429   0.61582   0.62540
 Alpha virt. eigenvalues --    0.63606   0.63854   0.63950   0.64457   0.64967
 Alpha virt. eigenvalues --    0.65311   0.65491   0.66173   0.66854   0.67354
 Alpha virt. eigenvalues --    0.68800   0.69028   0.69866   0.70223   0.70579
 Alpha virt. eigenvalues --    0.71376   0.71718   0.72318   0.72694   0.72886
 Alpha virt. eigenvalues --    0.73264   0.73817   0.74839   0.75139   0.75266
 Alpha virt. eigenvalues --    0.75850   0.76059   0.76121   0.76624   0.77122
 Alpha virt. eigenvalues --    0.77341   0.77664   0.77905   0.78602   0.78774
 Alpha virt. eigenvalues --    0.79018   0.79372   0.79611   0.80249   0.80552
 Alpha virt. eigenvalues --    0.80927   0.81363   0.81538   0.82089   0.82243
 Alpha virt. eigenvalues --    0.82783   0.82961   0.83500   0.83995   0.84144
 Alpha virt. eigenvalues --    0.84317   0.84648   0.85075   0.85322   0.85914
 Alpha virt. eigenvalues --    0.86137   0.86417   0.86934   0.87200   0.87270
 Alpha virt. eigenvalues --    0.87670   0.88330   0.89157   0.89294   0.89833
 Alpha virt. eigenvalues --    0.90629   0.91128   0.91234   0.92225   0.92660
 Alpha virt. eigenvalues --    0.93283   0.93685   0.94307   0.94722   0.95999
 Alpha virt. eigenvalues --    0.96194   0.96969   0.97467   0.98427   0.99126
 Alpha virt. eigenvalues --    0.99904   1.00409   1.01069   1.01565   1.02680
 Alpha virt. eigenvalues --    1.02937   1.03653   1.04642   1.05748   1.05859
 Alpha virt. eigenvalues --    1.06887   1.07298   1.07988   1.08847   1.09785
 Alpha virt. eigenvalues --    1.10969   1.11405   1.11849   1.12562   1.12940
 Alpha virt. eigenvalues --    1.14174   1.14687   1.15827   1.16651   1.17111
 Alpha virt. eigenvalues --    1.17301   1.17942   1.18283   1.19061   1.19368
 Alpha virt. eigenvalues --    1.21201   1.22493   1.22532   1.23423   1.24232
 Alpha virt. eigenvalues --    1.24783   1.26583   1.27282   1.28728   1.29505
 Alpha virt. eigenvalues --    1.30359   1.31594   1.32799   1.33031   1.34416
 Alpha virt. eigenvalues --    1.35226   1.35353   1.35643   1.36394   1.37462
 Alpha virt. eigenvalues --    1.38824   1.39069   1.39853   1.40124   1.40296
 Alpha virt. eigenvalues --    1.41041   1.41600   1.42013   1.42796   1.43444
 Alpha virt. eigenvalues --    1.43844   1.44406   1.45249   1.45788   1.47756
 Alpha virt. eigenvalues --    1.48201   1.49356   1.49583   1.51041   1.52249
 Alpha virt. eigenvalues --    1.53671   1.55416   1.55987   1.56602   1.57560
 Alpha virt. eigenvalues --    1.57795   1.58620   1.59749   1.60519   1.61431
 Alpha virt. eigenvalues --    1.63107   1.63735   1.64472   1.65093   1.65733
 Alpha virt. eigenvalues --    1.66213   1.66901   1.67864   1.68359   1.68908
 Alpha virt. eigenvalues --    1.69171   1.69863   1.70466   1.71361   1.71497
 Alpha virt. eigenvalues --    1.71788   1.72104   1.72633   1.73102   1.73307
 Alpha virt. eigenvalues --    1.73779   1.75392   1.75812   1.76471   1.77004
 Alpha virt. eigenvalues --    1.77738   1.77918   1.78310   1.79098   1.79948
 Alpha virt. eigenvalues --    1.80627   1.81222   1.81608   1.81716   1.82350
 Alpha virt. eigenvalues --    1.83092   1.83417   1.84353   1.84726   1.84995
 Alpha virt. eigenvalues --    1.85377   1.85886   1.86815   1.87875   1.88260
 Alpha virt. eigenvalues --    1.88914   1.89307   1.89612   1.90044   1.90663
 Alpha virt. eigenvalues --    1.90811   1.92244   1.92752   1.93075   1.93490
 Alpha virt. eigenvalues --    1.93901   1.94341   1.95467   1.95895   1.96987
 Alpha virt. eigenvalues --    1.97545   1.97867   1.98199   1.99245   1.99385
 Alpha virt. eigenvalues --    2.00496   2.01071   2.01254   2.02338   2.03267
 Alpha virt. eigenvalues --    2.04081   2.05236   2.06212   2.06595   2.07219
 Alpha virt. eigenvalues --    2.07395   2.08596   2.08748   2.10530   2.10679
 Alpha virt. eigenvalues --    2.11605   2.12860   2.13397   2.13947   2.14692
 Alpha virt. eigenvalues --    2.15029   2.15885   2.16290   2.17099   2.18380
 Alpha virt. eigenvalues --    2.18598   2.19680   2.20478   2.20689   2.22037
 Alpha virt. eigenvalues --    2.22896   2.23041   2.23864   2.24185   2.25367
 Alpha virt. eigenvalues --    2.26635   2.27714   2.28123   2.28846   2.30269
 Alpha virt. eigenvalues --    2.30847   2.31300   2.33250   2.33535   2.34835
 Alpha virt. eigenvalues --    2.35512   2.36551   2.36939   2.38331   2.39555
 Alpha virt. eigenvalues --    2.40279   2.41127   2.42418   2.43087   2.44207
 Alpha virt. eigenvalues --    2.44806   2.45410   2.46132   2.46954   2.47631
 Alpha virt. eigenvalues --    2.48610   2.48907   2.49286   2.50032   2.51204
 Alpha virt. eigenvalues --    2.51842   2.51920   2.52787   2.53258   2.54697
 Alpha virt. eigenvalues --    2.56869   2.57050   2.57919   2.58666   2.59762
 Alpha virt. eigenvalues --    2.61808   2.62129   2.62560   2.63259   2.63967
 Alpha virt. eigenvalues --    2.64774   2.65183   2.66673   2.67393   2.68198
 Alpha virt. eigenvalues --    2.68613   2.69298   2.70991   2.72371   2.74882
 Alpha virt. eigenvalues --    2.76043   2.79295   2.80765   2.84486   2.88040
 Alpha virt. eigenvalues --    2.88307   2.88988   2.92361   2.92632   2.93703
 Alpha virt. eigenvalues --    2.94582   2.95106   2.97081   2.97866   2.98461
 Alpha virt. eigenvalues --    2.98953   3.05052   3.07838   3.09323   3.12077
 Alpha virt. eigenvalues --    3.32722   3.69081   3.72030   3.78444   3.86745
 Alpha virt. eigenvalues --    3.88056   3.92571   3.93382   3.97104   3.98662
 Alpha virt. eigenvalues --    4.01028   4.01463   4.03887   4.04854   4.06202
 Alpha virt. eigenvalues --    4.08882   4.10237   4.12864   4.14197   4.16942
 Alpha virt. eigenvalues --    4.17520   4.21213   4.22685   4.24815   4.25941
 Alpha virt. eigenvalues --    4.27856   4.29742   4.32930   4.33565   4.37707
 Alpha virt. eigenvalues --    4.41076   4.45890   4.47219   4.50300   4.51485
 Alpha virt. eigenvalues --    4.54494   4.57333   4.62484   4.65275   4.67539
          Condensed to atoms (all electrons):
 Mulliken charges:
               1
     1  N   -0.786852
     2  C   -0.086852
     3  C    0.638800
     4  O   -0.510625
     5  C   -0.404176
     6  C    0.133201
     7  C   -0.179572
     8  C   -0.206574
     9  C   -0.127623
    10  C   -0.128026
    11  C   -0.125452
    12  H    0.404527
    13  H    0.211106
    14  H    0.168840
    15  H    0.194200
    16  H    0.134127
    17  H    0.173375
    18  H    0.152451
    19  H    0.142868
    20  H    0.149782
    21  H    0.419135
    22  H    0.482413
    23  N   -0.649953
    24  C   -0.024191
    25  C    0.604599
    26  O   -0.503489
    27  C   -0.305966
    28  C   -0.077001
    29  C   -0.443493
    30  C   -0.451938
    31  H    0.350259
    32  H    0.205647
    33  H    0.137875
    34  H    0.180440
    35  H    0.108285
    36  H    0.155358
    37  H    0.157259
    38  H    0.143647
    39  H    0.158230
    40  H    0.148327
    41  H    0.158124
    42  N   -0.613425
    43  C   -0.056543
    44  C    0.620379
    45  O   -0.609817
    46  C   -0.377491
    47  C    0.631450
    48  N   -0.736465
    49  O   -0.532602
    50  H    0.343610
    51  H    0.218191
    52  H    0.191411
    53  H    0.189675
    54  H    0.361646
    55  H    0.356571
    56  N   -0.615472
    57  C    0.010299
    58  C    0.540024
    59  O   -0.609659
    60  C   -0.268833
    61  C   -0.281125
    62  C   -0.161465
    63  N   -0.602794
    64  C    0.775463
    65  N   -0.757611
    66  N   -0.779460
    67  O   -0.601481
    68  H    0.401218
    69  H    0.146982
    70  H    0.175854
    71  H    0.150522
    72  H    0.147743
    73  H    0.165771
    74  H    0.155183
    75  H    0.193234
    76  H    0.397531
    77  H    0.372326
    78  H    0.378200
    79  H    0.358132
    80  H    0.421737
 Sum of Mulliken charges =   1.00000
 Mulliken charges with hydrogens summed into heavy atoms:
               1
     1  N    0.519224
     2  C    0.124254
     3  C    0.638800
     4  O   -0.510625
     5  C   -0.041137
     6  C    0.133201
     7  C   -0.045445
     8  C   -0.033199
     9  C    0.024829
    10  C    0.014842
    11  C    0.024330
    23  N   -0.299695
    24  C    0.181455
    25  C    0.604599
    26  O   -0.503489
    27  C    0.012349
    28  C    0.031283
    29  C    0.012772
    30  C    0.012743
    42  N   -0.269815
    43  C    0.161649
    44  C    0.620379
    45  O   -0.609817
    46  C    0.003596
    47  C    0.631450
    48  N   -0.018248
    49  O   -0.532602
    56  N   -0.214254
    57  C    0.157280
    58  C    0.540024
    59  O   -0.609659
    60  C    0.057543
    61  C    0.032388
    62  C    0.186951
    63  N   -0.205263
    64  C    0.775463
    65  N   -0.007085
    66  N    0.000408
    67  O   -0.601481
 Electronic spatial extent (au):  <R**2>=         222422.5624
 Charge=              1.0000 electrons
 Dipole moment (field-independent basis, Debye):
    X=            -18.9776    Y=             57.6969    Z=            -42.7175  Tot=             74.2554
 Quadrupole moment (field-independent basis, Debye-Ang):
   XX=            -90.7841   YY=            480.1864   ZZ=            271.7327
   XY=           -194.0141   XZ=            199.4801   YZ=           -516.9897
 Traceless Quadrupole moment (field-independent basis, Debye-Ang):
   XX=           -311.1624   YY=            259.8081   ZZ=             51.3543
   XY=           -194.0141   XZ=            199.4801   YZ=           -516.9897
 Octapole moment (field-independent basis, Debye-Ang**2):
  XXX=            870.0568  YYY=           1031.1743  ZZZ=          -1581.4733  XYY=          -1471.8952
  XXY=          -1210.9801  XXZ=            318.7024  XZZ=          -1938.0640  YZZ=           3235.0452
  YYZ=          -4758.1889  XYZ=           2206.1104
 Hexadecapole moment (field-independent basis, Debye-Ang**3):
 XXXX=         -12640.4045 YYYY=         -73898.9476 ZZZZ=           3637.9477 XXXY=          10059.7801
 XXXZ=          -7289.8826 YYYX=          -3244.8869 YYYZ=         -23009.2698 ZZZX=          18274.5908
 ZZZY=         -15356.6371 XXYY=         -19258.6920 XXZZ=          -1229.6436 YYZZ=          24984.8585
 XXYZ=           4666.0374 YYXZ=          19661.0169 ZZXY=         -21993.1193
 N-N= 4.877340088550D+03 E-N=-1.407541283143D+04  KE= 1.849294852803D+03
 Unable to Open any file for archive entry.
 1\1\GINC-QML-002\SP\RB3LYP\6-31G(d)\C25H41N8O6(1+)\KENGMITH\11-Jun-202
 2\0\\# B3LYP/6-31G* empiricaldispersion=gd3 guess=read geom=check nosy
 mm integral(ultrafinegrid)\\Candidate Structure: Conf:217 Charge calc 
 in gas phase\\1,1\N,0,-1.0698101661,12.2094401033,-8.1948277647\C,0,-0
 .1514180664,12.5132945451,-7.0534016189\C,0,-0.0855498536,11.176516385
 7,-6.2766658012\O,0,-0.1164584773,10.1267711047,-6.9109748826\C,0,-0.6
 791127749,13.7416515887,-6.2870313424\C,0,-0.8715224402,14.9442492326,
 -7.1889553657\C,0,0.1806973937,15.8408537716,-7.4167648917\C,0,-2.0920
 374773,15.1387935747,-7.8526996047\C,0,0.0178035569,16.917034861,-8.28
 92852115\C,0,-2.2499524036,16.2110159566,-8.7328692559\C,0,-1.19883799
 03,17.1032302765,-8.9503449296\H,0,-1.1655897301,12.9601975462,-8.8857
 840015\H,0,0.8381567829,12.7227783805,-7.4730795437\H,0,0.0431073577,1
 3.9825464854,-5.4979040248\H,0,-1.6270519013,13.4706977399,-5.80898586
 59\H,0,1.1290447372,15.7022978732,-6.9014347395\H,0,-2.9135495204,14.4
 428807955,-7.702168016\H,0,0.8379905429,17.6107609592,-8.450158599\H,0
 ,-3.1983871947,16.3465969663,-9.2445106964\H,0,-1.3256324178,17.941619
 2805,-9.6292230302\H,0,-0.8320410652,11.3283250492,-8.6681688524\H,0,-
 2.0292253183,12.0531130222,-7.8098076597\N,0,-0.0528112689,11.22074183
 53,-4.923894506\C,0,-0.1693663536,9.9856403549,-4.1379822621\C,0,-1.49
 35942673,9.2434862174,-4.4286963592\O,0,-1.5645930826,8.0296911648,-4.
 3334750671\C,0,-0.0312879506,10.2799682075,-2.637822662\C,0,1.30643137
 76,10.9111364995,-2.2008860586\C,0,1.2821693355,11.1651043665,-0.68652
 79246\C,0,2.5121193541,10.0467424093,-2.5939419113\H,0,-0.042788551,12
 .1068724027,-4.4393239276\H,0,0.6064801507,9.2906800626,-4.4660468607\
 H,0,-0.8651302449,10.9257608362,-2.3253065306\H,0,-0.1673491651,9.3244
 897972,-2.1170978925\H,0,1.4144797329,11.8886215387,-2.6985830599\H,0,
 1.1965350814,10.2193994996,-0.1371361362\H,0,2.2022445011,11.659770946
 4,-0.3572809515\H,0,0.4354723418,11.7988085315,-0.3968789541\H,0,2.424
 88427,9.0410353605,-2.1642217701\H,0,2.6108360811,9.9410831091,-3.6799
 319319\H,0,3.4420248507,10.4893578672,-2.2210663448\N,0,-2.5623001103,
 10.0415063884,-4.7488320203\C,0,-3.6513941053,9.5103950102,-5.54826912
 05\C,0,-3.8549956485,10.4984745871,-6.7250606773\O,0,-3.2597378702,11.
 5995217538,-6.7140900271\C,0,-4.9208256808,9.2593055886,-4.6984793239\
 C,0,-5.8352794133,8.1835673791,-5.2808303528\N,0,-6.607569962,7.525683
 5107,-4.3860558298\O,0,-5.8943290791,7.9347437569,-6.4887149075\H,0,-2
 .3682568759,11.0133920242,-4.9594161488\H,0,-3.3268302,8.5483138643,-5
 .9598547564\H,0,-4.5828903842,8.9613257149,-3.7012127937\H,0,-5.499557
 3545,10.1840809412,-4.5751530231\H,0,-7.2091944792,6.7864646988,-4.724
 9325293\H,0,-6.4938568886,7.6307560386,-3.3888640287\N,0,-4.6466764644
 ,10.0828006426,-7.709460477\C,0,-4.9055972283,10.7922939824,-8.9698244
 001\C,0,-3.6020195394,11.4740902456,-9.4876446403\O,0,-3.5459083031,12
 .736416817,-9.515171771\C,0,-6.1280445523,11.7252568906,-8.8874676006\
 C,0,-6.8854973846,11.9215704073,-10.2202429724\C,0,-6.2899078872,12.89
 65031773,-11.2518876283\N,0,-4.9849140528,12.4935351535,-11.8007329172
 \C,0,-4.765105271,11.4758268021,-12.635718121\N,0,-5.7137835509,11.110
 9281999,-13.5248701863\N,0,-3.5952550668,10.8255302586,-12.5953029649\
 O,0,-2.7088485572,10.6885743578,-9.909922045\H,0,-5.122162381,9.187799
 9466,-7.5426280964\H,0,-5.1144027987,9.9909547484,-9.6881254379\H,0,-5
 .8086578191,12.6878424758,-8.4751892562\H,0,-6.8366652635,11.280871119
 9,-8.1788584309\H,0,-7.041017067,10.9458717481,-10.7024702515\H,0,-7.8
 868829974,12.3067957129,-9.9898204821\H,0,-7.0033072269,13.0520078948,
 -12.0686839655\H,0,-6.1204417088,13.874569625,-10.7950835823\H,0,-4.20
 64303832,12.7524449125,-11.1800975539\H,0,-5.5900333867,10.2985078868,
 -14.1103573884\H,0,-6.4465623695,11.7551556063,-13.7825983599\H,0,-3.3
 521733576,10.1690157614,-13.3235304084\H,0,-3.065048938,10.7814207346,
 -11.7063998945\\Version=ES64L-G16RevC.01\HF=-1866.7446442\RMSD=1.140e-
 09\Dipole=-2.5416655,1.0307072,-3.2468941\Quadrupole=-231.3416545,193.
 1609588,38.1806958,-144.2447125,148.3085894,-384.3691852\PG=C01 [X(C25
 H41N8O6)]\\@
 The archive entry for this job was punched.


 You don't have to suffer to be a poet.
 Adolescence is enough suffering for anyone.
                             -- John Ciardi
 Job cpu time:       0 days  0 hours  7 minutes 17.3 seconds.
 Elapsed time:       0 days  0 hours  1 minutes 50.0 seconds.
 File lengths (MBytes):  RWF=    344 Int=      0 D2E=      0 Chk=     48 Scr=     16
 Normal termination of Gaussian 16 at Sat Jun 11 20:57:14 2022.
