 Entering Gaussian System, Link 0=/opt/software/Gaussian/g16-AVX2-C.01/g16/g16
 Input=charge-conf-981.com
 Output=charge-conf-981.log
 Initial command:
 /opt/software/Gaussian/g16-AVX2-C.01/g16/l1.exe "/mnt/gs18/scratch/users/kengmith/Gau-11790.inp" -scrdir="/mnt/gs18/scratch/users/kengmith/"
 Entering Link 1 = /opt/software/Gaussian/g16-AVX2-C.01/g16/l1.exe PID=     11801.
  
 Copyright (c) 1988-2019, Gaussian, Inc.  All Rights Reserved.
  
 This is part of the Gaussian(R) 16 program.  It is based on
 the Gaussian(R) 09 system (copyright 2009, Gaussian, Inc.),
 the Gaussian(R) 03 system (copyright 2003, Gaussian, Inc.),
 the Gaussian(R) 98 system (copyright 1998, Gaussian, Inc.),
 the Gaussian(R) 94 system (copyright 1995, Gaussian, Inc.),
 the Gaussian 92(TM) system (copyright 1992, Gaussian, Inc.),
 the Gaussian 90(TM) system (copyright 1990, Gaussian, Inc.),
 the Gaussian 88(TM) system (copyright 1988, Gaussian, Inc.),
 the Gaussian 86(TM) system (copyright 1986, Carnegie Mellon
 University), and the Gaussian 82(TM) system (copyright 1983,
 Carnegie Mellon University). Gaussian is a federally registered
 trademark of Gaussian, Inc.
  
 This software contains proprietary and confidential information,
 including trade secrets, belonging to Gaussian, Inc.
  
 This software is provided under written license and may be
 used, copied, transmitted, or stored only in accord with that
 written license.
  
 The following legend is applicable only to US Government
 contracts under FAR:
  
                    RESTRICTED RIGHTS LEGEND
  
 Use, reproduction and disclosure by the US Government is
 subject to restrictions as set forth in subparagraphs (a)
 and (c) of the Commercial Computer Software - Restricted
 Rights clause in FAR 52.227-19.
  
 Gaussian, Inc.
 340 Quinnipiac St., Bldg. 40, Wallingford CT 06492
  
  
 ---------------------------------------------------------------
 Warning -- This program may not be used in any manner that
 competes with the business of Gaussian, Inc. or will provide
 assistance to any competitor of Gaussian, Inc.  The licensee
 of this program is prohibited from giving any competitor of
 Gaussian, Inc. access to this program.  By using this program,
 the user acknowledges that Gaussian, Inc. is engaged in the
 business of creating and licensing software in the field of
 computational chemistry and represents and warrants to the
 licensee that it is not a competitor of Gaussian, Inc. and that
 it will not use this program in any manner prohibited above.
 ---------------------------------------------------------------
  

 Cite this work as:
 Gaussian 16, Revision C.01,
 M. J. Frisch, G. W. Trucks, H. B. Schlegel, G. E. Scuseria, 
 M. A. Robb, J. R. Cheeseman, G. Scalmani, V. Barone, 
 G. A. Petersson, H. Nakatsuji, X. Li, M. Caricato, A. V. Marenich, 
 J. Bloino, B. G. Janesko, R. Gomperts, B. Mennucci, H. P. Hratchian, 
 J. V. Ortiz, A. F. Izmaylov, J. L. Sonnenberg, D. Williams-Young, 
 F. Ding, F. Lipparini, F. Egidi, J. Goings, B. Peng, A. Petrone, 
 T. Henderson, D. Ranasinghe, V. G. Zakrzewski, J. Gao, N. Rega, 
 G. Zheng, W. Liang, M. Hada, M. Ehara, K. Toyota, R. Fukuda, 
 J. Hasegawa, M. Ishida, T. Nakajima, Y. Honda, O. Kitao, H. Nakai, 
 T. Vreven, K. Throssell, J. A. Montgomery, Jr., J. E. Peralta, 
 F. Ogliaro, M. J. Bearpark, J. J. Heyd, E. N. Brothers, K. N. Kudin, 
 V. N. Staroverov, T. A. Keith, R. Kobayashi, J. Normand, 
 K. Raghavachari, A. P. Rendell, J. C. Burant, S. S. Iyengar, 
 J. Tomasi, M. Cossi, J. M. Millam, M. Klene, C. Adamo, R. Cammi, 
 J. W. Ochterski, R. L. Martin, K. Morokuma, O. Farkas, 
 J. B. Foresman, and D. J. Fox, Gaussian, Inc., Wallingford CT, 2019.
 
 ******************************************
 Gaussian 16:  ES64L-G16RevC.01  3-Jul-2019
                11-Jun-2022 
 ******************************************
 %mem=8gb
 %nproc=4
 Will use up to    4 processors via shared memory.
 %chk=conf-981.chk
 ----------------------------------------------------------------------
 # B3LYP/6-31G* empiricaldispersion=gd3 guess=read geom=check nosymm in
 tegral(ultrafinegrid)
 ----------------------------------------------------------------------
 1/29=2,38=1,172=1/1;
 2/12=2,15=1,40=1/2;
 3/5=1,6=6,7=1,11=2,14=-4,25=1,30=1,74=-5,75=-5,116=-2,124=31/1,2,3;
 4/5=1/1;
 5/5=2,38=6/2;
 6/7=2,8=2,9=2,10=2,28=1/1;
 99/5=1,9=1/99;
 ------------------------------------------------------
 Candidate Structure: Conf:981 Charge calc in gas phase
 ------------------------------------------------------
 Structure from the checkpoint file:  "conf-981.chk"
 Charge =  1 Multiplicity = 1
 Redundant internal coordinates found in file.  (old form).
 N,0,0.0647483966,11.4272952482,-6.5307894542
 C,0,-0.6119632048,11.5447602973,-5.1948208045
 C,0,-1.5780360393,10.339001339,-5.1190221865
 O,0,-1.4854469491,9.4361761862,-5.9478499721
 C,0,-1.2340926739,12.9426967708,-5.0260123673
 C,0,-0.1837162578,14.0306825041,-5.1280553617
 C,0,0.7266741149,14.2373524677,-4.0817182173
 C,0,-0.0808173386,14.8159072742,-6.2830593303
 C,0,1.7218667803,15.2086962821,-4.185108202
 C,0,0.9157266705,15.7895848588,-6.3865441973
 C,0,1.8187172607,15.9877962892,-5.3412627426
 H,0,1.0746668301,11.5536586806,-6.4648260719
 H,0,0.1581253271,11.3926326324,-4.4302185663
 H,0,-1.7148620485,12.9876174923,-4.0410525489
 H,0,-2.0141060713,13.064685148,-5.7811564137
 H,0,0.6480831362,13.643193803,-3.1725312893
 H,0,-0.7761656336,14.6525735094,-7.1006316463
 H,0,2.4148303544,15.363732187,-3.3630192771
 H,0,0.9825925663,16.3982676973,-7.2843955773
 H,0,2.590129149,16.7482914997,-5.4216773285
 H,0,-0.1536323739,10.4843791974,-6.9096789244
 H,0,-0.3030570441,12.1098480606,-7.2757009237
 N,0,-2.462100379,10.3196298177,-4.0983188261
 C,0,-3.3779807187,9.1845694177,-3.8909420726
 C,0,-4.1996682531,8.8846327888,-5.1609838961
 O,0,-4.4653345009,7.738280267,-5.4848038265
 C,0,-4.2743696955,9.4818069097,-2.6769322072
 C,0,-5.3343099845,8.4063152582,-2.3670348301
 C,0,-4.7136028193,7.0164815304,-2.1650871326
 C,0,-6.1492455804,8.8356638611,-1.1388336884
 H,0,-2.4888532229,11.0837849285,-3.4372857125
 H,0,-2.7834595013,8.2837828484,-3.7210864629
 H,0,-3.6263536992,9.6077316383,-1.7967092533
 H,0,-4.7799166722,10.4438261273,-2.8455909961
 H,0,-6.0154569478,8.3485464922,-3.2268453799
 H,0,-4.2737975294,6.6380498229,-3.0922636374
 H,0,-3.9382449079,7.0413589639,-1.3875793835
 H,0,-5.4785274463,6.3003184961,-1.845707198
 H,0,-5.5140288493,8.8859419719,-0.2450460585
 H,0,-6.608556673,9.8215704069,-1.2808356867
 H,0,-6.9508926933,8.1177607841,-0.9351412595
 N,0,-4.6279187172,9.9906088635,-5.8482090733
 C,0,-4.8138516858,9.9029988327,-7.2874861181
 C,0,-3.8967122053,10.9956259691,-7.8929045806
 O,0,-3.342014258,11.8236202743,-7.1571605545
 C,0,-6.3016469494,10.0251409287,-7.6884231327
 C,0,-6.6213268696,9.372067922,-9.0316195664
 N,0,-7.9079060837,8.9825667105,-9.1981159283
 O,0,-5.7831432557,9.2217361205,-9.9242330936
 H,0,-4.1885514127,10.8711170025,-5.5925823959
 H,0,-4.451914505,8.9231432513,-7.6161545576
 H,0,-6.8899699664,9.5515951023,-6.8958879886
 H,0,-6.6125605976,11.0775982203,-7.7265055045
 H,0,-8.1591487882,8.5177413909,-10.0604944451
 H,0,-8.5789671744,8.9888287843,-8.4445420631
 N,0,-3.7219843798,10.9525784021,-9.2213248476
 C,0,-2.7600419314,11.8011699601,-9.926770736
 C,0,-1.4000144019,11.7384874375,-9.1792959924
 O,0,-0.979682062,12.7895426896,-8.5776083405
 C,0,-3.2866181286,13.224460244,-10.1919918864
 C,0,-2.6935196885,13.9257049855,-11.4335013905
 C,0,-1.2821000534,14.5252956783,-11.3131193958
 N,0,-0.2121205216,13.5368509819,-11.0931209399
 C,0,0.2218681022,12.641849942,-11.9834272863
 N,0,0.1808532444,12.9213294476,-13.3020040062
 N,0,0.7151781193,11.4703783778,-11.5592694266
 O,0,-0.7518855198,10.669973331,-9.2573303449
 H,0,-4.2622510963,10.2495167222,-9.7324867912
 H,0,-2.591439678,11.2931043048,-10.8831031231
 H,0,-3.1406284153,13.8283167537,-9.2913626502
 H,0,-4.3667054011,13.1407593919,-10.3566529315
 H,0,-2.7151338826,13.2389033539,-12.2918881354
 H,0,-3.3518249247,14.7621477536,-11.7004520134
 H,0,-1.0523591901,15.125527525,-12.2005274695
 H,0,-1.2285179171,15.2023454652,-10.4571516204
 H,0,-0.1091566946,13.2869811142,-10.1032236497
 H,0,0.4137339661,12.2219541322,-13.9909801455
 H,0,0.0828652622,13.8725852897,-13.6239798759
 H,0,1.1851570711,10.8519308718,-12.2051655547
 H,0,0.3733486836,11.0690235849,-10.670826023
 Recover connectivity data from disk.
                           ----------------------------
                           !    Current Parameters    !
                           ! (Angstroms and Degrees)  !
 --------------------------                            --------------------------
 ! Name  Definition              Value                                          !
 --------------------------------------------------------------------------------
 ! R1    R(1,2)                  1.5022                                         !
 ! R2    R(1,12)                 1.0199                                         !
 ! R3    R(1,21)                 1.0394                                         !
 ! R4    R(1,22)                 1.0752                                         !
 ! R5    R(2,3)                  1.5469                                         !
 ! R6    R(2,5)                  1.5394                                         !
 ! R7    R(2,13)                 1.0958                                         !
 ! R8    R(3,4)                  1.2291                                         !
 ! R9    R(3,23)                 1.3505                                         !
 ! R10   R(5,6)                  1.5157                                         !
 ! R11   R(5,14)                 1.097                                          !
 ! R12   R(5,15)                 1.0925                                         !
 ! R13   R(6,7)                  1.4023                                         !
 ! R14   R(6,8)                  1.4004                                         !
 ! R15   R(7,9)                  1.3945                                         !
 ! R16   R(7,16)                 1.089                                          !
 ! R17   R(8,10)                 1.3971                                         !
 ! R18   R(8,17)                 1.0856                                         !
 ! R19   R(9,11)                 1.3975                                         !
 ! R20   R(9,18)                 1.0863                                         !
 ! R21   R(10,11)                1.3955                                         !
 ! R22   R(10,19)                1.0868                                         !
 ! R23   R(11,20)                1.0862                                         !
 ! R24   R(23,24)                1.4732                                         !
 ! R25   R(23,31)                1.0107                                         !
 ! R26   R(24,25)                1.5421                                         !
 ! R27   R(24,27)                1.5381                                         !
 ! R28   R(24,32)                1.0926                                         !
 ! R29   R(25,26)                1.2205                                         !
 ! R30   R(25,42)                1.3707                                         !
 ! R31   R(27,28)                1.5415                                         !
 ! R32   R(27,33)                1.1003                                         !
 ! R33   R(27,34)                1.0998                                         !
 ! R34   R(28,29)                1.5355                                         !
 ! R35   R(28,30)                1.5352                                         !
 ! R36   R(28,35)                1.0984                                         !
 ! R37   R(29,36)                1.0938                                         !
 ! R38   R(29,37)                1.0983                                         !
 ! R39   R(29,38)                1.0954                                         !
 ! R40   R(30,39)                1.0977                                         !
 ! R41   R(30,40)                1.0969                                         !
 ! R42   R(30,41)                1.0952                                         !
 ! R43   R(42,43)                1.4539                                         !
 ! R44   R(42,50)                1.0167                                         !
 ! R45   R(43,44)                1.5497                                         !
 ! R46   R(43,46)                1.5457                                         !
 ! R47   R(43,51)                1.0951                                         !
 ! R48   R(44,45)                1.2388                                         !
 ! R49   R(44,56)                1.3406                                         !
 ! R50   R(46,47)                1.5274                                         !
 ! R51   R(46,52)                1.0948                                         !
 ! R52   R(46,53)                1.0981                                         !
 ! R53   R(47,48)                1.3545                                         !
 ! R54   R(47,49)                1.2337                                         !
 ! R55   R(48,54)                1.0114                                         !
 ! R56   R(48,55)                1.0091                                         !
 ! R57   R(56,57)                1.4639                                         !
 ! R58   R(56,68)                1.0235                                         !
 ! R59   R(57,58)                1.5532                                         !
 ! R60   R(57,60)                1.5406                                         !
 ! R61   R(57,69)                1.096                                          !
 ! R62   R(58,59)                1.282                                          !
 ! R63   R(58,67)                1.2522                                         !
 ! R64   R(60,61)                1.5443                                         !
 ! R65   R(60,70)                1.0941                                         !
 ! R66   R(60,71)                1.0958                                         !
 ! R67   R(61,62)                1.5382                                         !
 ! R68   R(61,72)                1.0995                                         !
 ! R69   R(61,73)                1.0974                                         !
 ! R70   R(62,63)                1.4732                                         !
 ! R71   R(62,74)                1.0957                                         !
 ! R72   R(62,75)                1.0927                                         !
 ! R73   R(63,64)                1.3349                                         !
 ! R74   R(63,76)                1.0261                                         !
 ! R75   R(64,65)                1.3485                                         !
 ! R76   R(64,66)                1.34                                           !
 ! R77   R(65,77)                1.009                                          !
 ! R78   R(65,78)                1.009                                          !
 ! R79   R(66,79)                1.0102                                         !
 ! R80   R(66,80)                1.0331                                         !
 ! A1    A(2,1,12)             112.263                                          !
 ! A2    A(2,1,21)             107.4867                                         !
 ! A3    A(2,1,22)             114.3564                                         !
 ! A4    A(12,1,21)            110.1215                                         !
 ! A5    A(12,1,22)            107.751                                          !
 ! A6    A(21,1,22)            104.5644                                         !
 ! A7    A(1,2,3)              105.3055                                         !
 ! A8    A(1,2,5)              110.5236                                         !
 ! A9    A(1,2,13)             107.0442                                         !
 ! A10   A(3,2,5)              116.7483                                         !
 ! A11   A(3,2,13)             107.2467                                         !
 ! A12   A(5,2,13)             109.4853                                         !
 ! A13   A(2,3,4)              119.5033                                         !
 ! A14   A(2,3,23)             117.1968                                         !
 ! A15   A(4,3,23)             123.2615                                         !
 ! A16   A(2,5,6)              111.3701                                         !
 ! A17   A(2,5,14)             108.2265                                         !
 ! A18   A(2,5,15)             108.3092                                         !
 ! A19   A(6,5,14)             109.5589                                         !
 ! A20   A(6,5,15)             111.5979                                         !
 ! A21   A(14,5,15)            107.6469                                         !
 ! A22   A(5,6,7)              120.3622                                         !
 ! A23   A(5,6,8)              120.5916                                         !
 ! A24   A(7,6,8)              119.0169                                         !
 ! A25   A(6,7,9)              120.7082                                         !
 ! A26   A(6,7,16)             119.7176                                         !
 ! A27   A(9,7,16)             119.5686                                         !
 ! A28   A(6,8,10)             120.2832                                         !
 ! A29   A(6,8,17)             119.3198                                         !
 ! A30   A(10,8,17)            120.3936                                         !
 ! A31   A(7,9,11)             119.9415                                         !
 ! A32   A(7,9,18)             119.9042                                         !
 ! A33   A(11,9,18)            120.1522                                         !
 ! A34   A(8,10,11)            120.3367                                         !
 ! A35   A(8,10,19)            119.6973                                         !
 ! A36   A(11,10,19)           119.9651                                         !
 ! A37   A(9,11,10)            119.7133                                         !
 ! A38   A(9,11,20)            120.051                                          !
 ! A39   A(10,11,20)           120.2346                                         !
 ! A40   A(3,23,24)            121.6305                                         !
 ! A41   A(3,23,31)            120.052                                          !
 ! A42   A(24,23,31)           118.2939                                         !
 ! A43   A(23,24,25)           111.4193                                         !
 ! A44   A(23,24,27)           108.9379                                         !
 ! A45   A(23,24,32)           108.5918                                         !
 ! A46   A(25,24,27)           112.1542                                         !
 ! A47   A(25,24,32)           104.9287                                         !
 ! A48   A(27,24,32)           110.7168                                         !
 ! A49   A(24,25,26)           121.1432                                         !
 ! A50   A(24,25,42)           114.9891                                         !
 ! A51   A(26,25,42)           123.8366                                         !
 ! A52   A(24,27,28)           115.1244                                         !
 ! A53   A(24,27,33)           108.0787                                         !
 ! A54   A(24,27,34)           108.4153                                         !
 ! A55   A(28,27,33)           108.9048                                         !
 ! A56   A(28,27,34)           108.9688                                         !
 ! A57   A(33,27,34)           107.0563                                         !
 ! A58   A(27,28,29)           112.3335                                         !
 ! A59   A(27,28,30)           109.3118                                         !
 ! A60   A(27,28,35)           107.8013                                         !
 ! A61   A(29,28,30)           111.2538                                         !
 ! A62   A(29,28,35)           107.8194                                         !
 ! A63   A(30,28,35)           108.165                                          !
 ! A64   A(28,29,36)           111.3604                                         !
 ! A65   A(28,29,37)           110.976                                          !
 ! A66   A(28,29,38)           110.3542                                         !
 ! A67   A(36,29,37)           108.9088                                         !
 ! A68   A(36,29,38)           107.5617                                         !
 ! A69   A(37,29,38)           107.5395                                         !
 ! A70   A(28,30,39)           110.9185                                         !
 ! A71   A(28,30,40)           111.7205                                         !
 ! A72   A(28,30,41)           110.7326                                         !
 ! A73   A(39,30,40)           107.8525                                         !
 ! A74   A(39,30,41)           107.5874                                         !
 ! A75   A(40,30,41)           107.8634                                         !
 ! A76   A(25,42,43)           119.187                                          !
 ! A77   A(25,42,50)           115.9575                                         !
 ! A78   A(43,42,50)           110.8766                                         !
 ! A79   A(42,43,44)           105.5795                                         !
 ! A80   A(42,43,46)           112.0315                                         !
 ! A81   A(42,43,51)           107.9855                                         !
 ! A82   A(44,43,46)           114.3684                                         !
 ! A83   A(44,43,51)           108.5437                                         !
 ! A84   A(46,43,51)           108.1191                                         !
 ! A85   A(43,44,45)           120.2807                                         !
 ! A86   A(43,44,56)           116.2082                                         !
 ! A87   A(45,44,56)           123.4802                                         !
 ! A88   A(43,46,47)           113.3147                                         !
 ! A89   A(43,46,52)           107.1759                                         !
 ! A90   A(43,46,53)           110.9325                                         !
 ! A91   A(47,46,52)           109.8289                                         !
 ! A92   A(47,46,53)           108.6661                                         !
 ! A93   A(52,46,53)           106.7103                                         !
 ! A94   A(46,47,48)           115.4582                                         !
 ! A95   A(46,47,49)           123.1067                                         !
 ! A96   A(48,47,49)           121.4243                                         !
 ! A97   A(47,48,54)           118.2245                                         !
 ! A98   A(47,48,55)           122.5537                                         !
 ! A99   A(54,48,55)           118.3219                                         !
 ! A100  A(44,56,57)           122.9942                                         !
 ! A101  A(44,56,68)           116.6269                                         !
 ! A102  A(57,56,68)           120.2911                                         !
 ! A103  A(56,57,58)           108.6677                                         !
 ! A104  A(56,57,60)           113.1972                                         !
 ! A105  A(56,57,69)           104.6466                                         !
 ! A106  A(58,57,60)           114.7991                                         !
 ! A107  A(58,57,69)           105.4577                                         !
 ! A108  A(60,57,69)           109.308                                          !
 ! A109  A(57,58,59)           118.6788                                         !
 ! A110  A(57,58,67)           117.2384                                         !
 ! A111  A(59,58,67)           123.9986                                         !
 ! A112  A(57,60,61)           115.2549                                         !
 ! A113  A(57,60,70)           108.8187                                         !
 ! A114  A(57,60,71)           106.9905                                         !
 ! A115  A(61,60,70)           111.0941                                         !
 ! A116  A(61,60,71)           107.0041                                         !
 ! A117  A(70,60,71)           107.3001                                         !
 ! A118  A(60,61,62)           117.8063                                         !
 ! A119  A(60,61,72)           109.6593                                         !
 ! A120  A(60,61,73)           108.1367                                         !
 ! A121  A(62,61,72)           108.8209                                         !
 ! A122  A(62,61,73)           105.805                                          !
 ! A123  A(72,61,73)           105.9261                                         !
 ! A124  A(61,62,63)           114.6191                                         !
 ! A125  A(61,62,74)           110.0318                                         !
 ! A126  A(61,62,75)           110.3546                                         !
 ! A127  A(63,62,74)           109.6464                                         !
 ! A128  A(63,62,75)           105.2565                                         !
 ! A129  A(74,62,75)           106.5429                                         !
 ! A130  A(62,63,64)           125.8999                                         !
 ! A131  A(62,63,76)           112.3538                                         !
 ! A132  A(64,63,76)           116.5838                                         !
 ! A133  A(63,64,65)           120.2184                                         !
 ! A134  A(63,64,66)           119.6503                                         !
 ! A135  A(65,64,66)           120.1255                                         !
 ! A136  A(64,65,77)           121.1323                                         !
 ! A137  A(64,65,78)           120.6872                                         !
 ! A138  A(77,65,78)           117.2568                                         !
 ! A139  A(64,66,79)           120.2706                                         !
 ! A140  A(64,66,80)           119.3435                                         !
 ! A141  A(79,66,80)           117.7713                                         !
 ! D1    D(12,1,2,3)          -133.2654                                         !
 ! D2    D(12,1,2,5)            99.8148                                         !
 ! D3    D(12,1,2,13)          -19.3485                                         !
 ! D4    D(21,1,2,3)           -12.02                                           !
 ! D5    D(21,1,2,5)          -138.9398                                         !
 ! D6    D(21,1,2,13)          101.8969                                         !
 ! D7    D(22,1,2,3)           103.5766                                         !
 ! D8    D(22,1,2,5)           -23.3432                                         !
 ! D9    D(22,1,2,13)         -142.5065                                         !
 ! D10   D(1,2,3,4)             12.0019                                         !
 ! D11   D(1,2,3,23)          -170.1772                                         !
 ! D12   D(5,2,3,4)            135.0247                                         !
 ! D13   D(5,2,3,23)           -47.1544                                         !
 ! D14   D(13,2,3,4)          -101.7736                                         !
 ! D15   D(13,2,3,23)           76.0473                                         !
 ! D16   D(1,2,5,6)            -59.421                                          !
 ! D17   D(1,2,5,14)          -179.9074                                         !
 ! D18   D(1,2,5,15)            63.6599                                         !
 ! D19   D(3,2,5,6)           -179.7063                                         !
 ! D20   D(3,2,5,14)            59.8073                                         !
 ! D21   D(3,2,5,15)           -56.6254                                         !
 ! D22   D(13,2,5,6)            58.2533                                         !
 ! D23   D(13,2,5,14)          -62.2331                                         !
 ! D24   D(13,2,5,15)         -178.6658                                         !
 ! D25   D(2,3,23,24)         -176.6912                                         !
 ! D26   D(2,3,23,31)            1.513                                          !
 ! D27   D(4,3,23,24)            1.0407                                         !
 ! D28   D(4,3,23,31)          179.2449                                         !
 ! D29   D(2,5,6,7)            -73.3                                            !
 ! D30   D(2,5,6,8)            104.713                                          !
 ! D31   D(14,5,6,7)            46.3995                                         !
 ! D32   D(14,5,6,8)          -135.5876                                         !
 ! D33   D(15,5,6,7)           165.5205                                         !
 ! D34   D(15,5,6,8)           -16.4665                                         !
 ! D35   D(5,6,7,9)            178.0169                                         !
 ! D36   D(5,6,7,16)            -2.8453                                         !
 ! D37   D(8,6,7,9)             -0.0271                                         !
 ! D38   D(8,6,7,16)           179.1107                                         !
 ! D39   D(5,6,8,10)          -178.0458                                         !
 ! D40   D(5,6,8,17)             1.2871                                         !
 ! D41   D(7,6,8,10)            -0.0064                                         !
 ! D42   D(7,6,8,17)           179.3265                                         !
 ! D43   D(6,7,9,11)            -0.0136                                         !
 ! D44   D(6,7,9,18)           179.4636                                         !
 ! D45   D(16,7,9,11)         -179.1527                                         !
 ! D46   D(16,7,9,18)            0.3246                                         !
 ! D47   D(6,8,10,11)            0.081                                          !
 ! D48   D(6,8,10,19)         -179.5785                                         !
 ! D49   D(17,8,10,11)        -179.2446                                         !
 ! D50   D(17,8,10,19)           1.0958                                         !
 ! D51   D(7,9,11,10)            0.0878                                         !
 ! D52   D(7,9,11,20)          179.6952                                         !
 ! D53   D(18,9,11,10)        -179.3881                                         !
 ! D54   D(18,9,11,20)           0.2192                                         !
 ! D55   D(8,10,11,9)           -0.1216                                         !
 ! D56   D(8,10,11,20)        -179.7282                                         !
 ! D57   D(19,10,11,9)         179.537                                          !
 ! D58   D(19,10,11,20)         -0.0696                                         !
 ! D59   D(3,23,24,25)         -54.3137                                         !
 ! D60   D(3,23,24,27)        -178.5673                                         !
 ! D61   D(3,23,24,32)          60.7688                                         !
 ! D62   D(31,23,24,25)        127.4516                                         !
 ! D63   D(31,23,24,27)          3.198                                          !
 ! D64   D(31,23,24,32)       -117.4659                                         !
 ! D65   D(23,24,25,26)        142.5822                                         !
 ! D66   D(23,24,25,42)        -39.3713                                         !
 ! D67   D(27,24,25,26)        -94.9971                                         !
 ! D68   D(27,24,25,42)         83.0494                                         !
 ! D69   D(32,24,25,26)         25.2576                                         !
 ! D70   D(32,24,25,42)       -156.6959                                         !
 ! D71   D(23,24,27,28)        177.5027                                         !
 ! D72   D(23,24,27,33)        -60.5242                                         !
 ! D73   D(23,24,27,34)         55.1901                                         !
 ! D74   D(25,24,27,28)         53.684                                          !
 ! D75   D(25,24,27,33)        175.6571                                         !
 ! D76   D(25,24,27,34)        -68.6286                                         !
 ! D77   D(32,24,27,28)        -63.1477                                         !
 ! D78   D(32,24,27,33)         58.8255                                         !
 ! D79   D(32,24,27,34)        174.5398                                         !
 ! D80   D(24,25,42,43)        150.5633                                         !
 ! D81   D(24,25,42,50)         14.019                                          !
 ! D82   D(26,25,42,43)        -31.4496                                         !
 ! D83   D(26,25,42,50)       -167.9939                                         !
 ! D84   D(24,27,28,29)         56.0218                                         !
 ! D85   D(24,27,28,30)       -179.9762                                         !
 ! D86   D(24,27,28,35)        -62.6231                                         !
 ! D87   D(33,27,28,29)        -65.5049                                         !
 ! D88   D(33,27,28,30)         58.4972                                         !
 ! D89   D(33,27,28,35)        175.8503                                         !
 ! D90   D(34,27,28,29)        178.0365                                         !
 ! D91   D(34,27,28,30)        -57.9614                                         !
 ! D92   D(34,27,28,35)         59.3917                                         !
 ! D93   D(27,28,29,36)        -66.4696                                         !
 ! D94   D(27,28,29,37)         55.0373                                         !
 ! D95   D(27,28,29,38)        174.1465                                         !
 ! D96   D(30,28,29,36)        170.6144                                         !
 ! D97   D(30,28,29,37)        -67.8787                                         !
 ! D98   D(30,28,29,38)         51.2305                                         !
 ! D99   D(35,28,29,36)         52.1646                                         !
 ! D100  D(35,28,29,37)        173.6715                                         !
 ! D101  D(35,28,29,38)        -67.2193                                         !
 ! D102  D(27,28,30,39)        -64.1579                                         !
 ! D103  D(27,28,30,40)         56.21                                           !
 ! D104  D(27,28,30,41)        176.4645                                         !
 ! D105  D(29,28,30,39)         60.4766                                         !
 ! D106  D(29,28,30,40)       -179.1555                                         !
 ! D107  D(29,28,30,41)        -58.901                                          !
 ! D108  D(35,28,30,39)        178.7183                                         !
 ! D109  D(35,28,30,40)        -60.9138                                         !
 ! D110  D(35,28,30,41)         59.3407                                         !
 ! D111  D(25,42,43,44)       -122.2609                                         !
 ! D112  D(25,42,43,46)        112.6457                                         !
 ! D113  D(25,42,43,51)         -6.3077                                         !
 ! D114  D(50,42,43,44)         16.2973                                         !
 ! D115  D(50,42,43,46)       -108.7961                                         !
 ! D116  D(50,42,43,51)        132.2505                                         !
 ! D117  D(42,43,44,45)         -9.2899                                         !
 ! D118  D(42,43,44,56)        168.7587                                         !
 ! D119  D(46,43,44,45)        114.3385                                         !
 ! D120  D(46,43,44,56)        -67.6129                                         !
 ! D121  D(51,43,44,45)       -124.8613                                         !
 ! D122  D(51,43,44,56)         53.1872                                         !
 ! D123  D(42,43,46,47)       -155.5023                                         !
 ! D124  D(42,43,46,52)        -34.1818                                         !
 ! D125  D(42,43,46,53)         81.9509                                         !
 ! D126  D(44,43,46,47)         84.4074                                         !
 ! D127  D(44,43,46,52)       -154.2721                                         !
 ! D128  D(44,43,46,53)        -38.1394                                         !
 ! D129  D(51,43,46,47)        -36.6277                                         !
 ! D130  D(51,43,46,52)         84.6928                                         !
 ! D131  D(51,43,46,53)       -159.1745                                         !
 ! D132  D(43,44,56,57)       -172.0971                                         !
 ! D133  D(43,44,56,68)          4.5011                                         !
 ! D134  D(45,44,56,57)          5.8824                                         !
 ! D135  D(45,44,56,68)       -177.5193                                         !
 ! D136  D(43,46,47,48)        155.2968                                         !
 ! D137  D(43,46,47,49)        -25.8813                                         !
 ! D138  D(52,46,47,48)         35.4794                                         !
 ! D139  D(52,46,47,49)       -145.6986                                         !
 ! D140  D(53,46,47,48)        -80.9081                                         !
 ! D141  D(53,46,47,49)         97.9138                                         !
 ! D142  D(46,47,48,54)       -178.0309                                         !
 ! D143  D(46,47,48,55)         -9.0803                                         !
 ! D144  D(49,47,48,54)          3.1255                                         !
 ! D145  D(49,47,48,55)        172.0761                                         !
 ! D146  D(44,56,57,58)         47.6025                                         !
 ! D147  D(44,56,57,60)        -81.1866                                         !
 ! D148  D(44,56,57,69)        159.8788                                         !
 ! D149  D(68,56,57,58)       -128.8756                                         !
 ! D150  D(68,56,57,60)        102.3353                                         !
 ! D151  D(68,56,57,69)        -16.5993                                         !
 ! D152  D(56,57,58,59)       -111.9679                                         !
 ! D153  D(56,57,58,67)         71.2327                                         !
 ! D154  D(60,57,58,59)         15.9194                                         !
 ! D155  D(60,57,58,67)       -160.8801                                         !
 ! D156  D(69,57,58,59)        136.2955                                         !
 ! D157  D(69,57,58,67)        -40.504                                          !
 ! D158  D(56,57,60,61)       -152.1373                                         !
 ! D159  D(56,57,60,70)         82.3296                                         !
 ! D160  D(56,57,60,71)        -33.3055                                         !
 ! D161  D(58,57,60,61)         82.2986                                         !
 ! D162  D(58,57,60,70)        -43.2345                                         !
 ! D163  D(58,57,60,71)       -158.8696                                         !
 ! D164  D(69,57,60,61)        -35.9292                                         !
 ! D165  D(69,57,60,70)       -161.4623                                         !
 ! D166  D(69,57,60,71)         82.9026                                         !
 ! D167  D(57,60,61,62)        -78.0235                                         !
 ! D168  D(57,60,61,72)         47.1258                                         !
 ! D169  D(57,60,61,73)        162.1902                                         !
 ! D170  D(70,60,61,62)         46.327                                          !
 ! D171  D(70,60,61,72)        171.4763                                         !
 ! D172  D(70,60,61,73)        -73.4594                                         !
 ! D173  D(71,60,61,62)        163.1522                                         !
 ! D174  D(71,60,61,72)        -71.6985                                         !
 ! D175  D(71,60,61,73)         43.3659                                         !
 ! D176  D(60,61,62,63)         64.9781                                         !
 ! D177  D(60,61,62,74)       -170.9162                                         !
 ! D178  D(60,61,62,75)        -53.6247                                         !
 ! D179  D(72,61,62,63)        -60.5837                                         !
 ! D180  D(72,61,62,74)         63.5221                                         !
 ! D181  D(72,61,62,75)       -179.1865                                         !
 ! D182  D(73,61,62,63)       -174.0223                                         !
 ! D183  D(73,61,62,74)        -49.9165                                         !
 ! D184  D(73,61,62,75)         67.3749                                         !
 ! D185  D(61,62,63,64)         69.3665                                         !
 ! D186  D(61,62,63,76)        -84.1438                                         !
 ! D187  D(74,62,63,64)        -54.9438                                         !
 ! D188  D(74,62,63,76)        151.5459                                         !
 ! D189  D(75,62,63,64)       -169.1957                                         !
 ! D190  D(75,62,63,76)         37.294                                          !
 ! D191  D(62,63,64,65)         30.6326                                         !
 ! D192  D(62,63,64,66)       -150.2418                                         !
 ! D193  D(76,63,64,65)       -176.8375                                         !
 ! D194  D(76,63,64,66)          2.2881                                         !
 ! D195  D(63,64,65,77)       -173.5356                                         !
 ! D196  D(63,64,65,78)         17.7649                                         !
 ! D197  D(66,64,65,77)          7.343                                          !
 ! D198  D(66,64,65,78)       -161.3565                                         !
 ! D199  D(63,64,66,79)       -169.8115                                         !
 ! D200  D(63,64,66,80)         28.9203                                         !
 ! D201  D(65,64,66,79)          9.3149                                         !
 ! D202  D(65,64,66,80)       -151.9532                                         !
 --------------------------------------------------------------------------------
 Symmetry turned off by external request.
 Stoichiometry    C25H41N8O6(1+)
 Framework group  C1[X(C25H41N8O6)]
 Deg. of freedom   234
 Full point group                 C1      NOp   1
                          Input orientation:                          
 ---------------------------------------------------------------------
 Center     Atomic      Atomic             Coordinates (Angstroms)
 Number     Number       Type             X           Y           Z
 ---------------------------------------------------------------------
      1          7           0        0.064748   11.427295   -6.530789
      2          6           0       -0.611963   11.544760   -5.194821
      3          6           0       -1.578036   10.339001   -5.119022
      4          8           0       -1.485447    9.436176   -5.947850
      5          6           0       -1.234093   12.942697   -5.026012
      6          6           0       -0.183716   14.030683   -5.128055
      7          6           0        0.726674   14.237352   -4.081718
      8          6           0       -0.080817   14.815907   -6.283059
      9          6           0        1.721867   15.208696   -4.185108
     10          6           0        0.915727   15.789585   -6.386544
     11          6           0        1.818717   15.987796   -5.341263
     12          1           0        1.074667   11.553659   -6.464826
     13          1           0        0.158125   11.392633   -4.430219
     14          1           0       -1.714862   12.987617   -4.041053
     15          1           0       -2.014106   13.064685   -5.781156
     16          1           0        0.648083   13.643194   -3.172531
     17          1           0       -0.776166   14.652574   -7.100632
     18          1           0        2.414830   15.363732   -3.363019
     19          1           0        0.982593   16.398268   -7.284396
     20          1           0        2.590129   16.748291   -5.421677
     21          1           0       -0.153632   10.484379   -6.909679
     22          1           0       -0.303057   12.109848   -7.275701
     23          7           0       -2.462100   10.319630   -4.098319
     24          6           0       -3.377981    9.184569   -3.890942
     25          6           0       -4.199668    8.884633   -5.160984
     26          8           0       -4.465335    7.738280   -5.484804
     27          6           0       -4.274370    9.481807   -2.676932
     28          6           0       -5.334310    8.406315   -2.367035
     29          6           0       -4.713603    7.016482   -2.165087
     30          6           0       -6.149246    8.835664   -1.138834
     31          1           0       -2.488853   11.083785   -3.437286
     32          1           0       -2.783460    8.283783   -3.721086
     33          1           0       -3.626354    9.607732   -1.796709
     34          1           0       -4.779917   10.443826   -2.845591
     35          1           0       -6.015457    8.348546   -3.226845
     36          1           0       -4.273798    6.638050   -3.092264
     37          1           0       -3.938245    7.041359   -1.387579
     38          1           0       -5.478527    6.300318   -1.845707
     39          1           0       -5.514029    8.885942   -0.245046
     40          1           0       -6.608557    9.821570   -1.280836
     41          1           0       -6.950893    8.117761   -0.935141
     42          7           0       -4.627919    9.990609   -5.848209
     43          6           0       -4.813852    9.902999   -7.287486
     44          6           0       -3.896712   10.995626   -7.892905
     45          8           0       -3.342014   11.823620   -7.157161
     46          6           0       -6.301647   10.025141   -7.688423
     47          6           0       -6.621327    9.372068   -9.031620
     48          7           0       -7.907906    8.982567   -9.198116
     49          8           0       -5.783143    9.221736   -9.924233
     50          1           0       -4.188551   10.871117   -5.592582
     51          1           0       -4.451915    8.923143   -7.616155
     52          1           0       -6.889970    9.551595   -6.895888
     53          1           0       -6.612561   11.077598   -7.726506
     54          1           0       -8.159149    8.517741  -10.060494
     55          1           0       -8.578967    8.988829   -8.444542
     56          7           0       -3.721984   10.952578   -9.221325
     57          6           0       -2.760042   11.801170   -9.926771
     58          6           0       -1.400014   11.738487   -9.179296
     59          8           0       -0.979682   12.789543   -8.577608
     60          6           0       -3.286618   13.224460  -10.191992
     61          6           0       -2.693520   13.925705  -11.433501
     62          6           0       -1.282100   14.525296  -11.313119
     63          7           0       -0.212121   13.536851  -11.093121
     64          6           0        0.221868   12.641850  -11.983427
     65          7           0        0.180853   12.921329  -13.302004
     66          7           0        0.715178   11.470378  -11.559269
     67          8           0       -0.751886   10.669973   -9.257330
     68          1           0       -4.262251   10.249517   -9.732487
     69          1           0       -2.591440   11.293104  -10.883103
     70          1           0       -3.140628   13.828317   -9.291363
     71          1           0       -4.366705   13.140759  -10.356653
     72          1           0       -2.715134   13.238903  -12.291888
     73          1           0       -3.351825   14.762148  -11.700452
     74          1           0       -1.052359   15.125528  -12.200527
     75          1           0       -1.228518   15.202345  -10.457152
     76          1           0       -0.109157   13.286981  -10.103224
     77          1           0        0.413734   12.221954  -13.990980
     78          1           0        0.082865   13.872585  -13.623980
     79          1           0        1.185157   10.851931  -12.205166
     80          1           0        0.373349   11.069024  -10.670826
 ---------------------------------------------------------------------
 Rotational constants (GHZ):           0.1065379           0.0677054           0.0468151
 Standard basis: 6-31G(d) (6D, 7F)
   667 basis functions,  1256 primitive gaussians,   667 cartesian basis functions
   147 alpha electrons      147 beta electrons
       nuclear repulsion energy      4901.1209159724 Hartrees.
 NAtoms=   80 NActive=   80 NUniq=   80 SFac= 1.00D+00 NAtFMM=   60 NAOKFM=T Big=T
 Integral buffers will be    131072 words long.
 Raffenetti 2 integral format.
 Two-electron integral symmetry is turned off.
 Nuclear repulsion after empirical dispersion term =     4901.0094858022 Hartrees.
 One-electron integrals computed using PRISM.
 NBasis=   667 RedAO= T EigKep=  4.62D-04  NBF=   667
 NBsUse=   667 1.00D-06 EigRej= -1.00D+00 NBFU=   667
 Initial guess from the checkpoint file:  "conf-981.chk"
 B after Tr=     0.000000    0.000000    0.000000
         Rot=    1.000000    0.000000    0.000000    0.000000 Ang=   0.00 deg.
 Requested convergence on RMS density matrix=1.00D-08 within 128 cycles.
 Requested convergence on MAX density matrix=1.00D-06.
 Requested convergence on             energy=1.00D-06.
 No special actions if energy rises.
 SCF Done:  E(RB3LYP) =  -1866.74577804     A.U. after    1 cycles
            NFock=  1  Conv=0.39D-08     -V/T= 2.0094

 **********************************************************************

            Population analysis using the SCF Density.

 **********************************************************************

 Alpha  occ. eigenvalues --  -19.22542 -19.20563 -19.20379 -19.20303 -19.19582
 Alpha  occ. eigenvalues --  -19.18657 -14.51813 -14.50732 -14.48819 -14.48531
 Alpha  occ. eigenvalues --  -14.46705 -14.44310 -14.43557 -14.42223 -10.46093
 Alpha  occ. eigenvalues --  -10.39712 -10.38090 -10.37818 -10.37006 -10.35883
 Alpha  occ. eigenvalues --  -10.35719 -10.34081 -10.31529 -10.31514 -10.31330
 Alpha  occ. eigenvalues --  -10.29443 -10.29103 -10.28400 -10.28310 -10.27335
 Alpha  occ. eigenvalues --  -10.27213 -10.27051 -10.27016 -10.26972 -10.26868
 Alpha  occ. eigenvalues --  -10.26807 -10.25532 -10.23305 -10.22619  -1.14947
 Alpha  occ. eigenvalues --   -1.14661  -1.13585  -1.12292  -1.11847  -1.10440
 Alpha  occ. eigenvalues --   -1.07157  -1.04504  -1.03461  -1.02988  -1.02454
 Alpha  occ. eigenvalues --   -1.00483  -0.99391  -0.99026  -0.93986  -0.89561
 Alpha  occ. eigenvalues --   -0.89371  -0.87941  -0.86302  -0.83853  -0.83332
 Alpha  occ. eigenvalues --   -0.82478  -0.81079  -0.78929  -0.76440  -0.75622
 Alpha  occ. eigenvalues --   -0.75068  -0.74026  -0.72408  -0.71663  -0.70455
 Alpha  occ. eigenvalues --   -0.69554  -0.68916  -0.68215  -0.67671  -0.67155
 Alpha  occ. eigenvalues --   -0.66838  -0.66537  -0.64769  -0.64494  -0.63781
 Alpha  occ. eigenvalues --   -0.63398  -0.62834  -0.62565  -0.61977  -0.61176
 Alpha  occ. eigenvalues --   -0.59865  -0.59377  -0.58728  -0.58059  -0.57317
 Alpha  occ. eigenvalues --   -0.56671  -0.56040  -0.55978  -0.54993  -0.54557
 Alpha  occ. eigenvalues --   -0.54065  -0.53690  -0.53393  -0.53147  -0.53109
 Alpha  occ. eigenvalues --   -0.52546  -0.51931  -0.51447  -0.51151  -0.50674
 Alpha  occ. eigenvalues --   -0.50374  -0.49890  -0.49539  -0.49320  -0.49171
 Alpha  occ. eigenvalues --   -0.48828  -0.48599  -0.48071  -0.47722  -0.47110
 Alpha  occ. eigenvalues --   -0.46498  -0.45952  -0.45795  -0.45473  -0.45050
 Alpha  occ. eigenvalues --   -0.44493  -0.44049  -0.43962  -0.43736  -0.43266
 Alpha  occ. eigenvalues --   -0.43041  -0.42459  -0.42110  -0.41904  -0.41395
 Alpha  occ. eigenvalues --   -0.39546  -0.38930  -0.38708  -0.38457  -0.36966
 Alpha  occ. eigenvalues --   -0.36611  -0.36499  -0.36164  -0.35560  -0.34803
 Alpha  occ. eigenvalues --   -0.34116  -0.33544  -0.33181  -0.33062  -0.32684
 Alpha  occ. eigenvalues --   -0.32353  -0.31702
 Alpha virt. eigenvalues --   -0.10885  -0.09549  -0.08244  -0.07902  -0.07550
 Alpha virt. eigenvalues --   -0.06630  -0.06235  -0.05523  -0.05046  -0.03847
 Alpha virt. eigenvalues --   -0.03266  -0.02073  -0.00461  -0.00089   0.00220
 Alpha virt. eigenvalues --    0.01112   0.01657   0.02387   0.02566   0.03179
 Alpha virt. eigenvalues --    0.03646   0.04028   0.04894   0.05013   0.05203
 Alpha virt. eigenvalues --    0.05465   0.05897   0.06124   0.06542   0.06930
 Alpha virt. eigenvalues --    0.07118   0.07459   0.07747   0.07837   0.08020
 Alpha virt. eigenvalues --    0.08146   0.08579   0.09048   0.09145   0.09402
 Alpha virt. eigenvalues --    0.09512   0.10314   0.10737   0.11102   0.11538
 Alpha virt. eigenvalues --    0.11813   0.12283   0.12491   0.12720   0.12872
 Alpha virt. eigenvalues --    0.13138   0.13342   0.14154   0.14360   0.14503
 Alpha virt. eigenvalues --    0.14731   0.14916   0.16086   0.16308   0.16936
 Alpha virt. eigenvalues --    0.17067   0.17580   0.17675   0.18363   0.19015
 Alpha virt. eigenvalues --    0.19285   0.19883   0.20118   0.21144   0.21821
 Alpha virt. eigenvalues --    0.22958   0.23536   0.24520   0.24898   0.25351
 Alpha virt. eigenvalues --    0.26198   0.26767   0.27002   0.27191   0.28120
 Alpha virt. eigenvalues --    0.29495   0.30347   0.31776   0.31996   0.34199
 Alpha virt. eigenvalues --    0.34434   0.35504   0.37233   0.38034   0.40090
 Alpha virt. eigenvalues --    0.40336   0.40764   0.41964   0.42335   0.42712
 Alpha virt. eigenvalues --    0.43049   0.43629   0.43723   0.44370   0.44641
 Alpha virt. eigenvalues --    0.45250   0.45540   0.46005   0.46387   0.46549
 Alpha virt. eigenvalues --    0.46823   0.47082   0.47448   0.48273   0.48832
 Alpha virt. eigenvalues --    0.48889   0.49730   0.49912   0.50248   0.50665
 Alpha virt. eigenvalues --    0.51088   0.51341   0.51567   0.51903   0.52329
 Alpha virt. eigenvalues --    0.52715   0.53279   0.53560   0.53890   0.54068
 Alpha virt. eigenvalues --    0.54434   0.55096   0.55358   0.55809   0.56339
 Alpha virt. eigenvalues --    0.56633   0.57046   0.57094   0.57497   0.58051
 Alpha virt. eigenvalues --    0.58243   0.58785   0.59124   0.59565   0.59934
 Alpha virt. eigenvalues --    0.60268   0.60981   0.61808   0.62277   0.63031
 Alpha virt. eigenvalues --    0.63653   0.63826   0.64649   0.65164   0.65454
 Alpha virt. eigenvalues --    0.65833   0.66206   0.66294   0.67103   0.67963
 Alpha virt. eigenvalues --    0.68712   0.69298   0.69961   0.70430   0.71053
 Alpha virt. eigenvalues --    0.71323   0.71678   0.72080   0.72625   0.73637
 Alpha virt. eigenvalues --    0.73951   0.74477   0.74976   0.75104   0.75370
 Alpha virt. eigenvalues --    0.75925   0.76277   0.76441   0.76664   0.76922
 Alpha virt. eigenvalues --    0.77520   0.78076   0.78350   0.78687   0.78752
 Alpha virt. eigenvalues --    0.79297   0.79593   0.79911   0.80173   0.80330
 Alpha virt. eigenvalues --    0.80649   0.80760   0.81692   0.82045   0.82083
 Alpha virt. eigenvalues --    0.82524   0.83469   0.83538   0.84032   0.84671
 Alpha virt. eigenvalues --    0.84824   0.85449   0.85629   0.85916   0.86061
 Alpha virt. eigenvalues --    0.86458   0.86493   0.86834   0.87062   0.87701
 Alpha virt. eigenvalues --    0.87735   0.88302   0.88913   0.89486   0.90430
 Alpha virt. eigenvalues --    0.90794   0.91001   0.91809   0.92289   0.92377
 Alpha virt. eigenvalues --    0.92735   0.93836   0.94087   0.94897   0.95123
 Alpha virt. eigenvalues --    0.95900   0.96930   0.97623   0.97809   0.98903
 Alpha virt. eigenvalues --    0.99436   1.00142   1.01420   1.01663   1.02524
 Alpha virt. eigenvalues --    1.04005   1.04047   1.05037   1.05726   1.06104
 Alpha virt. eigenvalues --    1.07345   1.08536   1.08990   1.09381   1.09590
 Alpha virt. eigenvalues --    1.10297   1.10881   1.11681   1.12633   1.14324
 Alpha virt. eigenvalues --    1.14728   1.15388   1.16548   1.17216   1.17646
 Alpha virt. eigenvalues --    1.18271   1.19316   1.19710   1.20550   1.21127
 Alpha virt. eigenvalues --    1.21832   1.22725   1.23897   1.24381   1.25289
 Alpha virt. eigenvalues --    1.25973   1.26681   1.28297   1.28368   1.28802
 Alpha virt. eigenvalues --    1.29632   1.31425   1.32141   1.33615   1.34467
 Alpha virt. eigenvalues --    1.34587   1.35340   1.35921   1.36151   1.36976
 Alpha virt. eigenvalues --    1.38307   1.38524   1.39158   1.39887   1.40586
 Alpha virt. eigenvalues --    1.40935   1.41108   1.42184   1.42508   1.42918
 Alpha virt. eigenvalues --    1.43618   1.44734   1.45761   1.46000   1.48216
 Alpha virt. eigenvalues --    1.49415   1.49919   1.51860   1.52180   1.52692
 Alpha virt. eigenvalues --    1.53811   1.54267   1.56438   1.57325   1.57466
 Alpha virt. eigenvalues --    1.58681   1.58966   1.60260   1.60854   1.62446
 Alpha virt. eigenvalues --    1.64113   1.64407   1.65165   1.65319   1.66347
 Alpha virt. eigenvalues --    1.66950   1.67343   1.67700   1.68611   1.68923
 Alpha virt. eigenvalues --    1.70504   1.70574   1.71277   1.71590   1.71947
 Alpha virt. eigenvalues --    1.72245   1.72381   1.73352   1.73846   1.73944
 Alpha virt. eigenvalues --    1.74359   1.75385   1.75921   1.76475   1.76875
 Alpha virt. eigenvalues --    1.77727   1.77903   1.78325   1.79192   1.79732
 Alpha virt. eigenvalues --    1.80586   1.81562   1.82036   1.82758   1.83484
 Alpha virt. eigenvalues --    1.83773   1.84290   1.84830   1.85399   1.85748
 Alpha virt. eigenvalues --    1.86386   1.87155   1.87605   1.88246   1.88900
 Alpha virt. eigenvalues --    1.89383   1.89668   1.90102   1.91085   1.92070
 Alpha virt. eigenvalues --    1.92743   1.92995   1.93468   1.93888   1.94504
 Alpha virt. eigenvalues --    1.94678   1.94832   1.95900   1.96619   1.97157
 Alpha virt. eigenvalues --    1.97362   1.97469   1.98346   1.98492   1.98926
 Alpha virt. eigenvalues --    2.00063   2.00867   2.02182   2.03278   2.04553
 Alpha virt. eigenvalues --    2.04824   2.05277   2.06206   2.06302   2.06891
 Alpha virt. eigenvalues --    2.07386   2.08417   2.09917   2.10370   2.10557
 Alpha virt. eigenvalues --    2.12125   2.13123   2.13700   2.14237   2.15283
 Alpha virt. eigenvalues --    2.15603   2.16633   2.17106   2.18035   2.18721
 Alpha virt. eigenvalues --    2.19192   2.19602   2.19709   2.21629   2.22146
 Alpha virt. eigenvalues --    2.22823   2.23683   2.24392   2.24812   2.25727
 Alpha virt. eigenvalues --    2.26249   2.28337   2.29302   2.30518   2.30541
 Alpha virt. eigenvalues --    2.31836   2.32343   2.33585   2.34608   2.34999
 Alpha virt. eigenvalues --    2.36207   2.37748   2.38338   2.39233   2.40472
 Alpha virt. eigenvalues --    2.40643   2.41331   2.42017   2.43203   2.43389
 Alpha virt. eigenvalues --    2.45261   2.45563   2.46328   2.46935   2.46974
 Alpha virt. eigenvalues --    2.49197   2.49415   2.50310   2.50614   2.51224
 Alpha virt. eigenvalues --    2.52398   2.53582   2.53915   2.54903   2.55408
 Alpha virt. eigenvalues --    2.56480   2.57755   2.57845   2.59038   2.60237
 Alpha virt. eigenvalues --    2.60447   2.61491   2.61783   2.63882   2.64750
 Alpha virt. eigenvalues --    2.65290   2.66316   2.66773   2.67404   2.68143
 Alpha virt. eigenvalues --    2.69243   2.69573   2.70771   2.75273   2.76403
 Alpha virt. eigenvalues --    2.78360   2.80088   2.81406   2.84840   2.87903
 Alpha virt. eigenvalues --    2.88434   2.89481   2.92965   2.94054   2.94800
 Alpha virt. eigenvalues --    2.95847   2.97003   2.97278   2.97667   2.98970
 Alpha virt. eigenvalues --    2.99562   3.05074   3.07414   3.10593   3.12730
 Alpha virt. eigenvalues --    3.32906   3.68518   3.72621   3.77358   3.81168
 Alpha virt. eigenvalues --    3.88184   3.93166   3.95372   3.97362   3.99004
 Alpha virt. eigenvalues --    4.01097   4.01490   4.04068   4.05686   4.07161
 Alpha virt. eigenvalues --    4.08661   4.10437   4.13879   4.16188   4.17423
 Alpha virt. eigenvalues --    4.20247   4.22908   4.23511   4.24701   4.26119
 Alpha virt. eigenvalues --    4.27788   4.33076   4.33927   4.36425   4.38649
 Alpha virt. eigenvalues --    4.43641   4.46457   4.47994   4.50312   4.53819
 Alpha virt. eigenvalues --    4.57744   4.61025   4.63407   4.64874   4.68230
          Condensed to atoms (all electrons):
 Mulliken charges:
               1
     1  N   -0.796382
     2  C   -0.090534
     3  C    0.666258
     4  O   -0.521503
     5  C   -0.410627
     6  C    0.141245
     7  C   -0.187864
     8  C   -0.199740
     9  C   -0.128002
    10  C   -0.134233
    11  C   -0.126436
    12  H    0.385887
    13  H    0.198707
    14  H    0.157370
    15  H    0.238458
    16  H    0.127099
    17  H    0.169188
    18  H    0.150537
    19  H    0.136258
    20  H    0.149312
    21  H    0.426674
    22  H    0.462222
    23  N   -0.656333
    24  C   -0.015009
    25  C    0.617329
    26  O   -0.508344
    27  C   -0.308492
    28  C   -0.077583
    29  C   -0.462637
    30  C   -0.445816
    31  H    0.344497
    32  H    0.198849
    33  H    0.146477
    34  H    0.140383
    35  H    0.147323
    36  H    0.178656
    37  H    0.135531
    38  H    0.154293
    39  H    0.145235
    40  H    0.140509
    41  H    0.157306
    42  N   -0.605523
    43  C   -0.062616
    44  C    0.613513
    45  O   -0.572795
    46  C   -0.376867
    47  C    0.628649
    48  N   -0.738485
    49  O   -0.531198
    50  H    0.346199
    51  H    0.215244
    52  H    0.187544
    53  H    0.187478
    54  H    0.359066
    55  H    0.354124
    56  N   -0.624250
    57  C    0.012153
    58  C    0.577956
    59  O   -0.627217
    60  C   -0.270919
    61  C   -0.282147
    62  C   -0.164719
    63  N   -0.601891
    64  C    0.780533
    65  N   -0.757548
    66  N   -0.780841
    67  O   -0.576503
    68  H    0.393970
    69  H    0.143271
    70  H    0.182051
    71  H    0.154157
    72  H    0.146093
    73  H    0.167292
    74  H    0.156907
    75  H    0.193976
    76  H    0.391371
    77  H    0.374767
    78  H    0.380356
    79  H    0.360702
    80  H    0.420077
 Sum of Mulliken charges =   1.00000
 Mulliken charges with hydrogens summed into heavy atoms:
               1
     1  N    0.478402
     2  C    0.108173
     3  C    0.666258
     4  O   -0.521503
     5  C   -0.014799
     6  C    0.141245
     7  C   -0.060766
     8  C   -0.030552
     9  C    0.022535
    10  C    0.002024
    11  C    0.022876
    23  N   -0.311836
    24  C    0.183841
    25  C    0.617329
    26  O   -0.508344
    27  C   -0.021632
    28  C    0.069740
    29  C    0.005843
    30  C   -0.002766
    42  N   -0.259324
    43  C    0.152628
    44  C    0.613513
    45  O   -0.572795
    46  C   -0.001845
    47  C    0.628649
    48  N   -0.025295
    49  O   -0.531198
    56  N   -0.230280
    57  C    0.155425
    58  C    0.577956
    59  O   -0.627217
    60  C    0.065289
    61  C    0.031237
    62  C    0.186164
    63  N   -0.210520
    64  C    0.780533
    65  N   -0.002424
    66  N   -0.000062
    67  O   -0.576503
 Electronic spatial extent (au):  <R**2>=         218881.3161
 Charge=              1.0000 electrons
 Dipole moment (field-independent basis, Debye):
    X=             -6.7585    Y=             60.8110    Z=            -43.8652  Tot=             75.2849
 Quadrupole moment (field-independent basis, Debye-Ang):
   XX=           -140.1755   YY=            542.3019   ZZ=            281.8373
   XY=            -65.5282   XZ=             46.1920   YZ=           -566.0736
 Traceless Quadrupole moment (field-independent basis, Debye-Ang):
   XX=           -368.1634   YY=            314.3140   ZZ=             53.8494
   XY=            -65.5282   XZ=             46.1920   YZ=           -566.0736
 Octapole moment (field-independent basis, Debye-Ang**2):
  XXX=            954.1295  YYY=           2056.9384  ZZZ=          -1623.9681  XYY=            -43.0429
  XXY=          -1758.3420  XXZ=            921.3377  XZZ=            187.5976  YZZ=           3952.3347
  YYZ=          -5734.8260  XYZ=            469.9075
 Hexadecapole moment (field-independent basis, Debye-Ang**3):
 XXXX=         -10993.7539 YYYY=         -57448.9587 ZZZZ=           2448.3203 XXXY=           9588.8489
 XXXZ=          -4891.6618 YYYX=          11018.5728 YYYZ=         -39657.9677 ZZZX=          -8016.2807
 ZZZY=         -25695.6061 XXYY=         -25594.2595 XXZZ=         -10567.9048 YYZZ=          40675.9515
 XXYZ=          12451.9870 YYXZ=           1194.5381 ZZXY=           1485.9892
 N-N= 4.901009485802D+03 E-N=-1.412353708469D+04  KE= 1.849279488472D+03
 Unable to Open any file for archive entry.
 1\1\GINC-LAC-257\SP\RB3LYP\6-31G(d)\C25H41N8O6(1+)\KENGMITH\11-Jun-202
 2\0\\# B3LYP/6-31G* empiricaldispersion=gd3 guess=read geom=check nosy
 mm integral(ultrafinegrid)\\Candidate Structure: Conf:981 Charge calc 
 in gas phase\\1,1\N,0,0.0647483966,11.4272952482,-6.5307894542\C,0,-0.
 6119632048,11.5447602973,-5.1948208045\C,0,-1.5780360393,10.339001339,
 -5.1190221865\O,0,-1.4854469491,9.4361761862,-5.9478499721\C,0,-1.2340
 926739,12.9426967708,-5.0260123673\C,0,-0.1837162578,14.0306825041,-5.
 1280553617\C,0,0.7266741149,14.2373524677,-4.0817182173\C,0,-0.0808173
 386,14.8159072742,-6.2830593303\C,0,1.7218667803,15.2086962821,-4.1851
 08202\C,0,0.9157266705,15.7895848588,-6.3865441973\C,0,1.8187172607,15
 .9877962892,-5.3412627426\H,0,1.0746668301,11.5536586806,-6.4648260719
 \H,0,0.1581253271,11.3926326324,-4.4302185663\H,0,-1.7148620485,12.987
 6174923,-4.0410525489\H,0,-2.0141060713,13.064685148,-5.7811564137\H,0
 ,0.6480831362,13.643193803,-3.1725312893\H,0,-0.7761656336,14.65257350
 94,-7.1006316463\H,0,2.4148303544,15.363732187,-3.3630192771\H,0,0.982
 5925663,16.3982676973,-7.2843955773\H,0,2.590129149,16.7482914997,-5.4
 216773285\H,0,-0.1536323739,10.4843791974,-6.9096789244\H,0,-0.3030570
 441,12.1098480606,-7.2757009237\N,0,-2.462100379,10.3196298177,-4.0983
 188261\C,0,-3.3779807187,9.1845694177,-3.8909420726\C,0,-4.1996682531,
 8.8846327888,-5.1609838961\O,0,-4.4653345009,7.738280267,-5.4848038265
 \C,0,-4.2743696955,9.4818069097,-2.6769322072\C,0,-5.3343099845,8.4063
 152582,-2.3670348301\C,0,-4.7136028193,7.0164815304,-2.1650871326\C,0,
 -6.1492455804,8.8356638611,-1.1388336884\H,0,-2.4888532229,11.08378492
 85,-3.4372857125\H,0,-2.7834595013,8.2837828484,-3.7210864629\H,0,-3.6
 263536992,9.6077316383,-1.7967092533\H,0,-4.7799166722,10.4438261273,-
 2.8455909961\H,0,-6.0154569478,8.3485464922,-3.2268453799\H,0,-4.27379
 75294,6.6380498229,-3.0922636374\H,0,-3.9382449079,7.0413589639,-1.387
 5793835\H,0,-5.4785274463,6.3003184961,-1.845707198\H,0,-5.5140288493,
 8.8859419719,-0.2450460585\H,0,-6.608556673,9.8215704069,-1.2808356867
 \H,0,-6.9508926933,8.1177607841,-0.9351412595\N,0,-4.6279187172,9.9906
 088635,-5.8482090733\C,0,-4.8138516858,9.9029988327,-7.2874861181\C,0,
 -3.8967122053,10.9956259691,-7.8929045806\O,0,-3.342014258,11.82362027
 43,-7.1571605545\C,0,-6.3016469494,10.0251409287,-7.6884231327\C,0,-6.
 6213268696,9.372067922,-9.0316195664\N,0,-7.9079060837,8.9825667105,-9
 .1981159283\O,0,-5.7831432557,9.2217361205,-9.9242330936\H,0,-4.188551
 4127,10.8711170025,-5.5925823959\H,0,-4.451914505,8.9231432513,-7.6161
 545576\H,0,-6.8899699664,9.5515951023,-6.8958879886\H,0,-6.6125605976,
 11.0775982203,-7.7265055045\H,0,-8.1591487882,8.5177413909,-10.0604944
 451\H,0,-8.5789671744,8.9888287843,-8.4445420631\N,0,-3.7219843798,10.
 9525784021,-9.2213248476\C,0,-2.7600419314,11.8011699601,-9.926770736\
 C,0,-1.4000144019,11.7384874375,-9.1792959924\O,0,-0.979682062,12.7895
 426896,-8.5776083405\C,0,-3.2866181286,13.224460244,-10.1919918864\C,0
 ,-2.6935196885,13.9257049855,-11.4335013905\C,0,-1.2821000534,14.52529
 56783,-11.3131193958\N,0,-0.2121205216,13.5368509819,-11.0931209399\C,
 0,0.2218681022,12.641849942,-11.9834272863\N,0,0.1808532444,12.9213294
 476,-13.3020040062\N,0,0.7151781193,11.4703783778,-11.5592694266\O,0,-
 0.7518855198,10.669973331,-9.2573303449\H,0,-4.2622510963,10.249516722
 2,-9.7324867912\H,0,-2.591439678,11.2931043048,-10.8831031231\H,0,-3.1
 406284153,13.8283167537,-9.2913626502\H,0,-4.3667054011,13.1407593919,
 -10.3566529315\H,0,-2.7151338826,13.2389033539,-12.2918881354\H,0,-3.3
 518249247,14.7621477536,-11.7004520134\H,0,-1.0523591901,15.125527525,
 -12.2005274695\H,0,-1.2285179171,15.2023454652,-10.4571516204\H,0,-0.1
 091566946,13.2869811142,-10.1032236497\H,0,0.4137339661,12.2219541322,
 -13.9909801455\H,0,0.0828652622,13.8725852897,-13.6239798759\H,0,1.185
 1570711,10.8519308718,-12.2051655547\H,0,0.3733486836,11.0690235849,-1
 0.670826023\\Version=ES64L-G16RevC.01\HF=-1866.745778\RMSD=3.943e-09\D
 ipole=1.9902927,2.4086668,-3.7665671\Quadrupole=-273.7204706,233.68476
 08,40.0357098,-48.7186166,34.3426272,-420.8618522\PG=C01 [X(C25H41N8O6
 )]\\@
 The archive entry for this job was punched.


 IF I HAVE SEEN FARTHER, IT IS BY STANDING ON THE
 SHOULDERS OF GIANTS. -- SIR ISAAC NEWTON
 Job cpu time:       0 days  0 hours  2 minutes 16.4 seconds.
 Elapsed time:       0 days  0 hours  0 minutes 35.0 seconds.
 File lengths (MBytes):  RWF=   4256 Int=      0 D2E=      0 Chk=     48 Scr=     16
 Normal termination of Gaussian 16 at Sat Jun 11 20:55:59 2022.
