 Entering Gaussian System, Link 0=/opt/software/Gaussian/g16-AVX-C.01/g16/g16
 Input=charge-conf-121.com
 Output=charge-conf-121.log
 Initial command:
 /opt/software/Gaussian/g16-AVX-C.01/g16/l1.exe "/mnt/gs18/scratch/users/kengmith/Gau-6625.inp" -scrdir="/mnt/gs18/scratch/users/kengmith/"
 Entering Link 1 = /opt/software/Gaussian/g16-AVX-C.01/g16/l1.exe PID=      6650.
  
 Copyright (c) 1988-2019, Gaussian, Inc.  All Rights Reserved.
  
 This is part of the Gaussian(R) 16 program.  It is based on
 the Gaussian(R) 09 system (copyright 2009, Gaussian, Inc.),
 the Gaussian(R) 03 system (copyright 2003, Gaussian, Inc.),
 the Gaussian(R) 98 system (copyright 1998, Gaussian, Inc.),
 the Gaussian(R) 94 system (copyright 1995, Gaussian, Inc.),
 the Gaussian 92(TM) system (copyright 1992, Gaussian, Inc.),
 the Gaussian 90(TM) system (copyright 1990, Gaussian, Inc.),
 the Gaussian 88(TM) system (copyright 1988, Gaussian, Inc.),
 the Gaussian 86(TM) system (copyright 1986, Carnegie Mellon
 University), and the Gaussian 82(TM) system (copyright 1983,
 Carnegie Mellon University). Gaussian is a federally registered
 trademark of Gaussian, Inc.
  
 This software contains proprietary and confidential information,
 including trade secrets, belonging to Gaussian, Inc.
  
 This software is provided under written license and may be
 used, copied, transmitted, or stored only in accord with that
 written license.
  
 The following legend is applicable only to US Government
 contracts under FAR:
  
                    RESTRICTED RIGHTS LEGEND
  
 Use, reproduction and disclosure by the US Government is
 subject to restrictions as set forth in subparagraphs (a)
 and (c) of the Commercial Computer Software - Restricted
 Rights clause in FAR 52.227-19.
  
 Gaussian, Inc.
 340 Quinnipiac St., Bldg. 40, Wallingford CT 06492
  
  
 ---------------------------------------------------------------
 Warning -- This program may not be used in any manner that
 competes with the business of Gaussian, Inc. or will provide
 assistance to any competitor of Gaussian, Inc.  The licensee
 of this program is prohibited from giving any competitor of
 Gaussian, Inc. access to this program.  By using this program,
 the user acknowledges that Gaussian, Inc. is engaged in the
 business of creating and licensing software in the field of
 computational chemistry and represents and warrants to the
 licensee that it is not a competitor of Gaussian, Inc. and that
 it will not use this program in any manner prohibited above.
 ---------------------------------------------------------------
  

 Cite this work as:
 Gaussian 16, Revision C.01,
 M. J. Frisch, G. W. Trucks, H. B. Schlegel, G. E. Scuseria, 
 M. A. Robb, J. R. Cheeseman, G. Scalmani, V. Barone, 
 G. A. Petersson, H. Nakatsuji, X. Li, M. Caricato, A. V. Marenich, 
 J. Bloino, B. G. Janesko, R. Gomperts, B. Mennucci, H. P. Hratchian, 
 J. V. Ortiz, A. F. Izmaylov, J. L. Sonnenberg, D. Williams-Young, 
 F. Ding, F. Lipparini, F. Egidi, J. Goings, B. Peng, A. Petrone, 
 T. Henderson, D. Ranasinghe, V. G. Zakrzewski, J. Gao, N. Rega, 
 G. Zheng, W. Liang, M. Hada, M. Ehara, K. Toyota, R. Fukuda, 
 J. Hasegawa, M. Ishida, T. Nakajima, Y. Honda, O. Kitao, H. Nakai, 
 T. Vreven, K. Throssell, J. A. Montgomery, Jr., J. E. Peralta, 
 F. Ogliaro, M. J. Bearpark, J. J. Heyd, E. N. Brothers, K. N. Kudin, 
 V. N. Staroverov, T. A. Keith, R. Kobayashi, J. Normand, 
 K. Raghavachari, A. P. Rendell, J. C. Burant, S. S. Iyengar, 
 J. Tomasi, M. Cossi, J. M. Millam, M. Klene, C. Adamo, R. Cammi, 
 J. W. Ochterski, R. L. Martin, K. Morokuma, O. Farkas, 
 J. B. Foresman, and D. J. Fox, Gaussian, Inc., Wallingford CT, 2019.
 
 ******************************************
 Gaussian 16:  ES64L-G16RevC.01  3-Jul-2019
                11-Jun-2022 
 ******************************************
 %mem=8gb
 %nproc=4
 Will use up to    4 processors via shared memory.
 %chk=conf-121.chk
 ----------------------------------------------------------------------
 # B3LYP/6-31G* empiricaldispersion=gd3 guess=read geom=check nosymm in
 tegral(ultrafinegrid)
 ----------------------------------------------------------------------
 1/29=2,38=1,172=1/1;
 2/12=2,15=1,40=1/2;
 3/5=1,6=6,7=1,11=2,14=-4,25=1,30=1,74=-5,75=-5,116=-2,124=31/1,2,3;
 4/5=1/1;
 5/5=2,38=6/2;
 6/7=2,8=2,9=2,10=2,28=1/1;
 99/5=1,9=1/99;
 ------------------------------------------------------
 Candidate Structure: Conf:121 Charge calc in gas phase
 ------------------------------------------------------
 Structure from the checkpoint file:  "conf-121.chk"
 Charge =  1 Multiplicity = 1
 Redundant internal coordinates found in file.  (old form).
 N,0,-1.9224619953,10.028774741,-8.5163977055
 C,0,-1.7850413158,8.8584015446,-7.5943201044
 C,0,-3.1593559325,8.7927943051,-6.8861001467
 O,0,-4.1641382032,9.0868187519,-7.5258290545
 C,0,-0.5463467715,9.0565410425,-6.6992997336
 C,0,0.7161057558,9.2869564722,-7.5053927398
 C,0,1.4982089704,8.2051868448,-7.9308875329
 C,0,1.0829567574,10.5871062188,-7.8836506886
 C,0,2.6307205451,8.4161144925,-8.7176037968
 C,0,2.2113130726,10.795297502,-8.6791171316
 C,0,2.9886684539,9.7129565837,-9.0943626852
 H,0,-1.1308595756,10.1767168437,-9.1502403162
 H,0,-1.6677618009,7.9627709719,-8.2134804736
 H,0,-0.4310956368,8.1591537741,-6.0798192999
 H,0,-0.7319833443,9.9071508673,-6.0340824667
 H,0,1.2257231969,7.1935007564,-7.6370010998
 H,0,0.4779604604,11.4370066457,-7.5779148472
 H,0,3.2343783231,7.5699896498,-9.0330602879
 H,0,2.4806869337,11.8066468988,-8.969464099
 H,0,3.8708567915,9.877016327,-9.7064718986
 H,0,-2.7991951222,10.0068328145,-9.0528428716
 H,0,-1.9881640747,10.8959749542,-7.9361376704
 N,0,-3.1899659424,8.466982723,-5.5723444728
 C,0,-4.4429284662,8.5647028257,-4.8125470156
 C,0,-5.0129182367,10.0011856914,-4.8289827912
 O,0,-6.2140450477,10.1988294189,-4.7536512483
 C,0,-4.2445135367,8.0771122688,-3.3706318045
 C,0,-3.7944728095,6.6099174174,-3.2171836031
 C,0,-3.6153538187,6.2824980507,-1.7275259166
 C,0,-4.7714796474,5.6304033518,-3.8815633505
 H,0,-2.3374357972,8.2450033226,-5.0783917014
 H,0,-5.2038992076,7.9670799701,-5.3188156001
 H,0,-3.5243776891,8.7399179042,-2.868530181
 H,0,-5.203737157,8.2165754456,-2.8577396742
 H,0,-2.8124170782,6.4895420778,-3.7029237425
 H,0,-4.5710346793,6.3666282322,-1.1954430323
 H,0,-3.2475722826,5.2596855126,-1.5925219272
 H,0,-2.903168393,6.9639248044,-1.2470807516
 H,0,-5.7806618411,5.7485995928,-3.4676896954
 H,0,-4.8332272505,5.776719939,-4.9655626034
 H,0,-4.4584150849,4.5954073278,-3.7070833126
 N,0,-4.0825822056,11.0074004869,-4.8876595145
 C,0,-4.4436600824,12.2979505492,-5.4456158879
 C,0,-3.3765771129,12.6259833547,-6.5207896876
 O,0,-2.3527908338,11.9113491324,-6.6103820927
 C,0,-4.5970642225,13.3780900786,-4.347172991
 C,0,-5.5311689246,14.5184024739,-4.7467088918
 N,0,-6.1490670083,15.1534965515,-3.7246216117
 O,0,-5.7037797644,14.8650516703,-5.9190844967
 H,0,-3.1291908174,10.7451026368,-5.1086795195
 H,0,-5.4121056535,12.1875659836,-5.9459480727
 H,0,-4.984045437,12.8738393281,-3.4564101017
 H,0,-3.621541307,13.8016327745,-4.0745799613
 H,0,-6.7971920582,15.8980921419,-3.9454113441
 H,0,-6.1134225605,14.8163367127,-2.7741453342
 N,0,-3.6450686145,13.6555147476,-7.3185139968
 C,0,-2.842631164,14.0878950529,-8.4709038578
 C,0,-2.2929732045,12.8501658931,-9.2446737552
 O,0,-1.0460831846,12.6436710674,-9.2538623695
 C,0,-1.7776230874,15.1350225728,-8.0952055956
 C,0,-1.422275072,16.1325688716,-9.2208529945
 C,0,-0.4756490594,15.6538640735,-10.3362594048
 N,0,-1.0058517307,14.5626059936,-11.169687226
 C,0,-2.0010139505,14.6623493522,-12.0533263713
 N,0,-2.2055060713,15.8207040246,-12.7167263755
 N,0,-2.7890120927,13.6052343326,-12.2870445831
 O,0,-3.1555092075,12.1736483442,-9.8701692061
 H,0,-4.4882255891,14.1902779885,-7.0774481127
 H,0,-3.5736099683,14.5468468093,-9.1467368591
 H,0,-0.8827473577,14.6143644357,-7.7392872352
 H,0,-2.1723273172,15.7235346476,-7.2587827119
 H,0,-2.3457062789,16.5151445113,-9.6787386009
 H,0,-0.9302137145,17.0007635282,-8.7643590288
 H,0,-0.1929538496,16.50103522,-10.9708214433
 H,0,0.4498117218,15.2635601238,-9.9059818397
 H,0,-0.8726010828,13.641117949,-10.7324153282
 H,0,-2.9978457407,15.932828121,-13.3313471661
 H,0,-1.4659710958,16.5032428096,-12.7918926259
 H,0,-3.4333566947,13.6121639667,-13.0649745813
 H,0,-2.9383484674,12.9031700389,-11.5401592787
 Recover connectivity data from disk.
                           ----------------------------
                           !    Current Parameters    !
                           ! (Angstroms and Degrees)  !
 --------------------------                            --------------------------
 ! Name  Definition              Value                                          !
 --------------------------------------------------------------------------------
 ! R1    R(1,2)                  1.4963                                         !
 ! R2    R(1,12)                 1.0248                                         !
 ! R3    R(1,21)                 1.0281                                         !
 ! R4    R(1,22)                 1.0455                                         !
 ! R5    R(2,3)                  1.5475                                         !
 ! R6    R(2,5)                  1.541                                          !
 ! R7    R(2,13)                 1.0951                                         !
 ! R8    R(3,4)                  1.2269                                         !
 ! R9    R(3,23)                 1.3539                                         !
 ! R10   R(5,6)                  1.5155                                         !
 ! R11   R(5,14)                 1.0965                                         !
 ! R12   R(5,15)                 1.0957                                         !
 ! R13   R(6,7)                  1.4011                                         !
 ! R14   R(6,8)                  1.4029                                         !
 ! R15   R(7,9)                  1.395                                          !
 ! R16   R(7,16)                 1.0882                                         !
 ! R17   R(8,10)                 1.3962                                         !
 ! R18   R(8,17)                 1.0871                                         !
 ! R19   R(9,11)                 1.3971                                         !
 ! R20   R(9,18)                 1.0862                                         !
 ! R21   R(10,11)                1.3958                                         !
 ! R22   R(10,19)                1.0861                                         !
 ! R23   R(11,20)                1.0862                                         !
 ! R24   R(23,24)                1.4686                                         !
 ! R25   R(23,31)                1.01                                           !
 ! R26   R(24,25)                1.5455                                         !
 ! R27   R(24,27)                1.535                                          !
 ! R28   R(24,32)                1.092                                          !
 ! R29   R(25,26)                1.2196                                         !
 ! R30   R(25,42)                1.3717                                         !
 ! R31   R(27,28)                1.5423                                         !
 ! R32   R(27,33)                1.1                                            !
 ! R33   R(27,34)                1.0966                                         !
 ! R34   R(28,29)                1.5357                                         !
 ! R35   R(28,30)                1.5347                                         !
 ! R36   R(28,35)                1.1022                                         !
 ! R37   R(29,36)                1.097                                          !
 ! R38   R(29,37)                1.0953                                         !
 ! R39   R(29,38)                1.0965                                         !
 ! R40   R(30,39)                1.0971                                         !
 ! R41   R(30,40)                1.0956                                         !
 ! R42   R(30,41)                1.0953                                         !
 ! R43   R(42,43)                1.4516                                         !
 ! R44   R(42,50)                1.0132                                         !
 ! R45   R(43,44)                1.5499                                         !
 ! R46   R(43,46)                1.5482                                         !
 ! R47   R(43,51)                1.0956                                         !
 ! R48   R(44,45)                1.2517                                         !
 ! R49   R(44,56)                1.3298                                         !
 ! R50   R(46,47)                1.5273                                         !
 ! R51   R(46,52)                1.0943                                         !
 ! R52   R(46,53)                1.0979                                         !
 ! R53   R(47,48)                1.3527                                         !
 ! R54   R(47,49)                1.2347                                         !
 ! R55   R(48,54)                1.0116                                         !
 ! R56   R(48,55)                1.0091                                         !
 ! R57   R(56,57)                1.4693                                         !
 ! R58   R(56,68)                1.0271                                         !
 ! R59   R(57,58)                1.5597                                         !
 ! R60   R(57,60)                1.5401                                         !
 ! R61   R(57,69)                1.0962                                         !
 ! R62   R(58,59)                1.2639                                         !
 ! R63   R(58,67)                1.2621                                         !
 ! R64   R(60,61)                1.5455                                         !
 ! R65   R(60,70)                1.0948                                         !
 ! R66   R(60,71)                1.0962                                         !
 ! R67   R(61,62)                1.5393                                         !
 ! R68   R(61,72)                1.0994                                         !
 ! R69   R(61,73)                1.0974                                         !
 ! R70   R(62,63)                1.4719                                         !
 ! R71   R(62,74)                1.0956                                         !
 ! R72   R(62,75)                1.0927                                         !
 ! R73   R(63,64)                1.3346                                         !
 ! R74   R(63,76)                1.0286                                         !
 ! R75   R(64,65)                1.3504                                         !
 ! R76   R(64,66)                1.3391                                         !
 ! R77   R(65,77)                1.009                                          !
 ! R78   R(65,78)                1.0092                                         !
 ! R79   R(66,79)                1.0102                                         !
 ! R80   R(66,80)                1.0359                                         !
 ! A1    A(2,1,12)             115.0312                                         !
 ! A2    A(2,1,21)             112.531                                          !
 ! A3    A(2,1,22)             108.2126                                         !
 ! A4    A(12,1,21)            109.8206                                         !
 ! A5    A(12,1,22)            105.7874                                         !
 ! A6    A(21,1,22)            104.6975                                         !
 ! A7    A(1,2,3)              103.5109                                         !
 ! A8    A(1,2,5)              109.3397                                         !
 ! A9    A(1,2,13)             107.5252                                         !
 ! A10   A(3,2,5)              116.9699                                         !
 ! A11   A(3,2,13)             108.6143                                         !
 ! A12   A(5,2,13)             110.3315                                         !
 ! A13   A(2,3,4)              118.5895                                         !
 ! A14   A(2,3,23)             118.3189                                         !
 ! A15   A(4,3,23)             123.0323                                         !
 ! A16   A(2,5,6)              112.3481                                         !
 ! A17   A(2,5,14)             107.9018                                         !
 ! A18   A(2,5,15)             108.4365                                         !
 ! A19   A(6,5,14)             109.7171                                         !
 ! A20   A(6,5,15)             110.2453                                         !
 ! A21   A(14,5,15)            108.0688                                         !
 ! A22   A(5,6,7)              120.6085                                         !
 ! A23   A(5,6,8)              120.1435                                         !
 ! A24   A(7,6,8)              119.1904                                         !
 ! A25   A(6,7,9)              120.5118                                         !
 ! A26   A(6,7,16)             119.738                                          !
 ! A27   A(9,7,16)             119.7473                                         !
 ! A28   A(6,8,10)             120.2091                                         !
 ! A29   A(6,8,17)             120.2112                                         !
 ! A30   A(10,8,17)            119.5655                                         !
 ! A31   A(7,9,11)             120.0291                                         !
 ! A32   A(7,9,18)             119.8138                                         !
 ! A33   A(11,9,18)            120.1569                                         !
 ! A34   A(8,10,11)            120.2633                                         !
 ! A35   A(8,10,19)            119.4452                                         !
 ! A36   A(11,10,19)           120.2912                                         !
 ! A37   A(9,11,10)            119.7937                                         !
 ! A38   A(9,11,20)            120.0168                                         !
 ! A39   A(10,11,20)           120.1892                                         !
 ! A40   A(3,23,24)            120.3514                                         !
 ! A41   A(3,23,31)            120.5556                                         !
 ! A42   A(24,23,31)           118.8005                                         !
 ! A43   A(23,24,25)           111.777                                          !
 ! A44   A(23,24,27)           110.7673                                         !
 ! A45   A(23,24,32)           108.5576                                         !
 ! A46   A(25,24,27)           110.6647                                         !
 ! A47   A(25,24,32)           104.2836                                         !
 ! A48   A(27,24,32)           110.5929                                         !
 ! A49   A(24,25,26)           120.8757                                         !
 ! A50   A(24,25,42)           115.6031                                         !
 ! A51   A(26,25,42)           123.4866                                         !
 ! A52   A(24,27,28)           115.6805                                         !
 ! A53   A(24,27,33)           108.7837                                         !
 ! A54   A(24,27,34)           106.611                                          !
 ! A55   A(28,27,33)           109.6794                                         !
 ! A56   A(28,27,34)           109.2493                                         !
 ! A57   A(33,27,34)           106.4108                                         !
 ! A58   A(27,28,29)           109.4731                                         !
 ! A59   A(27,28,30)           112.2296                                         !
 ! A60   A(27,28,35)           108.6649                                         !
 ! A61   A(29,28,30)           110.9833                                         !
 ! A62   A(29,28,35)           107.4743                                         !
 ! A63   A(30,28,35)           107.8618                                         !
 ! A64   A(28,29,36)           110.6412                                         !
 ! A65   A(28,29,37)           110.967                                          !
 ! A66   A(28,29,38)           111.6093                                         !
 ! A67   A(36,29,37)           107.719                                          !
 ! A68   A(36,29,38)           107.7961                                         !
 ! A69   A(37,29,38)           107.9524                                         !
 ! A70   A(28,30,39)           110.7018                                         !
 ! A71   A(28,30,40)           112.2697                                         !
 ! A72   A(28,30,41)           110.6207                                         !
 ! A73   A(39,30,40)           107.8795                                         !
 ! A74   A(39,30,41)           107.7353                                         !
 ! A75   A(40,30,41)           107.4532                                         !
 ! A76   A(25,42,43)           119.9941                                         !
 ! A77   A(25,42,50)           117.2347                                         !
 ! A78   A(43,42,50)           112.356                                          !
 ! A79   A(42,43,44)           106.4717                                         !
 ! A80   A(42,43,46)           111.8518                                         !
 ! A81   A(42,43,51)           107.8076                                         !
 ! A82   A(44,43,46)           114.3772                                         !
 ! A83   A(44,43,51)           108.2457                                         !
 ! A84   A(46,43,51)           107.8613                                         !
 ! A85   A(43,44,45)           119.4665                                         !
 ! A86   A(43,44,56)           116.1666                                         !
 ! A87   A(45,44,56)           124.3463                                         !
 ! A88   A(43,46,47)           113.3233                                         !
 ! A89   A(43,46,52)           106.9234                                         !
 ! A90   A(43,46,53)           110.9331                                         !
 ! A91   A(47,46,52)           109.9201                                         !
 ! A92   A(47,46,53)           108.6854                                         !
 ! A93   A(52,46,53)           106.8509                                         !
 ! A94   A(46,47,48)           115.6115                                         !
 ! A95   A(46,47,49)           122.9249                                         !
 ! A96   A(48,47,49)           121.4521                                         !
 ! A97   A(47,48,54)           118.2519                                         !
 ! A98   A(47,48,55)           122.5932                                         !
 ! A99   A(54,48,55)           118.3038                                         !
 ! A100  A(44,56,57)           126.0189                                         !
 ! A101  A(44,56,68)           115.3422                                         !
 ! A102  A(57,56,68)           118.6317                                         !
 ! A103  A(56,57,58)           110.3664                                         !
 ! A104  A(56,57,60)           112.7318                                         !
 ! A105  A(56,57,69)           104.038                                          !
 ! A106  A(58,57,60)           114.6369                                         !
 ! A107  A(58,57,69)           105.1516                                         !
 ! A108  A(60,57,69)           109.0781                                         !
 ! A109  A(57,58,59)           118.7449                                         !
 ! A110  A(57,58,67)           115.492                                          !
 ! A111  A(59,58,67)           125.6644                                         !
 ! A112  A(57,60,61)           114.8463                                         !
 ! A113  A(57,60,70)           108.7357                                         !
 ! A114  A(57,60,71)           107.587                                          !
 ! A115  A(61,60,70)           110.8435                                         !
 ! A116  A(61,60,71)           106.9778                                         !
 ! A117  A(70,60,71)           107.5518                                         !
 ! A118  A(60,61,62)           117.934                                          !
 ! A119  A(60,61,72)           109.5621                                         !
 ! A120  A(60,61,73)           108.1059                                         !
 ! A121  A(62,61,72)           108.842                                          !
 ! A122  A(62,61,73)           105.7666                                         !
 ! A123  A(72,61,73)           105.9357                                         !
 ! A124  A(61,62,63)           114.7928                                         !
 ! A125  A(61,62,74)           109.7498                                         !
 ! A126  A(61,62,75)           110.2798                                         !
 ! A127  A(63,62,74)           109.7719                                         !
 ! A128  A(63,62,75)           105.2618                                         !
 ! A129  A(74,62,75)           106.6033                                         !
 ! A130  A(62,63,64)           126.0213                                         !
 ! A131  A(62,63,76)           112.1352                                         !
 ! A132  A(64,63,76)           116.4238                                         !
 ! A133  A(63,64,65)           120.1508                                         !
 ! A134  A(63,64,66)           119.6943                                         !
 ! A135  A(65,64,66)           120.1526                                         !
 ! A136  A(64,65,77)           120.894                                          !
 ! A137  A(64,65,78)           120.3816                                         !
 ! A138  A(77,65,78)           117.0598                                         !
 ! A139  A(64,66,79)           120.2896                                         !
 ! A140  A(64,66,80)           119.6066                                         !
 ! A141  A(79,66,80)           117.9018                                         !
 ! D1    D(12,1,2,3)          -174.0945                                         !
 ! D2    D(12,1,2,5)            60.5494                                         !
 ! D3    D(12,1,2,13)          -59.2513                                         !
 ! D4    D(21,1,2,3)           -47.3054                                         !
 ! D5    D(21,1,2,5)          -172.6616                                         !
 ! D6    D(21,1,2,13)           67.5378                                         !
 ! D7    D(22,1,2,3)            67.8873                                         !
 ! D8    D(22,1,2,5)           -57.4688                                         !
 ! D9    D(22,1,2,13)         -177.2695                                         !
 ! D10   D(1,2,3,4)             35.4174                                         !
 ! D11   D(1,2,3,23)          -141.8686                                         !
 ! D12   D(5,2,3,4)            155.7107                                         !
 ! D13   D(5,2,3,23)           -21.5754                                         !
 ! D14   D(13,2,3,4)           -78.6443                                         !
 ! D15   D(13,2,3,23)          104.0696                                         !
 ! D16   D(1,2,5,6)            -55.3549                                         !
 ! D17   D(1,2,5,14)          -176.4282                                         !
 ! D18   D(1,2,5,15)            66.7474                                         !
 ! D19   D(3,2,5,6)           -172.5109                                         !
 ! D20   D(3,2,5,14)            66.4159                                         !
 ! D21   D(3,2,5,15)           -50.4085                                         !
 ! D22   D(13,2,5,6)            62.7044                                         !
 ! D23   D(13,2,5,14)          -58.3689                                         !
 ! D24   D(13,2,5,15)         -175.1932                                         !
 ! D25   D(2,3,23,24)          171.837                                          !
 ! D26   D(2,3,23,31)           -1.8775                                         !
 ! D27   D(4,3,23,24)           -5.3204                                         !
 ! D28   D(4,3,23,31)         -179.0349                                         !
 ! D29   D(2,5,6,7)            -88.5205                                         !
 ! D30   D(2,5,6,8)             88.6975                                         !
 ! D31   D(14,5,6,7)            31.5051                                         !
 ! D32   D(14,5,6,8)          -151.2769                                         !
 ! D33   D(15,5,6,7)           150.4098                                         !
 ! D34   D(15,5,6,8)           -32.3722                                         !
 ! D35   D(5,6,7,9)            177.4448                                         !
 ! D36   D(5,6,7,16)            -3.1746                                         !
 ! D37   D(8,6,7,9)              0.2006                                         !
 ! D38   D(8,6,7,16)           179.5812                                         !
 ! D39   D(5,6,8,10)          -176.9935                                         !
 ! D40   D(5,6,8,17)             1.6316                                         !
 ! D41   D(7,6,8,10)             0.2638                                         !
 ! D42   D(7,6,8,17)           178.8889                                         !
 ! D43   D(6,7,9,11)            -0.3925                                         !
 ! D44   D(6,7,9,18)           179.4035                                         !
 ! D45   D(16,7,9,11)         -179.773                                          !
 ! D46   D(16,7,9,18)            0.023                                          !
 ! D47   D(6,8,10,11)           -0.5383                                         !
 ! D48   D(6,8,10,19)          179.6468                                         !
 ! D49   D(17,8,10,11)        -179.1723                                         !
 ! D50   D(17,8,10,19)           1.0128                                         !
 ! D51   D(7,9,11,10)            0.1184                                         !
 ! D52   D(7,9,11,20)          179.9653                                         !
 ! D53   D(18,9,11,10)        -179.6769                                         !
 ! D54   D(18,9,11,20)           0.17                                           !
 ! D55   D(8,10,11,9)            0.3458                                         !
 ! D56   D(8,10,11,20)        -179.5008                                         !
 ! D57   D(19,10,11,9)        -179.841                                          !
 ! D58   D(19,10,11,20)          0.3124                                         !
 ! D59   D(3,23,24,25)         -58.968                                          !
 ! D60   D(3,23,24,27)         177.1199                                         !
 ! D61   D(3,23,24,32)          55.5119                                         !
 ! D62   D(31,23,24,25)        114.8557                                         !
 ! D63   D(31,23,24,27)         -9.0564                                         !
 ! D64   D(31,23,24,32)       -130.6644                                         !
 ! D65   D(23,24,25,26)        150.3395                                         !
 ! D66   D(23,24,25,42)        -31.7262                                         !
 ! D67   D(27,24,25,26)        -85.6907                                         !
 ! D68   D(27,24,25,42)         92.2435                                         !
 ! D69   D(32,24,25,26)         33.2514                                         !
 ! D70   D(32,24,25,42)       -148.8143                                         !
 ! D71   D(23,24,27,28)        -60.5405                                         !
 ! D72   D(23,24,27,33)         63.3929                                         !
 ! D73   D(23,24,27,34)        177.7784                                         !
 ! D74   D(25,24,27,28)        174.9125                                         !
 ! D75   D(25,24,27,33)        -61.1541                                         !
 ! D76   D(25,24,27,34)         53.2315                                         !
 ! D77   D(32,24,27,28)         59.8631                                         !
 ! D78   D(32,24,27,33)       -176.2035                                         !
 ! D79   D(32,24,27,34)        -61.8179                                         !
 ! D80   D(24,25,42,43)        154.698                                          !
 ! D81   D(24,25,42,50)         12.4167                                         !
 ! D82   D(26,25,42,43)        -27.4278                                         !
 ! D83   D(26,25,42,50)       -169.7092                                         !
 ! D84   D(24,27,28,29)        178.9564                                         !
 ! D85   D(24,27,28,30)        -57.3446                                         !
 ! D86   D(24,27,28,35)         61.8516                                         !
 ! D87   D(33,27,28,29)         55.4916                                         !
 ! D88   D(33,27,28,30)        179.1906                                         !
 ! D89   D(33,27,28,35)        -61.6132                                         !
 ! D90   D(34,27,28,29)        -60.7851                                         !
 ! D91   D(34,27,28,30)         62.9138                                         !
 ! D92   D(34,27,28,35)       -177.8899                                         !
 ! D93   D(27,28,29,36)         63.3012                                         !
 ! D94   D(27,28,29,37)       -177.1846                                         !
 ! D95   D(27,28,29,38)        -56.7319                                         !
 ! D96   D(30,28,29,36)        -61.1279                                         !
 ! D97   D(30,28,29,37)         58.3863                                         !
 ! D98   D(30,28,29,38)        178.839                                          !
 ! D99   D(35,28,29,36)       -178.8471                                         !
 ! D100  D(35,28,29,37)        -59.3329                                         !
 ! D101  D(35,28,29,38)         61.1198                                         !
 ! D102  D(27,28,30,39)        -57.3554                                         !
 ! D103  D(27,28,30,40)         63.2696                                         !
 ! D104  D(27,28,30,41)       -176.7051                                         !
 ! D105  D(29,28,30,39)         65.4956                                         !
 ! D106  D(29,28,30,40)       -173.8794                                         !
 ! D107  D(29,28,30,41)        -53.8541                                         !
 ! D108  D(35,28,30,39)       -177.0214                                         !
 ! D109  D(35,28,30,40)        -56.3963                                         !
 ! D110  D(35,28,30,41)         63.6289                                         !
 ! D111  D(25,42,43,44)       -127.897                                          !
 ! D112  D(25,42,43,46)        106.4907                                         !
 ! D113  D(25,42,43,51)        -11.9272                                         !
 ! D114  D(50,42,43,44)         16.0758                                         !
 ! D115  D(50,42,43,46)       -109.5365                                         !
 ! D116  D(50,42,43,51)        132.0455                                         !
 ! D117  D(42,43,44,45)         -9.7024                                         !
 ! D118  D(42,43,44,56)        168.7176                                         !
 ! D119  D(46,43,44,45)        114.361                                          !
 ! D120  D(46,43,44,56)        -67.219                                          !
 ! D121  D(51,43,44,45)       -125.3775                                         !
 ! D122  D(51,43,44,56)         53.0426                                         !
 ! D123  D(42,43,46,47)       -154.4752                                         !
 ! D124  D(42,43,46,52)        -33.2094                                         !
 ! D125  D(42,43,46,53)         82.9459                                         !
 ! D126  D(44,43,46,47)         84.3862                                         !
 ! D127  D(44,43,46,52)       -154.3481                                         !
 ! D128  D(44,43,46,53)        -38.1928                                         !
 ! D129  D(51,43,46,47)        -36.0892                                         !
 ! D130  D(51,43,46,52)         85.1766                                         !
 ! D131  D(51,43,46,53)       -158.6681                                         !
 ! D132  D(43,44,56,57)       -174.8752                                         !
 ! D133  D(43,44,56,68)          6.1167                                         !
 ! D134  D(45,44,56,57)          3.4587                                         !
 ! D135  D(45,44,56,68)       -175.5495                                         !
 ! D136  D(43,46,47,48)        152.9968                                         !
 ! D137  D(43,46,47,49)        -28.2204                                         !
 ! D138  D(52,46,47,48)         33.4315                                         !
 ! D139  D(52,46,47,49)       -147.7858                                         !
 ! D140  D(53,46,47,48)        -83.1869                                         !
 ! D141  D(53,46,47,49)         95.5959                                         !
 ! D142  D(46,47,48,54)       -178.2836                                         !
 ! D143  D(46,47,48,55)         -9.0342                                         !
 ! D144  D(49,47,48,54)          2.914                                          !
 ! D145  D(49,47,48,55)        172.1635                                         !
 ! D146  D(44,56,57,58)         38.6028                                         !
 ! D147  D(44,56,57,60)        -91.0135                                         !
 ! D148  D(44,56,57,69)        150.9492                                         !
 ! D149  D(68,56,57,58)       -142.4185                                         !
 ! D150  D(68,56,57,60)         87.9652                                         !
 ! D151  D(68,56,57,69)        -30.0721                                         !
 ! D152  D(56,57,58,59)       -113.5974                                         !
 ! D153  D(56,57,58,67)         69.8103                                         !
 ! D154  D(60,57,58,59)         14.9906                                         !
 ! D155  D(60,57,58,67)       -161.6017                                         !
 ! D156  D(69,57,58,59)        134.7743                                         !
 ! D157  D(69,57,58,67)        -41.818                                          !
 ! D158  D(56,57,60,61)       -149.9433                                         !
 ! D159  D(56,57,60,70)         85.2293                                         !
 ! D160  D(56,57,60,71)        -30.9744                                         !
 ! D161  D(58,57,60,61)         82.6648                                         !
 ! D162  D(58,57,60,70)        -42.1626                                         !
 ! D163  D(58,57,60,71)       -158.3663                                         !
 ! D164  D(69,57,60,61)        -34.9079                                         !
 ! D165  D(69,57,60,70)       -159.7353                                         !
 ! D166  D(69,57,60,71)         84.061                                          !
 ! D167  D(57,60,61,62)        -78.5038                                         !
 ! D168  D(57,60,61,72)         46.6907                                         !
 ! D169  D(57,60,61,73)        161.6983                                         !
 ! D170  D(70,60,61,62)         45.2105                                         !
 ! D171  D(70,60,61,72)        170.405                                          !
 ! D172  D(70,60,61,73)        -74.5874                                         !
 ! D173  D(71,60,61,62)        162.1873                                         !
 ! D174  D(71,60,61,72)        -72.6182                                         !
 ! D175  D(71,60,61,73)         42.3894                                         !
 ! D176  D(60,61,62,63)         64.4921                                         !
 ! D177  D(60,61,62,74)       -171.3309                                         !
 ! D178  D(60,61,62,75)        -54.1802                                         !
 ! D179  D(72,61,62,63)        -61.0557                                         !
 ! D180  D(72,61,62,74)         63.1213                                         !
 ! D181  D(72,61,62,75)       -179.728                                          !
 ! D182  D(73,61,62,63)       -174.496                                          !
 ! D183  D(73,61,62,74)        -50.319                                          !
 ! D184  D(73,61,62,75)         66.8317                                         !
 ! D185  D(61,62,63,64)         70.2065                                         !
 ! D186  D(61,62,63,76)        -82.6362                                         !
 ! D187  D(74,62,63,64)        -53.9588                                         !
 ! D188  D(74,62,63,76)        153.1985                                         !
 ! D189  D(75,62,63,64)       -168.3414                                         !
 ! D190  D(75,62,63,76)         38.816                                          !
 ! D191  D(62,63,64,65)         31.1376                                         !
 ! D192  D(62,63,64,66)       -149.403                                          !
 ! D193  D(76,63,64,65)       -177.0343                                         !
 ! D194  D(76,63,64,66)          2.4251                                         !
 ! D195  D(63,64,65,77)       -175.0524                                         !
 ! D196  D(63,64,65,78)         20.0823                                         !
 ! D197  D(66,64,65,77)          5.4907                                         !
 ! D198  D(66,64,65,78)       -159.3746                                         !
 ! D199  D(63,64,66,79)       -168.9554                                         !
 ! D200  D(63,64,66,80)         28.2538                                         !
 ! D201  D(65,64,66,79)         10.504                                          !
 ! D202  D(65,64,66,80)       -152.2868                                         !
 --------------------------------------------------------------------------------
 Symmetry turned off by external request.
 Stoichiometry    C25H41N8O6(1+)
 Framework group  C1[X(C25H41N8O6)]
 Deg. of freedom   234
 Full point group                 C1      NOp   1
                          Input orientation:                          
 ---------------------------------------------------------------------
 Center     Atomic      Atomic             Coordinates (Angstroms)
 Number     Number       Type             X           Y           Z
 ---------------------------------------------------------------------
      1          7           0       -1.922462   10.028775   -8.516398
      2          6           0       -1.785041    8.858402   -7.594320
      3          6           0       -3.159356    8.792794   -6.886100
      4          8           0       -4.164138    9.086819   -7.525829
      5          6           0       -0.546347    9.056541   -6.699300
      6          6           0        0.716106    9.286956   -7.505393
      7          6           0        1.498209    8.205187   -7.930888
      8          6           0        1.082957   10.587106   -7.883651
      9          6           0        2.630721    8.416114   -8.717604
     10          6           0        2.211313   10.795298   -8.679117
     11          6           0        2.988668    9.712957   -9.094363
     12          1           0       -1.130860   10.176717   -9.150240
     13          1           0       -1.667762    7.962771   -8.213480
     14          1           0       -0.431096    8.159154   -6.079819
     15          1           0       -0.731983    9.907151   -6.034082
     16          1           0        1.225723    7.193501   -7.637001
     17          1           0        0.477960   11.437007   -7.577915
     18          1           0        3.234378    7.569990   -9.033060
     19          1           0        2.480687   11.806647   -8.969464
     20          1           0        3.870857    9.877016   -9.706472
     21          1           0       -2.799195   10.006833   -9.052843
     22          1           0       -1.988164   10.895975   -7.936138
     23          7           0       -3.189966    8.466983   -5.572344
     24          6           0       -4.442928    8.564703   -4.812547
     25          6           0       -5.012918   10.001186   -4.828983
     26          8           0       -6.214045   10.198829   -4.753651
     27          6           0       -4.244514    8.077112   -3.370632
     28          6           0       -3.794473    6.609917   -3.217184
     29          6           0       -3.615354    6.282498   -1.727526
     30          6           0       -4.771480    5.630403   -3.881563
     31          1           0       -2.337436    8.245003   -5.078392
     32          1           0       -5.203899    7.967080   -5.318816
     33          1           0       -3.524378    8.739918   -2.868530
     34          1           0       -5.203737    8.216575   -2.857740
     35          1           0       -2.812417    6.489542   -3.702924
     36          1           0       -4.571035    6.366628   -1.195443
     37          1           0       -3.247572    5.259686   -1.592522
     38          1           0       -2.903168    6.963925   -1.247081
     39          1           0       -5.780662    5.748600   -3.467690
     40          1           0       -4.833227    5.776720   -4.965563
     41          1           0       -4.458415    4.595407   -3.707083
     42          7           0       -4.082582   11.007400   -4.887660
     43          6           0       -4.443660   12.297951   -5.445616
     44          6           0       -3.376577   12.625983   -6.520790
     45          8           0       -2.352791   11.911349   -6.610382
     46          6           0       -4.597064   13.378090   -4.347173
     47          6           0       -5.531169   14.518402   -4.746709
     48          7           0       -6.149067   15.153497   -3.724622
     49          8           0       -5.703780   14.865052   -5.919084
     50          1           0       -3.129191   10.745103   -5.108680
     51          1           0       -5.412106   12.187566   -5.945948
     52          1           0       -4.984045   12.873839   -3.456410
     53          1           0       -3.621541   13.801633   -4.074580
     54          1           0       -6.797192   15.898092   -3.945411
     55          1           0       -6.113423   14.816337   -2.774145
     56          7           0       -3.645069   13.655515   -7.318514
     57          6           0       -2.842631   14.087895   -8.470904
     58          6           0       -2.292973   12.850166   -9.244674
     59          8           0       -1.046083   12.643671   -9.253862
     60          6           0       -1.777623   15.135023   -8.095206
     61          6           0       -1.422275   16.132569   -9.220853
     62          6           0       -0.475649   15.653864  -10.336259
     63          7           0       -1.005852   14.562606  -11.169687
     64          6           0       -2.001014   14.662349  -12.053326
     65          7           0       -2.205506   15.820704  -12.716726
     66          7           0       -2.789012   13.605234  -12.287045
     67          8           0       -3.155509   12.173648   -9.870169
     68          1           0       -4.488226   14.190278   -7.077448
     69          1           0       -3.573610   14.546847   -9.146737
     70          1           0       -0.882747   14.614364   -7.739287
     71          1           0       -2.172327   15.723535   -7.258783
     72          1           0       -2.345706   16.515145   -9.678739
     73          1           0       -0.930214   17.000764   -8.764359
     74          1           0       -0.192954   16.501035  -10.970821
     75          1           0        0.449812   15.263560   -9.905982
     76          1           0       -0.872601   13.641118  -10.732415
     77          1           0       -2.997846   15.932828  -13.331347
     78          1           0       -1.465971   16.503243  -12.791893
     79          1           0       -3.433357   13.612164  -13.064975
     80          1           0       -2.938348   12.903170  -11.540159
 ---------------------------------------------------------------------
 Rotational constants (GHZ):           0.1054093           0.0662849           0.0465828
 Standard basis: 6-31G(d) (6D, 7F)
   667 basis functions,  1256 primitive gaussians,   667 cartesian basis functions
   147 alpha electrons      147 beta electrons
       nuclear repulsion energy      4877.7251175062 Hartrees.
 NAtoms=   80 NActive=   80 NUniq=   80 SFac= 1.00D+00 NAtFMM=   60 NAOKFM=T Big=T
 Integral buffers will be    131072 words long.
 Raffenetti 2 integral format.
 Two-electron integral symmetry is turned off.
 Nuclear repulsion after empirical dispersion term =     4877.6131659547 Hartrees.
 One-electron integrals computed using PRISM.
 NBasis=   667 RedAO= T EigKep=  4.64D-04  NBF=   667
 NBsUse=   667 1.00D-06 EigRej= -1.00D+00 NBFU=   667
 Initial guess from the checkpoint file:  "conf-121.chk"
 B after Tr=     0.000000    0.000000    0.000000
         Rot=    1.000000    0.000000    0.000000    0.000000 Ang=   0.00 deg.
 Requested convergence on RMS density matrix=1.00D-08 within 128 cycles.
 Requested convergence on MAX density matrix=1.00D-06.
 Requested convergence on             energy=1.00D-06.
 No special actions if energy rises.
 SCF Done:  E(RB3LYP) =  -1866.74466804     A.U. after    2 cycles
            NFock=  2  Conv=0.80D-08     -V/T= 2.0094

 **********************************************************************

            Population analysis using the SCF Density.

 **********************************************************************

 Alpha  occ. eigenvalues --  -19.22465 -19.22228 -19.21331 -19.19105 -19.18564
 Alpha  occ. eigenvalues --  -19.18412 -14.52046 -14.50108 -14.48104 -14.47732
 Alpha  occ. eigenvalues --  -14.46904 -14.45032 -14.44997 -14.43217 -10.45396
 Alpha  occ. eigenvalues --  -10.39726 -10.38902 -10.38837 -10.36711 -10.36283
 Alpha  occ. eigenvalues --  -10.36032 -10.33603 -10.32558 -10.31727 -10.31465
 Alpha  occ. eigenvalues --  -10.30512 -10.29222 -10.28896 -10.28689 -10.27445
 Alpha  occ. eigenvalues --  -10.27344 -10.27106 -10.27092 -10.27082 -10.27029
 Alpha  occ. eigenvalues --  -10.26936 -10.26908 -10.24195 -10.24176  -1.14886
 Alpha  occ. eigenvalues --   -1.14022  -1.13758  -1.12843  -1.11946  -1.11040
 Alpha  occ. eigenvalues --   -1.07704  -1.03539  -1.03192  -1.02659  -1.01887
 Alpha  occ. eigenvalues --   -1.01547  -1.00214  -0.99741  -0.94203  -0.89982
 Alpha  occ. eigenvalues --   -0.89296  -0.88437  -0.87050  -0.84039  -0.83668
 Alpha  occ. eigenvalues --   -0.82590  -0.81747  -0.78881  -0.76690  -0.76060
 Alpha  occ. eigenvalues --   -0.75220  -0.74931  -0.72844  -0.70966  -0.70137
 Alpha  occ. eigenvalues --   -0.69996  -0.69054  -0.68915  -0.67732  -0.67440
 Alpha  occ. eigenvalues --   -0.66924  -0.66648  -0.65895  -0.65463  -0.64165
 Alpha  occ. eigenvalues --   -0.63906  -0.63095  -0.62735  -0.62252  -0.60970
 Alpha  occ. eigenvalues --   -0.59875  -0.59301  -0.58946  -0.58398  -0.57642
 Alpha  occ. eigenvalues --   -0.57055  -0.56362  -0.55531  -0.55290  -0.54535
 Alpha  occ. eigenvalues --   -0.54315  -0.53979  -0.53610  -0.53495  -0.52998
 Alpha  occ. eigenvalues --   -0.52745  -0.52192  -0.51953  -0.51673  -0.51165
 Alpha  occ. eigenvalues --   -0.50484  -0.50256  -0.50128  -0.49610  -0.49211
 Alpha  occ. eigenvalues --   -0.49021  -0.48683  -0.48469  -0.47921  -0.47253
 Alpha  occ. eigenvalues --   -0.46857  -0.46508  -0.46197  -0.45734  -0.45564
 Alpha  occ. eigenvalues --   -0.45377  -0.44939  -0.44650  -0.44221  -0.43972
 Alpha  occ. eigenvalues --   -0.43203  -0.42991  -0.42656  -0.42213  -0.40768
 Alpha  occ. eigenvalues --   -0.40260  -0.40138  -0.39850  -0.37812  -0.37350
 Alpha  occ. eigenvalues --   -0.36732  -0.36356  -0.36271  -0.35847  -0.35241
 Alpha  occ. eigenvalues --   -0.34735  -0.33683  -0.33240  -0.32883  -0.32720
 Alpha  occ. eigenvalues --   -0.32157  -0.32070
 Alpha virt. eigenvalues --   -0.10281  -0.09344  -0.08778  -0.08522  -0.08074
 Alpha virt. eigenvalues --   -0.06896  -0.06537  -0.05641  -0.05320  -0.03011
 Alpha virt. eigenvalues --   -0.02722  -0.00651  -0.00364   0.00448   0.00569
 Alpha virt. eigenvalues --    0.01266   0.01529   0.01851   0.02054   0.02595
 Alpha virt. eigenvalues --    0.02860   0.03802   0.04230   0.04906   0.05130
 Alpha virt. eigenvalues --    0.05357   0.05638   0.05865   0.06155   0.06233
 Alpha virt. eigenvalues --    0.06566   0.06849   0.07193   0.07479   0.08029
 Alpha virt. eigenvalues --    0.08284   0.08337   0.08538   0.08693   0.08984
 Alpha virt. eigenvalues --    0.09349   0.09570   0.10185   0.10574   0.10903
 Alpha virt. eigenvalues --    0.11420   0.11722   0.11927   0.12309   0.12736
 Alpha virt. eigenvalues --    0.13016   0.13357   0.13554   0.13753   0.14587
 Alpha virt. eigenvalues --    0.14621   0.14910   0.15058   0.15520   0.15933
 Alpha virt. eigenvalues --    0.16028   0.16903   0.17153   0.17690   0.18278
 Alpha virt. eigenvalues --    0.18857   0.19363   0.19765   0.20455   0.21181
 Alpha virt. eigenvalues --    0.22932   0.23463   0.23796   0.24793   0.25067
 Alpha virt. eigenvalues --    0.25905   0.26847   0.26978   0.27589   0.27709
 Alpha virt. eigenvalues --    0.29046   0.30587   0.30981   0.31542   0.33867
 Alpha virt. eigenvalues --    0.34165   0.35584   0.36581   0.38076   0.39623
 Alpha virt. eigenvalues --    0.40398   0.41170   0.41581   0.42780   0.42896
 Alpha virt. eigenvalues --    0.43372   0.43506   0.43675   0.44039   0.44448
 Alpha virt. eigenvalues --    0.44719   0.44846   0.45518   0.45713   0.45921
 Alpha virt. eigenvalues --    0.46528   0.46923   0.47313   0.48263   0.48381
 Alpha virt. eigenvalues --    0.49210   0.49335   0.49841   0.50016   0.50416
 Alpha virt. eigenvalues --    0.51081   0.51292   0.51417   0.51705   0.52110
 Alpha virt. eigenvalues --    0.52649   0.53043   0.53351   0.53564   0.53798
 Alpha virt. eigenvalues --    0.54034   0.54321   0.55444   0.55682   0.56089
 Alpha virt. eigenvalues --    0.56402   0.56803   0.56866   0.56905   0.57295
 Alpha virt. eigenvalues --    0.58164   0.58204   0.58459   0.58902   0.59853
 Alpha virt. eigenvalues --    0.60564   0.60819   0.61424   0.61589   0.62539
 Alpha virt. eigenvalues --    0.63608   0.63854   0.63946   0.64468   0.64972
 Alpha virt. eigenvalues --    0.65311   0.65481   0.66160   0.66847   0.67355
 Alpha virt. eigenvalues --    0.68795   0.69027   0.69873   0.70223   0.70567
 Alpha virt. eigenvalues --    0.71382   0.71716   0.72307   0.72698   0.72878
 Alpha virt. eigenvalues --    0.73271   0.73819   0.74833   0.75134   0.75267
 Alpha virt. eigenvalues --    0.75854   0.76060   0.76119   0.76625   0.77126
 Alpha virt. eigenvalues --    0.77346   0.77666   0.77910   0.78608   0.78784
 Alpha virt. eigenvalues --    0.79026   0.79376   0.79613   0.80253   0.80561
 Alpha virt. eigenvalues --    0.80935   0.81370   0.81539   0.82090   0.82227
 Alpha virt. eigenvalues --    0.82792   0.82964   0.83489   0.83991   0.84144
 Alpha virt. eigenvalues --    0.84325   0.84648   0.85079   0.85325   0.85916
 Alpha virt. eigenvalues --    0.86126   0.86434   0.86949   0.87196   0.87290
 Alpha virt. eigenvalues --    0.87666   0.88346   0.89151   0.89294   0.89842
 Alpha virt. eigenvalues --    0.90654   0.91134   0.91244   0.92241   0.92678
 Alpha virt. eigenvalues --    0.93302   0.93683   0.94319   0.94724   0.96013
 Alpha virt. eigenvalues --    0.96218   0.96998   0.97471   0.98451   0.99127
 Alpha virt. eigenvalues --    0.99882   1.00397   1.01075   1.01575   1.02689
 Alpha virt. eigenvalues --    1.02935   1.03672   1.04663   1.05756   1.05857
 Alpha virt. eigenvalues --    1.06920   1.07316   1.07980   1.08853   1.09791
 Alpha virt. eigenvalues --    1.10988   1.11401   1.11873   1.12553   1.12944
 Alpha virt. eigenvalues --    1.14181   1.14695   1.15831   1.16640   1.17124
 Alpha virt. eigenvalues --    1.17288   1.17926   1.18285   1.19066   1.19368
 Alpha virt. eigenvalues --    1.21199   1.22491   1.22511   1.23423   1.24250
 Alpha virt. eigenvalues --    1.24792   1.26577   1.27272   1.28722   1.29506
 Alpha virt. eigenvalues --    1.30384   1.31591   1.32778   1.33025   1.34421
 Alpha virt. eigenvalues --    1.35236   1.35345   1.35648   1.36396   1.37450
 Alpha virt. eigenvalues --    1.38849   1.39059   1.39856   1.40130   1.40290
 Alpha virt. eigenvalues --    1.41040   1.41598   1.42012   1.42801   1.43429
 Alpha virt. eigenvalues --    1.43831   1.44412   1.45260   1.45812   1.47767
 Alpha virt. eigenvalues --    1.48198   1.49352   1.49583   1.51012   1.52260
 Alpha virt. eigenvalues --    1.53665   1.55417   1.56007   1.56616   1.57559
 Alpha virt. eigenvalues --    1.57806   1.58635   1.59744   1.60522   1.61446
 Alpha virt. eigenvalues --    1.63108   1.63730   1.64460   1.65067   1.65743
 Alpha virt. eigenvalues --    1.66217   1.66911   1.67878   1.68367   1.68901
 Alpha virt. eigenvalues --    1.69184   1.69861   1.70484   1.71382   1.71496
 Alpha virt. eigenvalues --    1.71796   1.72100   1.72620   1.73099   1.73327
 Alpha virt. eigenvalues --    1.73779   1.75392   1.75811   1.76489   1.77005
 Alpha virt. eigenvalues --    1.77739   1.77923   1.78309   1.79116   1.79952
 Alpha virt. eigenvalues --    1.80621   1.81229   1.81600   1.81711   1.82360
 Alpha virt. eigenvalues --    1.83095   1.83421   1.84347   1.84737   1.84998
 Alpha virt. eigenvalues --    1.85376   1.85899   1.86819   1.87859   1.88257
 Alpha virt. eigenvalues --    1.88911   1.89311   1.89614   1.90023   1.90646
 Alpha virt. eigenvalues --    1.90795   1.92241   1.92767   1.93061   1.93481
 Alpha virt. eigenvalues --    1.93894   1.94337   1.95466   1.95910   1.96992
 Alpha virt. eigenvalues --    1.97544   1.97869   1.98195   1.99232   1.99371
 Alpha virt. eigenvalues --    2.00510   2.01073   2.01254   2.02341   2.03256
 Alpha virt. eigenvalues --    2.04077   2.05244   2.06209   2.06594   2.07232
 Alpha virt. eigenvalues --    2.07420   2.08606   2.08765   2.10534   2.10682
 Alpha virt. eigenvalues --    2.11621   2.12852   2.13405   2.13958   2.14716
 Alpha virt. eigenvalues --    2.15035   2.15887   2.16301   2.17098   2.18378
 Alpha virt. eigenvalues --    2.18594   2.19654   2.20485   2.20686   2.22046
 Alpha virt. eigenvalues --    2.22892   2.23045   2.23867   2.24215   2.25382
 Alpha virt. eigenvalues --    2.26637   2.27726   2.28126   2.28854   2.30263
 Alpha virt. eigenvalues --    2.30849   2.31307   2.33257   2.33532   2.34827
 Alpha virt. eigenvalues --    2.35511   2.36554   2.36940   2.38341   2.39563
 Alpha virt. eigenvalues --    2.40303   2.41133   2.42422   2.43116   2.44205
 Alpha virt. eigenvalues --    2.44804   2.45410   2.46132   2.46936   2.47634
 Alpha virt. eigenvalues --    2.48610   2.48910   2.49272   2.50027   2.51204
 Alpha virt. eigenvalues --    2.51846   2.51925   2.52779   2.53258   2.54679
 Alpha virt. eigenvalues --    2.56870   2.57039   2.57924   2.58690   2.59770
 Alpha virt. eigenvalues --    2.61807   2.62137   2.62583   2.63279   2.63987
 Alpha virt. eigenvalues --    2.64777   2.65190   2.66679   2.67390   2.68177
 Alpha virt. eigenvalues --    2.68602   2.69296   2.70986   2.72370   2.74863
 Alpha virt. eigenvalues --    2.76040   2.79321   2.80774   2.84487   2.88035
 Alpha virt. eigenvalues --    2.88343   2.89006   2.92370   2.92624   2.93698
 Alpha virt. eigenvalues --    2.94588   2.95118   2.97088   2.97866   2.98458
 Alpha virt. eigenvalues --    2.98935   3.05061   3.07820   3.09325   3.12083
 Alpha virt. eigenvalues --    3.32729   3.69082   3.72030   3.78449   3.86754
 Alpha virt. eigenvalues --    3.88042   3.92570   3.93373   3.97097   3.98696
 Alpha virt. eigenvalues --    4.01038   4.01467   4.03898   4.04856   4.06191
 Alpha virt. eigenvalues --    4.08871   4.10231   4.12879   4.14198   4.16933
 Alpha virt. eigenvalues --    4.17491   4.21222   4.22692   4.24813   4.25939
 Alpha virt. eigenvalues --    4.27857   4.29768   4.32936   4.33615   4.37721
 Alpha virt. eigenvalues --    4.41103   4.45897   4.47242   4.50325   4.51521
 Alpha virt. eigenvalues --    4.54518   4.57352   4.62490   4.65258   4.67542
          Condensed to atoms (all electrons):
 Mulliken charges:
               1
     1  N   -0.786834
     2  C   -0.086903
     3  C    0.638851
     4  O   -0.510643
     5  C   -0.404213
     6  C    0.133261
     7  C   -0.179575
     8  C   -0.206595
     9  C   -0.127614
    10  C   -0.128018
    11  C   -0.125434
    12  H    0.404652
    13  H    0.211143
    14  H    0.168786
    15  H    0.194298
    16  H    0.134093
    17  H    0.173393
    18  H    0.152439
    19  H    0.142792
    20  H    0.149771
    21  H    0.419110
    22  H    0.482367
    23  N   -0.649968
    24  C   -0.024096
    25  C    0.604648
    26  O   -0.503584
    27  C   -0.306031
    28  C   -0.077019
    29  C   -0.443497
    30  C   -0.451936
    31  H    0.350257
    32  H    0.205619
    33  H    0.137875
    34  H    0.180417
    35  H    0.108316
    36  H    0.155352
    37  H    0.157280
    38  H    0.143619
    39  H    0.158214
    40  H    0.148375
    41  H    0.158145
    42  N   -0.613466
    43  C   -0.056432
    44  C    0.620289
    45  O   -0.609938
    46  C   -0.377438
    47  C    0.631493
    48  N   -0.736435
    49  O   -0.532637
    50  H    0.343600
    51  H    0.218234
    52  H    0.191351
    53  H    0.189681
    54  H    0.361644
    55  H    0.356605
    56  N   -0.615279
    57  C    0.010230
    58  C    0.539742
    59  O   -0.609697
    60  C   -0.268711
    61  C   -0.281288
    62  C   -0.161428
    63  N   -0.602710
    64  C    0.775547
    65  N   -0.757623
    66  N   -0.779611
    67  O   -0.601284
    68  H    0.401248
    69  H    0.146661
    70  H    0.175911
    71  H    0.150470
    72  H    0.147704
    73  H    0.165778
    74  H    0.155236
    75  H    0.193310
    76  H    0.397482
    77  H    0.372346
    78  H    0.378232
    79  H    0.358228
    80  H    0.421844
 Sum of Mulliken charges =   1.00000
 Mulliken charges with hydrogens summed into heavy atoms:
               1
     1  N    0.519295
     2  C    0.124240
     3  C    0.638851
     4  O   -0.510643
     5  C   -0.041129
     6  C    0.133261
     7  C   -0.045483
     8  C   -0.033202
     9  C    0.024825
    10  C    0.014774
    11  C    0.024338
    23  N   -0.299711
    24  C    0.181523
    25  C    0.604648
    26  O   -0.503584
    27  C    0.012261
    28  C    0.031297
    29  C    0.012754
    30  C    0.012798
    42  N   -0.269866
    43  C    0.161802
    44  C    0.620289
    45  O   -0.609938
    46  C    0.003594
    47  C    0.631493
    48  N   -0.018186
    49  O   -0.532637
    56  N   -0.214031
    57  C    0.156891
    58  C    0.539742
    59  O   -0.609697
    60  C    0.057670
    61  C    0.032194
    62  C    0.187118
    63  N   -0.205228
    64  C    0.775547
    65  N   -0.007045
    66  N    0.000460
    67  O   -0.601284
 Electronic spatial extent (au):  <R**2>=         220701.2258
 Charge=              1.0000 electrons
 Dipole moment (field-independent basis, Debye):
    X=             -8.4421    Y=             62.4531    Z=            -41.1521  Tot=             75.2672
 Quadrupole moment (field-independent basis, Debye-Ang):
   XX=           -203.7873   YY=            668.8974   ZZ=            227.5600
   XY=           -132.5132   XZ=             53.8705   YZ=           -574.2179
 Traceless Quadrupole moment (field-independent basis, Debye-Ang):
   XX=           -434.6773   YY=            438.0073   ZZ=             -3.3300
   XY=           -132.5132   XZ=             53.8705   YZ=           -574.2179
 Octapole moment (field-independent basis, Debye-Ang**2):
  XXX=           1693.0685  YYY=           5861.3650  ZZZ=           -653.8080  XYY=          -1585.7551
  XXY=          -2114.3747  XXZ=           1521.7624  XZZ=           -151.2979  YZZ=           4069.8811
  YYZ=          -6955.8472  XYZ=            939.9695
 Hexadecapole moment (field-independent basis, Debye-Ang**3):
 XXXX=         -16428.5842 YYYY=          24171.9069 ZZZZ=         -10293.9343 XXXY=          18156.4772
 XXXZ=         -10447.2551 YYYX=         -15345.9974 YYYZ=         -74899.0571 ZZZX=           1115.0809
 ZZZY=         -24678.4902 XXYY=         -25461.4041 XXZZ=         -14121.7057 YYZZ=          56876.8612
 XXYZ=          17087.9142 YYXZ=          12620.3543 ZZXY=          -5590.6706
 N-N= 4.877613165955D+03 E-N=-1.407595825928D+04  KE= 1.849295183189D+03
 Unable to Open any file for archive entry.
 1\1\GINC-QML-002\SP\RB3LYP\6-31G(d)\C25H41N8O6(1+)\KENGMITH\11-Jun-202
 2\0\\# B3LYP/6-31G* empiricaldispersion=gd3 guess=read geom=check nosy
 mm integral(ultrafinegrid)\\Candidate Structure: Conf:121 Charge calc 
 in gas phase\\1,1\N,0,-1.9224619953,10.028774741,-8.5163977055\C,0,-1.
 7850413158,8.8584015446,-7.5943201044\C,0,-3.1593559325,8.7927943051,-
 6.8861001467\O,0,-4.1641382032,9.0868187519,-7.5258290545\C,0,-0.54634
 67715,9.0565410425,-6.6992997336\C,0,0.7161057558,9.2869564722,-7.5053
 927398\C,0,1.4982089704,8.2051868448,-7.9308875329\C,0,1.0829567574,10
 .5871062188,-7.8836506886\C,0,2.6307205451,8.4161144925,-8.7176037968\
 C,0,2.2113130726,10.795297502,-8.6791171316\C,0,2.9886684539,9.7129565
 837,-9.0943626852\H,0,-1.1308595756,10.1767168437,-9.1502403162\H,0,-1
 .6677618009,7.9627709719,-8.2134804736\H,0,-0.4310956368,8.1591537741,
 -6.0798192999\H,0,-0.7319833443,9.9071508673,-6.0340824667\H,0,1.22572
 31969,7.1935007564,-7.6370010998\H,0,0.4779604604,11.4370066457,-7.577
 9148472\H,0,3.2343783231,7.5699896498,-9.0330602879\H,0,2.4806869337,1
 1.8066468988,-8.969464099\H,0,3.8708567915,9.877016327,-9.7064718986\H
 ,0,-2.7991951222,10.0068328145,-9.0528428716\H,0,-1.9881640747,10.8959
 749542,-7.9361376704\N,0,-3.1899659424,8.466982723,-5.5723444728\C,0,-
 4.4429284662,8.5647028257,-4.8125470156\C,0,-5.0129182367,10.001185691
 4,-4.8289827912\O,0,-6.2140450477,10.1988294189,-4.7536512483\C,0,-4.2
 445135367,8.0771122688,-3.3706318045\C,0,-3.7944728095,6.6099174174,-3
 .2171836031\C,0,-3.6153538187,6.2824980507,-1.7275259166\C,0,-4.771479
 6474,5.6304033518,-3.8815633505\H,0,-2.3374357972,8.2450033226,-5.0783
 917014\H,0,-5.2038992076,7.9670799701,-5.3188156001\H,0,-3.5243776891,
 8.7399179042,-2.868530181\H,0,-5.203737157,8.2165754456,-2.8577396742\
 H,0,-2.8124170782,6.4895420778,-3.7029237425\H,0,-4.5710346793,6.36662
 82322,-1.1954430323\H,0,-3.2475722826,5.2596855126,-1.5925219272\H,0,-
 2.903168393,6.9639248044,-1.2470807516\H,0,-5.7806618411,5.7485995928,
 -3.4676896954\H,0,-4.8332272505,5.776719939,-4.9655626034\H,0,-4.45841
 50849,4.5954073278,-3.7070833126\N,0,-4.0825822056,11.0074004869,-4.88
 76595145\C,0,-4.4436600824,12.2979505492,-5.4456158879\C,0,-3.37657711
 29,12.6259833547,-6.5207896876\O,0,-2.3527908338,11.9113491324,-6.6103
 820927\C,0,-4.5970642225,13.3780900786,-4.347172991\C,0,-5.5311689246,
 14.5184024739,-4.7467088918\N,0,-6.1490670083,15.1534965515,-3.7246216
 117\O,0,-5.7037797644,14.8650516703,-5.9190844967\H,0,-3.1291908174,10
 .7451026368,-5.1086795195\H,0,-5.4121056535,12.1875659836,-5.945948072
 7\H,0,-4.984045437,12.8738393281,-3.4564101017\H,0,-3.621541307,13.801
 6327745,-4.0745799613\H,0,-6.7971920582,15.8980921419,-3.9454113441\H,
 0,-6.1134225605,14.8163367127,-2.7741453342\N,0,-3.6450686145,13.65551
 47476,-7.3185139968\C,0,-2.842631164,14.0878950529,-8.4709038578\C,0,-
 2.2929732045,12.8501658931,-9.2446737552\O,0,-1.0460831846,12.64367106
 74,-9.2538623695\C,0,-1.7776230874,15.1350225728,-8.0952055956\C,0,-1.
 422275072,16.1325688716,-9.2208529945\C,0,-0.4756490594,15.6538640735,
 -10.3362594048\N,0,-1.0058517307,14.5626059936,-11.169687226\C,0,-2.00
 10139505,14.6623493522,-12.0533263713\N,0,-2.2055060713,15.8207040246,
 -12.7167263755\N,0,-2.7890120927,13.6052343326,-12.2870445831\O,0,-3.1
 555092075,12.1736483442,-9.8701692061\H,0,-4.4882255891,14.1902779885,
 -7.0774481127\H,0,-3.5736099683,14.5468468093,-9.1467368591\H,0,-0.882
 7473577,14.6143644357,-7.7392872352\H,0,-2.1723273172,15.7235346476,-7
 .2587827119\H,0,-2.3457062789,16.5151445113,-9.6787386009\H,0,-0.93021
 37145,17.0007635282,-8.7643590288\H,0,-0.1929538496,16.50103522,-10.97
 08214433\H,0,0.4498117218,15.2635601238,-9.9059818397\H,0,-0.872601082
 8,13.641117949,-10.7324153282\H,0,-2.9978457407,15.932828121,-13.33134
 71661\H,0,-1.4659710958,16.5032428096,-12.7918926259\H,0,-3.4333566947
 ,13.6121639667,-13.0649745813\H,0,-2.9383484674,12.9031700389,-11.5401
 592787\\Version=ES64L-G16RevC.01\HF=-1866.744668\RMSD=8.040e-09\Dipole
 =1.4720221,3.0402933,-2.5756234\Quadrupole=-323.1719239,325.6477025,-2
 .4757787,-98.5203431,40.0514218,-426.9169457\PG=C01 [X(C25H41N8O6)]\\@
 The archive entry for this job was punched.


 YOU CAN WIPE THE SLATE CLEAN, BUT YOU'LL STILL
 HAVE TO EAT A LITTLE CHALK DUST.
 Job cpu time:       0 days  0 hours  5 minutes 19.5 seconds.
 Elapsed time:       0 days  0 hours  1 minutes 20.5 seconds.
 File lengths (MBytes):  RWF=    344 Int=      0 D2E=      0 Chk=     48 Scr=     16
 Normal termination of Gaussian 16 at Sat Jun 11 20:56:45 2022.
