 Entering Gaussian System, Link 0=/opt/software/Gaussian/g16-AVX-C.01/g16/g16
 Input=charge-conf-112.com
 Output=charge-conf-112.log
 Initial command:
 /opt/software/Gaussian/g16-AVX-C.01/g16/l1.exe "/mnt/gs18/scratch/users/kengmith/Gau-31196.inp" -scrdir="/mnt/gs18/scratch/users/kengmith/"
 Entering Link 1 = /opt/software/Gaussian/g16-AVX-C.01/g16/l1.exe PID=     31217.
  
 Copyright (c) 1988-2019, Gaussian, Inc.  All Rights Reserved.
  
 This is part of the Gaussian(R) 16 program.  It is based on
 the Gaussian(R) 09 system (copyright 2009, Gaussian, Inc.),
 the Gaussian(R) 03 system (copyright 2003, Gaussian, Inc.),
 the Gaussian(R) 98 system (copyright 1998, Gaussian, Inc.),
 the Gaussian(R) 94 system (copyright 1995, Gaussian, Inc.),
 the Gaussian 92(TM) system (copyright 1992, Gaussian, Inc.),
 the Gaussian 90(TM) system (copyright 1990, Gaussian, Inc.),
 the Gaussian 88(TM) system (copyright 1988, Gaussian, Inc.),
 the Gaussian 86(TM) system (copyright 1986, Carnegie Mellon
 University), and the Gaussian 82(TM) system (copyright 1983,
 Carnegie Mellon University). Gaussian is a federally registered
 trademark of Gaussian, Inc.
  
 This software contains proprietary and confidential information,
 including trade secrets, belonging to Gaussian, Inc.
  
 This software is provided under written license and may be
 used, copied, transmitted, or stored only in accord with that
 written license.
  
 The following legend is applicable only to US Government
 contracts under FAR:
  
                    RESTRICTED RIGHTS LEGEND
  
 Use, reproduction and disclosure by the US Government is
 subject to restrictions as set forth in subparagraphs (a)
 and (c) of the Commercial Computer Software - Restricted
 Rights clause in FAR 52.227-19.
  
 Gaussian, Inc.
 340 Quinnipiac St., Bldg. 40, Wallingford CT 06492
  
  
 ---------------------------------------------------------------
 Warning -- This program may not be used in any manner that
 competes with the business of Gaussian, Inc. or will provide
 assistance to any competitor of Gaussian, Inc.  The licensee
 of this program is prohibited from giving any competitor of
 Gaussian, Inc. access to this program.  By using this program,
 the user acknowledges that Gaussian, Inc. is engaged in the
 business of creating and licensing software in the field of
 computational chemistry and represents and warrants to the
 licensee that it is not a competitor of Gaussian, Inc. and that
 it will not use this program in any manner prohibited above.
 ---------------------------------------------------------------
  

 Cite this work as:
 Gaussian 16, Revision C.01,
 M. J. Frisch, G. W. Trucks, H. B. Schlegel, G. E. Scuseria, 
 M. A. Robb, J. R. Cheeseman, G. Scalmani, V. Barone, 
 G. A. Petersson, H. Nakatsuji, X. Li, M. Caricato, A. V. Marenich, 
 J. Bloino, B. G. Janesko, R. Gomperts, B. Mennucci, H. P. Hratchian, 
 J. V. Ortiz, A. F. Izmaylov, J. L. Sonnenberg, D. Williams-Young, 
 F. Ding, F. Lipparini, F. Egidi, J. Goings, B. Peng, A. Petrone, 
 T. Henderson, D. Ranasinghe, V. G. Zakrzewski, J. Gao, N. Rega, 
 G. Zheng, W. Liang, M. Hada, M. Ehara, K. Toyota, R. Fukuda, 
 J. Hasegawa, M. Ishida, T. Nakajima, Y. Honda, O. Kitao, H. Nakai, 
 T. Vreven, K. Throssell, J. A. Montgomery, Jr., J. E. Peralta, 
 F. Ogliaro, M. J. Bearpark, J. J. Heyd, E. N. Brothers, K. N. Kudin, 
 V. N. Staroverov, T. A. Keith, R. Kobayashi, J. Normand, 
 K. Raghavachari, A. P. Rendell, J. C. Burant, S. S. Iyengar, 
 J. Tomasi, M. Cossi, J. M. Millam, M. Klene, C. Adamo, R. Cammi, 
 J. W. Ochterski, R. L. Martin, K. Morokuma, O. Farkas, 
 J. B. Foresman, and D. J. Fox, Gaussian, Inc., Wallingford CT, 2019.
 
 ******************************************
 Gaussian 16:  ES64L-G16RevC.01  3-Jul-2019
                11-Jun-2022 
 ******************************************
 %mem=8gb
 %nproc=4
 Will use up to    4 processors via shared memory.
 %chk=conf-112.chk
 ----------------------------------------------------------------------
 # B3LYP/6-31G* empiricaldispersion=gd3 guess=read geom=check nosymm in
 tegral(ultrafinegrid)
 ----------------------------------------------------------------------
 1/29=2,38=1,172=1/1;
 2/12=2,15=1,40=1/2;
 3/5=1,6=6,7=1,11=2,14=-4,25=1,30=1,74=-5,75=-5,116=-2,124=31/1,2,3;
 4/5=1/1;
 5/5=2,38=6/2;
 6/7=2,8=2,9=2,10=2,28=1/1;
 99/5=1,9=1/99;
 ------------------------------------------------------
 Candidate Structure: Conf:112 Charge calc in gas phase
 ------------------------------------------------------
 Structure from the checkpoint file:  "conf-112.chk"
 Charge =  1 Multiplicity = 1
 Redundant internal coordinates found in file.  (old form).
 N,0,-0.8912838931,10.6067468114,-7.0905283137
 C,0,-0.248679977,10.5145563185,-5.733499199
 C,0,-1.1148597029,9.5852685001,-4.8550187471
 O,0,-0.6965930122,8.4912454853,-4.5108788252
 C,0,-0.04558468,11.9321208787,-5.1631554945
 C,0,0.9065445954,12.7562574357,-6.003378247
 C,0,2.2926333231,12.6237536816,-5.8385572556
 C,0,0.4177619594,13.6193769435,-6.99261329
 C,0,3.173670771,13.3436283891,-6.6442228826
 C,0,1.3007695339,14.3341872833,-7.8050187291
 C,0,2.6783468688,14.2011701362,-7.6309109766
 H,0,-1.8789772084,10.943219585,-7.0323597996
 H,0,0.7134175676,10.0162022276,-5.8608465017
 H,0,0.3348256652,11.8135349023,-4.1427225602
 H,0,-1.0146699769,12.4387435682,-5.0850717192
 H,0,2.6820192295,11.9610969333,-5.068432357
 H,0,-0.6532283447,13.7174007766,-7.1471624445
 H,0,4.245242567,13.2400438583,-6.4996384433
 H,0,0.9071268669,14.9982266949,-8.5695934627
 H,0,3.3654548579,14.7638880952,-8.2564759698
 H,0,-0.4568137655,11.2950824227,-7.7338035073
 H,0,-0.9324617504,9.7205386532,-7.60433469
 N,0,-2.3399464278,10.0930511208,-4.5341267491
 C,0,-3.4531748026,9.2401612593,-4.080556401
 C,0,-4.4732407771,9.3224555856,-5.2302110486
 O,0,-4.5101707148,8.4890405794,-6.1194757913
 C,0,-3.9636002816,9.6329650892,-2.6889914411
 C,0,-2.911222325,9.5154075052,-1.5685615459
 C,0,-3.5078737172,10.0185489327,-0.2462596249
 C,0,-2.371805892,8.084813025,-1.4199944312
 H,0,-2.6289886217,10.9512334186,-4.993609926
 H,0,-3.085218579,8.2143650368,-4.0780890196
 H,0,-4.3360781868,10.668378955,-2.7050493989
 H,0,-4.8273827987,8.9965507166,-2.4521664709
 H,0,-2.0705531145,10.171645389,-1.8366316669
 H,0,-4.3492667109,9.3875976349,0.0675757232
 H,0,-2.7598340885,9.9945263529,0.5535384859
 H,0,-3.8748429749,11.0489144841,-0.3320730104
 H,0,-3.191203901,7.3747449887,-1.2468955156
 H,0,-1.8123868086,7.7638409859,-2.3038602401
 H,0,-1.6938410822,8.0214134694,-0.5616610506
 N,0,-5.2532341361,10.4661456714,-5.2646761608
 C,0,-5.7269237748,10.9202952858,-6.5591948875
 C,0,-4.5171362042,11.4338614616,-7.3977002204
 O,0,-3.429310288,11.6800249262,-6.8351239425
 C,0,-6.8360857968,11.9750114799,-6.379655708
 C,0,-7.7989664683,12.0536996535,-7.5673542973
 N,0,-8.9727927798,12.6777452032,-7.3160822669
 O,0,-7.5306404634,11.6012466923,-8.6818886746
 H,0,-5.0089800714,11.1987793213,-4.6097675833
 H,0,-6.1363546324,10.0483707047,-7.0739658347
 H,0,-7.4008515132,11.7177428923,-5.4760727349
 H,0,-6.4081653377,12.9727772466,-6.2116119316
 H,0,-9.6531485892,12.7387279683,-8.0620753949
 H,0,-9.2482631334,12.9739622662,-6.3913345416
 N,0,-4.7483019782,11.5596965597,-8.7040023332
 C,0,-3.8061363476,11.9740110928,-9.7519965642
 C,0,-2.3646309796,11.5021829985,-9.4180629496
 O,0,-1.4971964717,12.376250238,-9.1199644125
 C,0,-3.9304726092,13.4729660088,-10.0846692869
 C,0,-3.5502454688,13.8558325042,-11.5330387388
 C,0,-2.0555626021,13.9866812449,-11.8780802986
 N,0,-1.2914075666,12.7311586964,-11.8018557378
 C,0,-1.3899867341,11.6992335762,-12.6428575963
 N,0,-1.7043025477,11.9074224219,-13.9390568519
 N,0,-1.1653369937,10.4574459952,-12.1953886005
 O,0,-2.1447993066,10.2674491784,-9.5412524642
 H,0,-5.7205854528,11.4022231453,-8.986156108
 H,0,-4.1029796283,11.3871678232,-10.6294738126
 H,0,-3.3380644238,14.0442841833,-9.3624112064
 H,0,-4.9812133389,13.7537386054,-9.9449284549
 H,0,-4.0166965774,13.1506781402,-12.2357373621
 H,0,-3.9930778384,14.8356929898,-11.751761908
 H,0,-1.9444510834,14.4272738678,-12.8747696957
 H,0,-1.5629630339,14.6673521462,-11.1794031909
 H,0,-0.9944020886,12.5134981987,-10.8424837725
 H,0,-1.8562769909,11.1314220748,-14.5660656393
 H,0,-1.5686169355,12.8156099138,-14.3578870929
 H,0,-1.0685578977,9.6897286513,-12.8448170942
 H,0,-1.3521006153,10.2329960818,-11.2030539304
 Recover connectivity data from disk.
                           ----------------------------
                           !    Current Parameters    !
                           ! (Angstroms and Degrees)  !
 --------------------------                            --------------------------
 ! Name  Definition              Value                                          !
 --------------------------------------------------------------------------------
 ! R1    R(1,2)                  1.5043                                         !
 ! R2    R(1,12)                 1.0451                                         !
 ! R3    R(1,21)                 1.0375                                         !
 ! R4    R(1,22)                 1.0252                                         !
 ! R5    R(2,3)                  1.5445                                         !
 ! R6    R(2,5)                  1.5414                                         !
 ! R7    R(2,13)                 1.091                                          !
 ! R8    R(3,4)                  1.2208                                         !
 ! R9    R(3,23)                 1.3644                                         !
 ! R10   R(5,6)                  1.5138                                         !
 ! R11   R(5,14)                 1.0955                                         !
 ! R12   R(5,15)                 1.0963                                         !
 ! R13   R(6,7)                  1.4021                                         !
 ! R14   R(6,8)                  1.4009                                         !
 ! R15   R(7,9)                  1.3941                                         !
 ! R16   R(7,16)                 1.088                                          !
 ! R17   R(8,10)                 1.3967                                         !
 ! R18   R(8,17)                 1.0865                                         !
 ! R19   R(9,11)                 1.398                                          !
 ! R20   R(9,18)                 1.0862                                         !
 ! R21   R(10,11)                1.3949                                         !
 ! R22   R(10,19)                1.0865                                         !
 ! R23   R(11,20)                1.0863                                         !
 ! R24   R(23,24)                1.4739                                         !
 ! R25   R(23,31)                1.0155                                         !
 ! R26   R(24,25)                1.5392                                         !
 ! R27   R(24,27)                1.5334                                         !
 ! R28   R(24,32)                1.0898                                         !
 ! R29   R(25,26)                1.2193                                         !
 ! R30   R(25,42)                1.3848                                         !
 ! R31   R(27,28)                1.5416                                         !
 ! R32   R(27,33)                1.1005                                         !
 ! R33   R(27,34)                1.0987                                         !
 ! R34   R(28,29)                1.5355                                         !
 ! R35   R(28,30)                1.5361                                         !
 ! R36   R(28,35)                1.0997                                         !
 ! R37   R(29,36)                1.0975                                         !
 ! R38   R(29,37)                1.0954                                         !
 ! R39   R(29,38)                1.0971                                         !
 ! R40   R(30,39)                1.098                                          !
 ! R41   R(30,40)                1.0942                                         !
 ! R42   R(30,41)                1.0956                                         !
 ! R43   R(42,43)                1.4513                                         !
 ! R44   R(42,50)                1.0126                                         !
 ! R45   R(43,44)                1.559                                          !
 ! R46   R(43,46)                1.5411                                         !
 ! R47   R(43,51)                1.0922                                         !
 ! R48   R(44,45)                1.2492                                         !
 ! R49   R(44,56)                1.3326                                         !
 ! R50   R(46,47)                1.531                                          !
 ! R51   R(46,52)                1.0962                                         !
 ! R52   R(46,53)                1.0986                                         !
 ! R53   R(47,48)                1.3529                                         !
 ! R54   R(47,49)                1.2324                                         !
 ! R55   R(48,54)                1.0115                                         !
 ! R56   R(48,55)                1.0093                                         !
 ! R57   R(56,57)                1.4689                                         !
 ! R58   R(56,68)                1.0246                                         !
 ! R59   R(57,58)                1.5531                                         !
 ! R60   R(57,60)                1.5405                                         !
 ! R61   R(57,69)                1.0966                                         !
 ! R62   R(58,59)                1.267                                          !
 ! R63   R(58,67)                1.2602                                         !
 ! R64   R(60,61)                1.5456                                         !
 ! R65   R(60,70)                1.095                                          !
 ! R66   R(60,71)                1.0965                                         !
 ! R67   R(61,62)                1.5396                                         !
 ! R68   R(61,72)                1.0994                                         !
 ! R69   R(61,73)                1.0973                                         !
 ! R70   R(62,63)                1.4718                                         !
 ! R71   R(62,74)                1.0954                                         !
 ! R72   R(62,75)                1.0928                                         !
 ! R73   R(63,64)                1.3349                                         !
 ! R74   R(63,76)                1.0276                                         !
 ! R75   R(64,65)                1.3499                                         !
 ! R76   R(64,66)                1.3389                                         !
 ! R77   R(65,77)                1.0092                                         !
 ! R78   R(65,78)                1.0093                                         !
 ! R79   R(66,79)                1.0102                                         !
 ! R80   R(66,80)                1.0344                                         !
 ! A1    A(2,1,12)             111.916                                          !
 ! A2    A(2,1,21)             114.9039                                         !
 ! A3    A(2,1,22)             114.6002                                         !
 ! A4    A(12,1,21)            102.5144                                         !
 ! A5    A(12,1,22)            105.5601                                         !
 ! A6    A(21,1,22)            106.2356                                         !
 ! A7    A(1,2,3)              108.0829                                         !
 ! A8    A(1,2,5)              109.4938                                         !
 ! A9    A(1,2,13)             107.4221                                         !
 ! A10   A(3,2,5)              114.6298                                         !
 ! A11   A(3,2,13)             106.6253                                         !
 ! A12   A(5,2,13)             110.3093                                         !
 ! A13   A(2,3,4)              120.4902                                         !
 ! A14   A(2,3,23)             114.4177                                         !
 ! A15   A(4,3,23)             125.0897                                         !
 ! A16   A(2,5,6)              112.2195                                         !
 ! A17   A(2,5,14)             106.9097                                         !
 ! A18   A(2,5,15)             109.5645                                         !
 ! A19   A(6,5,14)             110.9487                                         !
 ! A20   A(6,5,15)             110.1156                                         !
 ! A21   A(14,5,15)            106.8962                                         !
 ! A22   A(5,6,7)              120.3355                                         !
 ! A23   A(5,6,8)              120.5244                                         !
 ! A24   A(7,6,8)              119.088                                          !
 ! A25   A(6,7,9)              120.5314                                         !
 ! A26   A(6,7,16)             119.6396                                         !
 ! A27   A(9,7,16)             119.826                                          !
 ! A28   A(6,8,10)             120.3642                                         !
 ! A29   A(6,8,17)             119.9971                                         !
 ! A30   A(10,8,17)            119.6224                                         !
 ! A31   A(7,9,11)             120.048                                          !
 ! A32   A(7,9,18)             119.82                                           !
 ! A33   A(11,9,18)            120.1313                                         !
 ! A34   A(8,10,11)            120.1967                                         !
 ! A35   A(8,10,19)            119.5425                                         !
 ! A36   A(11,10,19)           120.2599                                         !
 ! A37   A(9,11,10)            119.7698                                         !
 ! A38   A(9,11,20)            120.0059                                         !
 ! A39   A(10,11,20)           120.224                                          !
 ! A40   A(3,23,24)            122.356                                          !
 ! A41   A(3,23,31)            117.6246                                         !
 ! A42   A(24,23,31)           114.4119                                         !
 ! A43   A(23,24,25)           103.8727                                         !
 ! A44   A(23,24,27)           112.4857                                         !
 ! A45   A(23,24,32)           106.8793                                         !
 ! A46   A(25,24,27)           116.3303                                         !
 ! A47   A(25,24,32)           106.0088                                         !
 ! A48   A(27,24,32)           110.5766                                         !
 ! A49   A(24,25,26)           121.8892                                         !
 ! A50   A(24,25,42)           115.8519                                         !
 ! A51   A(26,25,42)           121.9582                                         !
 ! A52   A(24,27,28)           114.3802                                         !
 ! A53   A(24,27,33)           109.9039                                         !
 ! A54   A(24,27,34)           107.9942                                         !
 ! A55   A(28,27,33)           108.2641                                         !
 ! A56   A(28,27,34)           109.6234                                         !
 ! A57   A(33,27,34)           106.3813                                         !
 ! A58   A(27,28,29)           109.6112                                         !
 ! A59   A(27,28,30)           112.3967                                         !
 ! A60   A(27,28,35)           107.4087                                         !
 ! A61   A(29,28,30)           110.9981                                         !
 ! A62   A(29,28,35)           108.1467                                         !
 ! A63   A(30,28,35)           108.1134                                         !
 ! A64   A(28,29,36)           110.8409                                         !
 ! A65   A(28,29,37)           110.87                                           !
 ! A66   A(28,29,38)           111.7377                                         !
 ! A67   A(36,29,37)           107.5866                                         !
 ! A68   A(36,29,38)           107.8093                                         !
 ! A69   A(37,29,38)           107.8262                                         !
 ! A70   A(28,30,39)           110.822                                          !
 ! A71   A(28,30,40)           112.0002                                         !
 ! A72   A(28,30,41)           110.3011                                         !
 ! A73   A(39,30,40)           108.6142                                         !
 ! A74   A(39,30,41)           107.5093                                         !
 ! A75   A(40,30,41)           107.4275                                         !
 ! A76   A(25,42,43)           117.6762                                         !
 ! A77   A(25,42,50)           116.4617                                         !
 ! A78   A(43,42,50)           115.4173                                         !
 ! A79   A(42,43,44)           109.241                                          !
 ! A80   A(42,43,46)           110.1912                                         !
 ! A81   A(42,43,51)           107.0336                                         !
 ! A82   A(44,43,46)           113.3111                                         !
 ! A83   A(44,43,51)           107.4811                                         !
 ! A84   A(46,43,51)           109.3587                                         !
 ! A85   A(43,44,45)           119.8985                                         !
 ! A86   A(43,44,56)           115.0714                                         !
 ! A87   A(45,44,56)           125.0257                                         !
 ! A88   A(43,46,47)           113.4191                                         !
 ! A89   A(43,46,52)           107.8318                                         !
 ! A90   A(43,46,53)           111.0428                                         !
 ! A91   A(47,46,52)           109.1171                                         !
 ! A92   A(47,46,53)           108.4793                                         !
 ! A93   A(52,46,53)           106.7235                                         !
 ! A94   A(46,47,48)           115.1691                                         !
 ! A95   A(46,47,49)           123.0763                                         !
 ! A96   A(48,47,49)           121.7483                                         !
 ! A97   A(47,48,54)           118.3213                                         !
 ! A98   A(47,48,55)           122.841                                          !
 ! A99   A(54,48,55)           118.3226                                         !
 ! A100  A(44,56,57)           127.9354                                         !
 ! A101  A(44,56,68)           114.8391                                         !
 ! A102  A(57,56,68)           117.1007                                         !
 ! A103  A(56,57,58)           110.8695                                         !
 ! A104  A(56,57,60)           112.1337                                         !
 ! A105  A(56,57,69)           104.2606                                         !
 ! A106  A(58,57,60)           114.6432                                         !
 ! A107  A(58,57,69)           105.1131                                         !
 ! A108  A(60,57,69)           109.0314                                         !
 ! A109  A(57,58,59)           118.454                                          !
 ! A110  A(57,58,67)           116.0119                                         !
 ! A111  A(59,58,67)           125.4158                                         !
 ! A112  A(57,60,61)           115.059                                          !
 ! A113  A(57,60,70)           108.7589                                         !
 ! A114  A(57,60,71)           107.396                                          !
 ! A115  A(61,60,70)           110.8402                                         !
 ! A116  A(61,60,71)           106.9609                                         !
 ! A117  A(70,60,71)           107.5034                                         !
 ! A118  A(60,61,62)           118.0279                                         !
 ! A119  A(60,61,72)           109.6154                                         !
 ! A120  A(60,61,73)           107.9814                                         !
 ! A121  A(62,61,72)           108.8557                                         !
 ! A122  A(62,61,73)           105.7377                                         !
 ! A123  A(72,61,73)           105.9104                                         !
 ! A124  A(61,62,63)           114.8324                                         !
 ! A125  A(61,62,74)           109.6692                                         !
 ! A126  A(61,62,75)           110.3218                                         !
 ! A127  A(63,62,74)           109.73                                           !
 ! A128  A(63,62,75)           105.3199                                         !
 ! A129  A(74,62,75)           106.5884                                         !
 ! A130  A(62,63,64)           126.0506                                         !
 ! A131  A(62,63,76)           112.2785                                         !
 ! A132  A(64,63,76)           116.474                                          !
 ! A133  A(63,64,65)           120.1939                                         !
 ! A134  A(63,64,66)           119.6053                                         !
 ! A135  A(65,64,66)           120.1988                                         !
 ! A136  A(64,65,77)           120.8682                                         !
 ! A137  A(64,65,78)           120.394                                          !
 ! A138  A(77,65,78)           117.023                                          !
 ! A139  A(64,66,79)           120.4013                                         !
 ! A140  A(64,66,80)           119.443                                          !
 ! A141  A(79,66,80)           117.9772                                         !
 ! D1    D(12,1,2,3)            56.7287                                         !
 ! D2    D(12,1,2,5)           -68.7678                                         !
 ! D3    D(12,1,2,13)          171.4316                                         !
 ! D4    D(21,1,2,3)           173.1069                                         !
 ! D5    D(21,1,2,5)            47.6104                                         !
 ! D6    D(21,1,2,13)          -72.1903                                         !
 ! D7    D(22,1,2,3)           -63.4175                                         !
 ! D8    D(22,1,2,5)           171.086                                          !
 ! D9    D(22,1,2,13)           51.2854                                         !
 ! D10   D(1,2,3,4)            111.3403                                         !
 ! D11   D(1,2,3,23)           -68.1243                                         !
 ! D12   D(5,2,3,4)           -126.2563                                         !
 ! D13   D(5,2,3,23)            54.279                                          !
 ! D14   D(13,2,3,4)            -3.8865                                         !
 ! D15   D(13,2,3,23)          176.6488                                         !
 ! D16   D(1,2,5,6)            -63.3398                                         !
 ! D17   D(1,2,5,14)           174.8                                            !
 ! D18   D(1,2,5,15)            59.3055                                         !
 ! D19   D(3,2,5,6)            175.0245                                         !
 ! D20   D(3,2,5,14)            53.1643                                         !
 ! D21   D(3,2,5,15)           -62.3303                                         !
 ! D22   D(13,2,5,6)            54.6739                                         !
 ! D23   D(13,2,5,14)          -67.1863                                         !
 ! D24   D(13,2,5,15)          177.3192                                         !
 ! D25   D(2,3,23,24)          160.6018                                         !
 ! D26   D(2,3,23,31)            8.5029                                         !
 ! D27   D(4,3,23,24)          -18.8344                                         !
 ! D28   D(4,3,23,31)         -170.9333                                         !
 ! D29   D(2,5,6,7)            -82.5097                                         !
 ! D30   D(2,5,6,8)             94.8407                                         !
 ! D31   D(14,5,6,7)            37.0163                                         !
 ! D32   D(14,5,6,8)          -145.6333                                         !
 ! D33   D(15,5,6,7)           155.1573                                         !
 ! D34   D(15,5,6,8)           -27.4923                                         !
 ! D35   D(5,6,7,9)            177.5977                                         !
 ! D36   D(5,6,7,16)            -3.0313                                         !
 ! D37   D(8,6,7,9)              0.2095                                         !
 ! D38   D(8,6,7,16)           179.5804                                         !
 ! D39   D(5,6,8,10)          -177.199                                          !
 ! D40   D(5,6,8,17)             1.3255                                         !
 ! D41   D(7,6,8,10)             0.1842                                         !
 ! D42   D(7,6,8,17)           178.7086                                         !
 ! D43   D(6,7,9,11)            -0.3278                                         !
 ! D44   D(6,7,9,18)           179.3615                                         !
 ! D45   D(16,7,9,11)         -179.6976                                         !
 ! D46   D(16,7,9,18)           -0.0083                                         !
 ! D47   D(6,8,10,11)           -0.4608                                         !
 ! D48   D(6,8,10,19)          179.8637                                         !
 ! D49   D(17,8,10,11)        -178.9908                                         !
 ! D50   D(17,8,10,19)           1.3337                                         !
 ! D51   D(7,9,11,10)            0.0509                                         !
 ! D52   D(7,9,11,20)          179.8297                                         !
 ! D53   D(18,9,11,10)        -179.6375                                         !
 ! D54   D(18,9,11,20)           0.1413                                         !
 ! D55   D(8,10,11,9)            0.3417                                         !
 ! D56   D(8,10,11,20)        -179.4366                                         !
 ! D57   D(19,10,11,9)        -179.9852                                         !
 ! D58   D(19,10,11,20)          0.2365                                         !
 ! D59   D(3,23,24,25)        -112.2836                                         !
 ! D60   D(3,23,24,27)         121.0832                                         !
 ! D61   D(3,23,24,32)          -0.4571                                         !
 ! D62   D(31,23,24,25)         40.6316                                         !
 ! D63   D(31,23,24,27)        -86.0015                                         !
 ! D64   D(31,23,24,32)        152.4582                                         !
 ! D65   D(23,24,25,26)         94.6829                                         !
 ! D66   D(23,24,25,42)        -79.1342                                         !
 ! D67   D(27,24,25,26)       -141.139                                          !
 ! D68   D(27,24,25,42)         45.044                                          !
 ! D69   D(32,24,25,26)        -17.7751                                         !
 ! D70   D(32,24,25,42)        168.4079                                         !
 ! D71   D(23,24,27,28)        -61.1811                                         !
 ! D72   D(23,24,27,33)         60.8265                                         !
 ! D73   D(23,24,27,34)        176.483                                          !
 ! D74   D(25,24,27,28)        179.1903                                         !
 ! D75   D(25,24,27,33)        -58.8022                                         !
 ! D76   D(25,24,27,34)         56.8543                                         !
 ! D77   D(32,24,27,28)         58.2286                                         !
 ! D78   D(32,24,27,33)       -179.7638                                         !
 ! D79   D(32,24,27,34)        -64.1073                                         !
 ! D80   D(24,25,42,43)        150.954                                          !
 ! D81   D(24,25,42,50)          7.5905                                         !
 ! D82   D(26,25,42,43)        -22.8583                                         !
 ! D83   D(26,25,42,50)       -166.2219                                         !
 ! D84   D(24,27,28,29)        176.3712                                         !
 ! D85   D(24,27,28,30)        -59.6923                                         !
 ! D86   D(24,27,28,35)         59.0989                                         !
 ! D87   D(33,27,28,29)         53.4715                                         !
 ! D88   D(33,27,28,30)        177.408                                          !
 ! D89   D(33,27,28,35)        -63.8008                                         !
 ! D90   D(34,27,28,29)        -62.1847                                         !
 ! D91   D(34,27,28,30)         61.7517                                         !
 ! D92   D(34,27,28,35)       -179.457                                          !
 ! D93   D(27,28,29,36)         63.626                                          !
 ! D94   D(27,28,29,37)       -176.9584                                         !
 ! D95   D(27,28,29,38)        -56.6455                                         !
 ! D96   D(30,28,29,36)        -61.125                                          !
 ! D97   D(30,28,29,37)         58.2906                                         !
 ! D98   D(30,28,29,38)        178.6036                                         !
 ! D99   D(35,28,29,36)       -179.5653                                         !
 ! D100  D(35,28,29,37)        -60.1497                                         !
 ! D101  D(35,28,29,38)         60.1632                                         !
 ! D102  D(27,28,30,39)        -56.1811                                         !
 ! D103  D(27,28,30,40)         65.2834                                         !
 ! D104  D(27,28,30,41)       -175.1208                                         !
 ! D105  D(29,28,30,39)         66.9815                                         !
 ! D106  D(29,28,30,40)       -171.554                                          !
 ! D107  D(29,28,30,41)        -51.9582                                         !
 ! D108  D(35,28,30,39)       -174.5581                                         !
 ! D109  D(35,28,30,40)        -53.0935                                         !
 ! D110  D(35,28,30,41)         66.5023                                         !
 ! D111  D(25,42,43,44)        -68.6277                                         !
 ! D112  D(25,42,43,46)        166.2768                                         !
 ! D113  D(25,42,43,51)         47.4569                                         !
 ! D114  D(50,42,43,44)         75.1111                                         !
 ! D115  D(50,42,43,46)        -49.9844                                         !
 ! D116  D(50,42,43,51)       -168.8044                                         !
 ! D117  D(42,43,44,45)        -15.5528                                         !
 ! D118  D(42,43,44,56)        163.7205                                         !
 ! D119  D(46,43,44,45)        107.7092                                         !
 ! D120  D(46,43,44,56)        -73.0174                                         !
 ! D121  D(51,43,44,45)       -131.3516                                         !
 ! D122  D(51,43,44,56)         47.9218                                         !
 ! D123  D(42,43,46,47)       -154.3109                                         !
 ! D124  D(42,43,46,52)        -33.3642                                         !
 ! D125  D(42,43,46,53)         83.2275                                         !
 ! D126  D(44,43,46,47)         82.9513                                         !
 ! D127  D(44,43,46,52)       -156.102                                          !
 ! D128  D(44,43,46,53)        -39.5103                                         !
 ! D129  D(51,43,46,47)        -36.9223                                         !
 ! D130  D(51,43,46,52)         84.0245                                         !
 ! D131  D(51,43,46,53)       -159.3838                                         !
 ! D132  D(43,44,56,57)       -177.8561                                         !
 ! D133  D(43,44,56,68)          6.3614                                         !
 ! D134  D(45,44,56,57)          1.3746                                         !
 ! D135  D(45,44,56,68)       -174.4078                                         !
 ! D136  D(43,46,47,48)        162.6558                                         !
 ! D137  D(43,46,47,49)        -18.2523                                         !
 ! D138  D(52,46,47,48)         42.4357                                         !
 ! D139  D(52,46,47,49)       -138.4724                                         !
 ! D140  D(53,46,47,48)        -73.4733                                         !
 ! D141  D(53,46,47,49)        105.6186                                         !
 ! D142  D(46,47,48,54)       -178.6752                                         !
 ! D143  D(46,47,48,55)         -7.0537                                         !
 ! D144  D(49,47,48,54)          2.2197                                         !
 ! D145  D(49,47,48,55)        173.8411                                         !
 ! D146  D(44,56,57,58)         32.7971                                         !
 ! D147  D(44,56,57,60)        -96.7575                                         !
 ! D148  D(44,56,57,69)        145.4286                                         !
 ! D149  D(68,56,57,58)       -151.5025                                         !
 ! D150  D(68,56,57,60)         78.9429                                         !
 ! D151  D(68,56,57,69)        -38.871                                          !
 ! D152  D(56,57,58,59)       -111.1285                                         !
 ! D153  D(56,57,58,67)         72.6113                                         !
 ! D154  D(60,57,58,59)         17.0799                                         !
 ! D155  D(60,57,58,67)       -159.1802                                         !
 ! D156  D(69,57,58,59)        136.7831                                         !
 ! D157  D(69,57,58,67)        -39.4771                                         !
 ! D158  D(56,57,60,61)       -151.3888                                         !
 ! D159  D(56,57,60,70)         83.6124                                         !
 ! D160  D(56,57,60,71)        -32.4447                                         !
 ! D161  D(58,57,60,61)         81.0427                                         !
 ! D162  D(58,57,60,70)        -43.9561                                         !
 ! D163  D(58,57,60,71)       -160.0132                                         !
 ! D164  D(69,57,60,61)        -36.4526                                         !
 ! D165  D(69,57,60,70)       -161.4515                                         !
 ! D166  D(69,57,60,71)         82.4915                                         !
 ! D167  D(57,60,61,62)        -79.4587                                         !
 ! D168  D(57,60,61,72)         45.8792                                         !
 ! D169  D(57,60,61,73)        160.8172                                         !
 ! D170  D(70,60,61,62)         44.4478                                         !
 ! D171  D(70,60,61,72)        169.7858                                         !
 ! D172  D(70,60,61,73)        -75.2763                                         !
 ! D173  D(71,60,61,62)        161.3551                                         !
 ! D174  D(71,60,61,72)        -73.3069                                         !
 ! D175  D(71,60,61,73)         41.631                                          !
 ! D176  D(60,61,62,63)         65.7159                                         !
 ! D177  D(60,61,62,74)       -170.1979                                         !
 ! D178  D(60,61,62,75)        -53.0888                                         !
 ! D179  D(72,61,62,63)        -59.9934                                         !
 ! D180  D(72,61,62,74)         64.0928                                         !
 ! D181  D(72,61,62,75)       -178.7981                                         !
 ! D182  D(73,61,62,63)       -173.3966                                         !
 ! D183  D(73,61,62,74)        -49.3103                                         !
 ! D184  D(73,61,62,75)         67.7988                                         !
 ! D185  D(61,62,63,64)         70.6308                                         !
 ! D186  D(61,62,63,76)        -82.7591                                         !
 ! D187  D(74,62,63,64)        -53.4233                                         !
 ! D188  D(74,62,63,76)        153.1868                                         !
 ! D189  D(75,62,63,64)       -167.7992                                         !
 ! D190  D(75,62,63,76)         38.8109                                         !
 ! D191  D(62,63,64,65)         31.1322                                         !
 ! D192  D(62,63,64,66)       -149.3709                                         !
 ! D193  D(76,63,64,65)       -176.451                                          !
 ! D194  D(76,63,64,66)          3.0459                                         !
 ! D195  D(63,64,65,77)       -174.9132                                         !
 ! D196  D(63,64,65,78)         20.4491                                         !
 ! D197  D(66,64,65,77)          5.5929                                         !
 ! D198  D(66,64,65,78)       -159.0448                                         !
 ! D199  D(63,64,66,79)       -168.7292                                         !
 ! D200  D(63,64,66,80)         28.3779                                         !
 ! D201  D(65,64,66,79)         10.7677                                         !
 ! D202  D(65,64,66,80)       -152.1252                                         !
 --------------------------------------------------------------------------------
 Symmetry turned off by external request.
 Stoichiometry    C25H41N8O6(1+)
 Framework group  C1[X(C25H41N8O6)]
 Deg. of freedom   234
 Full point group                 C1      NOp   1
                          Input orientation:                          
 ---------------------------------------------------------------------
 Center     Atomic      Atomic             Coordinates (Angstroms)
 Number     Number       Type             X           Y           Z
 ---------------------------------------------------------------------
      1          7           0       -0.891284   10.606747   -7.090528
      2          6           0       -0.248680   10.514556   -5.733499
      3          6           0       -1.114860    9.585269   -4.855019
      4          8           0       -0.696593    8.491245   -4.510879
      5          6           0       -0.045585   11.932121   -5.163155
      6          6           0        0.906545   12.756257   -6.003378
      7          6           0        2.292633   12.623754   -5.838557
      8          6           0        0.417762   13.619377   -6.992613
      9          6           0        3.173671   13.343628   -6.644223
     10          6           0        1.300770   14.334187   -7.805019
     11          6           0        2.678347   14.201170   -7.630911
     12          1           0       -1.878977   10.943220   -7.032360
     13          1           0        0.713418   10.016202   -5.860847
     14          1           0        0.334826   11.813535   -4.142723
     15          1           0       -1.014670   12.438744   -5.085072
     16          1           0        2.682019   11.961097   -5.068432
     17          1           0       -0.653228   13.717401   -7.147162
     18          1           0        4.245243   13.240044   -6.499638
     19          1           0        0.907127   14.998227   -8.569593
     20          1           0        3.365455   14.763888   -8.256476
     21          1           0       -0.456814   11.295082   -7.733804
     22          1           0       -0.932462    9.720539   -7.604335
     23          7           0       -2.339946   10.093051   -4.534127
     24          6           0       -3.453175    9.240161   -4.080556
     25          6           0       -4.473241    9.322456   -5.230211
     26          8           0       -4.510171    8.489041   -6.119476
     27          6           0       -3.963600    9.632965   -2.688991
     28          6           0       -2.911222    9.515408   -1.568562
     29          6           0       -3.507874   10.018549   -0.246260
     30          6           0       -2.371806    8.084813   -1.419994
     31          1           0       -2.628989   10.951233   -4.993610
     32          1           0       -3.085219    8.214365   -4.078089
     33          1           0       -4.336078   10.668379   -2.705049
     34          1           0       -4.827383    8.996551   -2.452166
     35          1           0       -2.070553   10.171645   -1.836632
     36          1           0       -4.349267    9.387598    0.067576
     37          1           0       -2.759834    9.994526    0.553538
     38          1           0       -3.874843   11.048914   -0.332073
     39          1           0       -3.191204    7.374745   -1.246896
     40          1           0       -1.812387    7.763841   -2.303860
     41          1           0       -1.693841    8.021413   -0.561661
     42          7           0       -5.253234   10.466146   -5.264676
     43          6           0       -5.726924   10.920295   -6.559195
     44          6           0       -4.517136   11.433861   -7.397700
     45          8           0       -3.429310   11.680025   -6.835124
     46          6           0       -6.836086   11.975011   -6.379656
     47          6           0       -7.798966   12.053700   -7.567354
     48          7           0       -8.972793   12.677745   -7.316082
     49          8           0       -7.530640   11.601247   -8.681889
     50          1           0       -5.008980   11.198779   -4.609768
     51          1           0       -6.136355   10.048371   -7.073966
     52          1           0       -7.400852   11.717743   -5.476073
     53          1           0       -6.408165   12.972777   -6.211612
     54          1           0       -9.653149   12.738728   -8.062075
     55          1           0       -9.248263   12.973962   -6.391335
     56          7           0       -4.748302   11.559697   -8.704002
     57          6           0       -3.806136   11.974011   -9.751997
     58          6           0       -2.364631   11.502183   -9.418063
     59          8           0       -1.497196   12.376250   -9.119964
     60          6           0       -3.930473   13.472966  -10.084669
     61          6           0       -3.550245   13.855833  -11.533039
     62          6           0       -2.055563   13.986681  -11.878080
     63          7           0       -1.291408   12.731159  -11.801856
     64          6           0       -1.389987   11.699234  -12.642858
     65          7           0       -1.704303   11.907422  -13.939057
     66          7           0       -1.165337   10.457446  -12.195389
     67          8           0       -2.144799   10.267449   -9.541252
     68          1           0       -5.720585   11.402223   -8.986156
     69          1           0       -4.102980   11.387168  -10.629474
     70          1           0       -3.338064   14.044284   -9.362411
     71          1           0       -4.981213   13.753739   -9.944928
     72          1           0       -4.016697   13.150678  -12.235737
     73          1           0       -3.993078   14.835693  -11.751762
     74          1           0       -1.944451   14.427274  -12.874770
     75          1           0       -1.562963   14.667352  -11.179403
     76          1           0       -0.994402   12.513498  -10.842484
     77          1           0       -1.856277   11.131422  -14.566066
     78          1           0       -1.568617   12.815610  -14.357887
     79          1           0       -1.068558    9.689729  -12.844817
     80          1           0       -1.352101   10.232996  -11.203054
 ---------------------------------------------------------------------
 Rotational constants (GHZ):           0.0987089           0.0714684           0.0486835
 Standard basis: 6-31G(d) (6D, 7F)
   667 basis functions,  1256 primitive gaussians,   667 cartesian basis functions
   147 alpha electrons      147 beta electrons
       nuclear repulsion energy      4892.6704192481 Hartrees.
 NAtoms=   80 NActive=   80 NUniq=   80 SFac= 1.00D+00 NAtFMM=   60 NAOKFM=T Big=T
 Integral buffers will be    131072 words long.
 Raffenetti 2 integral format.
 Two-electron integral symmetry is turned off.
 Nuclear repulsion after empirical dispersion term =     4892.5580127227 Hartrees.
 One-electron integrals computed using PRISM.
 NBasis=   667 RedAO= T EigKep=  4.67D-04  NBF=   667
 NBsUse=   667 1.00D-06 EigRej= -1.00D+00 NBFU=   667
 Initial guess from the checkpoint file:  "conf-112.chk"
 B after Tr=     0.000000    0.000000    0.000000
         Rot=    1.000000    0.000000    0.000000    0.000000 Ang=   0.00 deg.
 Requested convergence on RMS density matrix=1.00D-08 within 128 cycles.
 Requested convergence on MAX density matrix=1.00D-06.
 Requested convergence on             energy=1.00D-06.
 No special actions if energy rises.
 SCF Done:  E(RB3LYP) =  -1866.73896580     A.U. after    2 cycles
            NFock=  2  Conv=0.80D-08     -V/T= 2.0094

 **********************************************************************

            Population analysis using the SCF Density.

 **********************************************************************

 Alpha  occ. eigenvalues --  -19.23095 -19.22472 -19.21001 -19.20417 -19.19686
 Alpha  occ. eigenvalues --  -19.19431 -14.52312 -14.50615 -14.48679 -14.48340
 Alpha  occ. eigenvalues --  -14.46119 -14.45837 -14.45224 -14.45020 -10.45953
 Alpha  occ. eigenvalues --  -10.40122 -10.39487 -10.38395 -10.37717 -10.37376
 Alpha  occ. eigenvalues --  -10.34986 -10.34189 -10.33531 -10.32274 -10.31307
 Alpha  occ. eigenvalues --  -10.30991 -10.29783 -10.29530 -10.28188 -10.28138
 Alpha  occ. eigenvalues --  -10.26994 -10.26876 -10.26818 -10.26763 -10.26693
 Alpha  occ. eigenvalues --  -10.26505 -10.25515 -10.23361 -10.22589  -1.14770
 Alpha  occ. eigenvalues --   -1.14392  -1.14005  -1.13113  -1.12981  -1.12180
 Alpha  occ. eigenvalues --   -1.07841  -1.04385  -1.03331  -1.02618  -1.02260
 Alpha  occ. eigenvalues --   -1.02221  -1.01245  -1.00890  -0.93858  -0.90099
 Alpha  occ. eigenvalues --   -0.89417  -0.88259  -0.87517  -0.84670  -0.83407
 Alpha  occ. eigenvalues --   -0.82285  -0.81292  -0.79559  -0.77135  -0.75502
 Alpha  occ. eigenvalues --   -0.75466  -0.73996  -0.72949  -0.71523  -0.70772
 Alpha  occ. eigenvalues --   -0.70154  -0.68688  -0.68292  -0.68234  -0.67757
 Alpha  occ. eigenvalues --   -0.67288  -0.66926  -0.66017  -0.65622  -0.64119
 Alpha  occ. eigenvalues --   -0.63924  -0.63614  -0.63006  -0.62653  -0.61350
 Alpha  occ. eigenvalues --   -0.60507  -0.59467  -0.59340  -0.58974  -0.58663
 Alpha  occ. eigenvalues --   -0.57005  -0.56026  -0.55920  -0.55702  -0.55031
 Alpha  occ. eigenvalues --   -0.54500  -0.54307  -0.53615  -0.53589  -0.53286
 Alpha  occ. eigenvalues --   -0.53148  -0.52555  -0.52206  -0.51970  -0.50747
 Alpha  occ. eigenvalues --   -0.50554  -0.50403  -0.50051  -0.49911  -0.49486
 Alpha  occ. eigenvalues --   -0.49137  -0.48699  -0.48244  -0.47813  -0.47625
 Alpha  occ. eigenvalues --   -0.47172  -0.46903  -0.46559  -0.46134  -0.45970
 Alpha  occ. eigenvalues --   -0.45447  -0.45007  -0.44492  -0.44103  -0.43940
 Alpha  occ. eigenvalues --   -0.43655  -0.42923  -0.42221  -0.41920  -0.41314
 Alpha  occ. eigenvalues --   -0.39743  -0.38940  -0.38818  -0.38401  -0.37738
 Alpha  occ. eigenvalues --   -0.37226  -0.36687  -0.36357  -0.35970  -0.35778
 Alpha  occ. eigenvalues --   -0.35101  -0.34622  -0.34153  -0.33145  -0.32789
 Alpha  occ. eigenvalues --   -0.32478  -0.32303
 Alpha virt. eigenvalues --   -0.10850  -0.09762  -0.08831  -0.08294  -0.08072
 Alpha virt. eigenvalues --   -0.07977  -0.07188  -0.06291  -0.05645  -0.03188
 Alpha virt. eigenvalues --   -0.02409  -0.01765  -0.01106  -0.00278   0.00098
 Alpha virt. eigenvalues --    0.00743   0.01478   0.01790   0.02397   0.02959
 Alpha virt. eigenvalues --    0.03388   0.03612   0.04077   0.04669   0.04959
 Alpha virt. eigenvalues --    0.05295   0.05539   0.05687   0.06056   0.06308
 Alpha virt. eigenvalues --    0.06356   0.06595   0.07161   0.07561   0.07726
 Alpha virt. eigenvalues --    0.08196   0.08360   0.08667   0.09094   0.09369
 Alpha virt. eigenvalues --    0.09767   0.10229   0.10294   0.10482   0.10665
 Alpha virt. eigenvalues --    0.11081   0.11914   0.12053   0.12225   0.12344
 Alpha virt. eigenvalues --    0.12550   0.12932   0.13370   0.13557   0.13630
 Alpha virt. eigenvalues --    0.14120   0.14540   0.15159   0.15502   0.15665
 Alpha virt. eigenvalues --    0.16129   0.16541   0.16886   0.17328   0.17871
 Alpha virt. eigenvalues --    0.18569   0.19080   0.19743   0.20334   0.21293
 Alpha virt. eigenvalues --    0.22599   0.23153   0.23941   0.24626   0.24961
 Alpha virt. eigenvalues --    0.25696   0.26037   0.26327   0.26805   0.27526
 Alpha virt. eigenvalues --    0.29071   0.30099   0.30842   0.31554   0.32612
 Alpha virt. eigenvalues --    0.32890   0.34227   0.36493   0.37506   0.38937
 Alpha virt. eigenvalues --    0.40564   0.41120   0.41616   0.42158   0.42548
 Alpha virt. eigenvalues --    0.42719   0.42951   0.43566   0.43783   0.44151
 Alpha virt. eigenvalues --    0.44317   0.44946   0.45544   0.45772   0.46010
 Alpha virt. eigenvalues --    0.46204   0.46864   0.47189   0.47506   0.48286
 Alpha virt. eigenvalues --    0.48708   0.48761   0.49437   0.49631   0.50257
 Alpha virt. eigenvalues --    0.50607   0.50827   0.51322   0.51616   0.51983
 Alpha virt. eigenvalues --    0.52426   0.53127   0.53297   0.53494   0.53786
 Alpha virt. eigenvalues --    0.54101   0.54389   0.54956   0.55211   0.55576
 Alpha virt. eigenvalues --    0.55811   0.56122   0.56821   0.56964   0.57249
 Alpha virt. eigenvalues --    0.57689   0.58235   0.58579   0.58949   0.59392
 Alpha virt. eigenvalues --    0.59656   0.60062   0.61088   0.61532   0.62335
 Alpha virt. eigenvalues --    0.62740   0.63275   0.64330   0.64664   0.65019
 Alpha virt. eigenvalues --    0.65208   0.65664   0.66710   0.66809   0.67472
 Alpha virt. eigenvalues --    0.68269   0.68779   0.69112   0.69651   0.70926
 Alpha virt. eigenvalues --    0.71250   0.71538   0.72134   0.72451   0.73323
 Alpha virt. eigenvalues --    0.73808   0.74160   0.74405   0.74909   0.75306
 Alpha virt. eigenvalues --    0.75456   0.75632   0.76402   0.76508   0.76873
 Alpha virt. eigenvalues --    0.77043   0.77587   0.77795   0.77889   0.78527
 Alpha virt. eigenvalues --    0.78783   0.79185   0.79274   0.79531   0.80080
 Alpha virt. eigenvalues --    0.80693   0.81071   0.81888   0.82108   0.82427
 Alpha virt. eigenvalues --    0.82725   0.83299   0.83533   0.83858   0.84380
 Alpha virt. eigenvalues --    0.84707   0.84875   0.84981   0.85438   0.85596
 Alpha virt. eigenvalues --    0.85952   0.86393   0.86742   0.87530   0.87700
 Alpha virt. eigenvalues --    0.88092   0.88321   0.88762   0.89327   0.89578
 Alpha virt. eigenvalues --    0.90478   0.90781   0.90933   0.91720   0.92137
 Alpha virt. eigenvalues --    0.92918   0.93443   0.93676   0.94640   0.95146
 Alpha virt. eigenvalues --    0.95903   0.96181   0.97005   0.98289   0.98740
 Alpha virt. eigenvalues --    0.99870   1.00528   1.01159   1.01569   1.02645
 Alpha virt. eigenvalues --    1.02803   1.03286   1.04045   1.05044   1.05618
 Alpha virt. eigenvalues --    1.06193   1.06621   1.07946   1.08588   1.09445
 Alpha virt. eigenvalues --    1.10240   1.10347   1.11951   1.12731   1.13464
 Alpha virt. eigenvalues --    1.14419   1.14684   1.15845   1.16067   1.16651
 Alpha virt. eigenvalues --    1.17404   1.18673   1.19176   1.19534   1.20609
 Alpha virt. eigenvalues --    1.21052   1.21663   1.22968   1.23541   1.24014
 Alpha virt. eigenvalues --    1.25820   1.26147   1.27414   1.27660   1.27810
 Alpha virt. eigenvalues --    1.29330   1.29826   1.30877   1.32730   1.34447
 Alpha virt. eigenvalues --    1.34949   1.35501   1.36714   1.37448   1.38523
 Alpha virt. eigenvalues --    1.38924   1.39483   1.40051   1.40283   1.40333
 Alpha virt. eigenvalues --    1.40661   1.41100   1.42166   1.42499   1.43471
 Alpha virt. eigenvalues --    1.44105   1.44526   1.44891   1.46423   1.46767
 Alpha virt. eigenvalues --    1.47959   1.49994   1.50844   1.51699   1.52361
 Alpha virt. eigenvalues --    1.53368   1.54648   1.55139   1.55752   1.56291
 Alpha virt. eigenvalues --    1.57274   1.57518   1.59222   1.60270   1.61265
 Alpha virt. eigenvalues --    1.61685   1.63180   1.63703   1.64265   1.65303
 Alpha virt. eigenvalues --    1.65777   1.66727   1.67388   1.67674   1.67864
 Alpha virt. eigenvalues --    1.68784   1.69772   1.70161   1.70541   1.70984
 Alpha virt. eigenvalues --    1.71408   1.72215   1.73138   1.73430   1.73960
 Alpha virt. eigenvalues --    1.74318   1.74805   1.75033   1.75593   1.76643
 Alpha virt. eigenvalues --    1.77185   1.78069   1.78366   1.79495   1.79780
 Alpha virt. eigenvalues --    1.80555   1.80741   1.81276   1.81883   1.82222
 Alpha virt. eigenvalues --    1.83119   1.83697   1.84155   1.84212   1.84821
 Alpha virt. eigenvalues --    1.85320   1.86234   1.87013   1.87880   1.88283
 Alpha virt. eigenvalues --    1.88791   1.89395   1.89684   1.89821   1.90243
 Alpha virt. eigenvalues --    1.91117   1.91489   1.92508   1.92812   1.93287
 Alpha virt. eigenvalues --    1.93834   1.94516   1.95446   1.95794   1.96417
 Alpha virt. eigenvalues --    1.97160   1.97675   1.97884   1.98338   1.98853
 Alpha virt. eigenvalues --    1.99382   1.99800   2.00610   2.02205   2.03028
 Alpha virt. eigenvalues --    2.04013   2.04321   2.05206   2.06295   2.06807
 Alpha virt. eigenvalues --    2.07088   2.07262   2.07712   2.08797   2.10225
 Alpha virt. eigenvalues --    2.10382   2.10709   2.12017   2.12898   2.13318
 Alpha virt. eigenvalues --    2.13776   2.14441   2.17016   2.17318   2.17880
 Alpha virt. eigenvalues --    2.18866   2.19188   2.19820   2.20750   2.21610
 Alpha virt. eigenvalues --    2.23001   2.23188   2.23432   2.24340   2.26087
 Alpha virt. eigenvalues --    2.26288   2.26827   2.27450   2.28369   2.29815
 Alpha virt. eigenvalues --    2.30809   2.31245   2.32372   2.32803   2.33203
 Alpha virt. eigenvalues --    2.34110   2.35777   2.36677   2.38772   2.39236
 Alpha virt. eigenvalues --    2.40005   2.41327   2.41582   2.42152   2.42879
 Alpha virt. eigenvalues --    2.44879   2.45107   2.46168   2.46515   2.47078
 Alpha virt. eigenvalues --    2.47731   2.48066   2.49912   2.50583   2.50720
 Alpha virt. eigenvalues --    2.52086   2.52399   2.53532   2.54927   2.55299
 Alpha virt. eigenvalues --    2.57048   2.57606   2.58034   2.58401   2.59630
 Alpha virt. eigenvalues --    2.60140   2.61708   2.62211   2.62704   2.64287
 Alpha virt. eigenvalues --    2.64925   2.66093   2.67053   2.67431   2.67715
 Alpha virt. eigenvalues --    2.69174   2.69499   2.70616   2.71220   2.74957
 Alpha virt. eigenvalues --    2.76071   2.79800   2.81235   2.84789   2.86382
 Alpha virt. eigenvalues --    2.88352   2.89232   2.91764   2.92375   2.93818
 Alpha virt. eigenvalues --    2.94045   2.95011   2.97156   2.97356   2.98235
 Alpha virt. eigenvalues --    2.98382   3.03912   3.06213   3.07878   3.10385
 Alpha virt. eigenvalues --    3.33012   3.68546   3.70999   3.77729   3.85026
 Alpha virt. eigenvalues --    3.85522   3.92752   3.93826   3.95165   3.97612
 Alpha virt. eigenvalues --    3.99263   4.01599   4.04702   4.05634   4.06908
 Alpha virt. eigenvalues --    4.08658   4.10126   4.12366   4.15848   4.17208
 Alpha virt. eigenvalues --    4.19048   4.21710   4.23327   4.26367   4.26751
 Alpha virt. eigenvalues --    4.27914   4.33235   4.34052   4.36314   4.39015
 Alpha virt. eigenvalues --    4.41444   4.43779   4.46534   4.48841   4.50985
 Alpha virt. eigenvalues --    4.55193   4.56808   4.62868   4.63735   4.66050
          Condensed to atoms (all electrons):
 Mulliken charges:
               1
     1  N   -0.798030
     2  C   -0.097087
     3  C    0.610297
     4  O   -0.482415
     5  C   -0.376835
     6  C    0.136579
     7  C   -0.178741
     8  C   -0.189446
     9  C   -0.127842
    10  C   -0.129160
    11  C   -0.126841
    12  H    0.451461
    13  H    0.209894
    14  H    0.194422
    15  H    0.169753
    16  H    0.141558
    17  H    0.155448
    18  H    0.151680
    19  H    0.133570
    20  H    0.146290
    21  H    0.417869
    22  H    0.409883
    23  N   -0.616610
    24  C   -0.077846
    25  C    0.588272
    26  O   -0.487942
    27  C   -0.261700
    28  C   -0.068404
    29  C   -0.445389
    30  C   -0.471943
    31  H    0.352585
    32  H    0.216433
    33  H    0.112456
    34  H    0.158027
    35  H    0.128493
    36  H    0.148399
    37  H    0.156082
    38  H    0.135783
    39  H    0.142274
    40  H    0.180459
    41  H    0.152629
    42  N   -0.598686
    43  C   -0.056387
    44  C    0.632716
    45  O   -0.599542
    46  C   -0.408851
    47  C    0.630685
    48  N   -0.737147
    49  O   -0.524995
    50  H    0.327744
    51  H    0.225267
    52  H    0.193052
    53  H    0.192386
    54  H    0.364870
    55  H    0.356794
    56  N   -0.613901
    57  C    0.009090
    58  C    0.553317
    59  O   -0.609769
    60  C   -0.270867
    61  C   -0.281321
    62  C   -0.162001
    63  N   -0.602889
    64  C    0.776209
    65  N   -0.756601
    66  N   -0.778555
    67  O   -0.599872
    68  H    0.398682
    69  H    0.152350
    70  H    0.174160
    71  H    0.151487
    72  H    0.149298
    73  H    0.167278
    74  H    0.157098
    75  H    0.193724
    76  H    0.397569
    77  H    0.373637
    78  H    0.379092
    79  H    0.360241
    80  H    0.420274
 Sum of Mulliken charges =   1.00000
 Mulliken charges with hydrogens summed into heavy atoms:
               1
     1  N    0.481183
     2  C    0.112807
     3  C    0.610297
     4  O   -0.482415
     5  C   -0.012660
     6  C    0.136579
     7  C   -0.037183
     8  C   -0.033999
     9  C    0.023838
    10  C    0.004410
    11  C    0.019449
    23  N   -0.264024
    24  C    0.138586
    25  C    0.588272
    26  O   -0.487942
    27  C    0.008783
    28  C    0.060089
    29  C   -0.005125
    30  C    0.003419
    42  N   -0.270942
    43  C    0.168880
    44  C    0.632716
    45  O   -0.599542
    46  C   -0.023413
    47  C    0.630685
    48  N   -0.015482
    49  O   -0.524995
    56  N   -0.215220
    57  C    0.161439
    58  C    0.553317
    59  O   -0.609769
    60  C    0.054781
    61  C    0.035255
    62  C    0.188821
    63  N   -0.205319
    64  C    0.776209
    65  N   -0.003872
    66  N    0.001960
    67  O   -0.599872
 Electronic spatial extent (au):  <R**2>=         220254.2117
 Charge=              1.0000 electrons
 Dipole moment (field-independent basis, Debye):
    X=            -15.0654    Y=             61.5666    Z=            -46.6142  Tot=             78.6784
 Quadrupole moment (field-independent basis, Debye-Ang):
   XX=           -108.2538   YY=            552.1701   ZZ=            324.7568
   XY=           -203.5920   XZ=            112.4367   YZ=           -588.4073
 Traceless Quadrupole moment (field-independent basis, Debye-Ang):
   XX=           -364.4782   YY=            295.9458   ZZ=             68.5324
   XY=           -203.5920   XZ=            112.4367   YZ=           -588.4073
 Octapole moment (field-independent basis, Debye-Ang**2):
  XXX=            789.8449  YYY=           2065.3011  ZZZ=          -2315.9183  XYY=          -2107.0796
  XXY=           -982.2566  XXZ=            873.7299  XZZ=           -511.5482  YZZ=           4196.7638
  YYZ=          -5826.2979  XYZ=           1541.3570
 Hexadecapole moment (field-independent basis, Debye-Ang**3):
 XXXX=         -10343.3440 YYYY=         -56948.6350 ZZZZ=          13634.8676 XXXY=           6360.5343
 XXXZ=          -6194.8878 YYYX=         -15907.7592 YYYZ=         -37321.7466 ZZZX=            626.2597
 ZZZY=         -28945.1356 XXYY=         -12155.2372 XXZZ=         -12115.5778 YYZZ=          40462.6808
 XXYZ=           8768.7514 YYXZ=          16538.4600 ZZXY=          -8206.2780
 N-N= 4.892558012723D+03 E-N=-1.410522919026D+04  KE= 1.849284309407D+03
 Unable to Open any file for archive entry.
 1\1\GINC-QML-003\SP\RB3LYP\6-31G(d)\C25H41N8O6(1+)\KENGMITH\11-Jun-202
 2\0\\# B3LYP/6-31G* empiricaldispersion=gd3 guess=read geom=check nosy
 mm integral(ultrafinegrid)\\Candidate Structure: Conf:112 Charge calc 
 in gas phase\\1,1\N,0,-0.8912838931,10.6067468114,-7.0905283137\C,0,-0
 .248679977,10.5145563185,-5.733499199\C,0,-1.1148597029,9.5852685001,-
 4.8550187471\O,0,-0.6965930122,8.4912454853,-4.5108788252\C,0,-0.04558
 468,11.9321208787,-5.1631554945\C,0,0.9065445954,12.7562574357,-6.0033
 78247\C,0,2.2926333231,12.6237536816,-5.8385572556\C,0,0.4177619594,13
 .6193769435,-6.99261329\C,0,3.173670771,13.3436283891,-6.6442228826\C,
 0,1.3007695339,14.3341872833,-7.8050187291\C,0,2.6783468688,14.2011701
 362,-7.6309109766\H,0,-1.8789772084,10.943219585,-7.0323597996\H,0,0.7
 134175676,10.0162022276,-5.8608465017\H,0,0.3348256652,11.8135349023,-
 4.1427225602\H,0,-1.0146699769,12.4387435682,-5.0850717192\H,0,2.68201
 92295,11.9610969333,-5.068432357\H,0,-0.6532283447,13.7174007766,-7.14
 71624445\H,0,4.245242567,13.2400438583,-6.4996384433\H,0,0.9071268669,
 14.9982266949,-8.5695934627\H,0,3.3654548579,14.7638880952,-8.25647596
 98\H,0,-0.4568137655,11.2950824227,-7.7338035073\H,0,-0.9324617504,9.7
 205386532,-7.60433469\N,0,-2.3399464278,10.0930511208,-4.5341267491\C,
 0,-3.4531748026,9.2401612593,-4.080556401\C,0,-4.4732407771,9.32245558
 56,-5.2302110486\O,0,-4.5101707148,8.4890405794,-6.1194757913\C,0,-3.9
 636002816,9.6329650892,-2.6889914411\C,0,-2.911222325,9.5154075052,-1.
 5685615459\C,0,-3.5078737172,10.0185489327,-0.2462596249\C,0,-2.371805
 892,8.084813025,-1.4199944312\H,0,-2.6289886217,10.9512334186,-4.99360
 9926\H,0,-3.085218579,8.2143650368,-4.0780890196\H,0,-4.3360781868,10.
 668378955,-2.7050493989\H,0,-4.8273827987,8.9965507166,-2.4521664709\H
 ,0,-2.0705531145,10.171645389,-1.8366316669\H,0,-4.3492667109,9.387597
 6349,0.0675757232\H,0,-2.7598340885,9.9945263529,0.5535384859\H,0,-3.8
 748429749,11.0489144841,-0.3320730104\H,0,-3.191203901,7.3747449887,-1
 .2468955156\H,0,-1.8123868086,7.7638409859,-2.3038602401\H,0,-1.693841
 0822,8.0214134694,-0.5616610506\N,0,-5.2532341361,10.4661456714,-5.264
 6761608\C,0,-5.7269237748,10.9202952858,-6.5591948875\C,0,-4.517136204
 2,11.4338614616,-7.3977002204\O,0,-3.429310288,11.6800249262,-6.835123
 9425\C,0,-6.8360857968,11.9750114799,-6.379655708\C,0,-7.7989664683,12
 .0536996535,-7.5673542973\N,0,-8.9727927798,12.6777452032,-7.316082266
 9\O,0,-7.5306404634,11.6012466923,-8.6818886746\H,0,-5.0089800714,11.1
 987793213,-4.6097675833\H,0,-6.1363546324,10.0483707047,-7.0739658347\
 H,0,-7.4008515132,11.7177428923,-5.4760727349\H,0,-6.4081653377,12.972
 7772466,-6.2116119316\H,0,-9.6531485892,12.7387279683,-8.0620753949\H,
 0,-9.2482631334,12.9739622662,-6.3913345416\N,0,-4.7483019782,11.55969
 65597,-8.7040023332\C,0,-3.8061363476,11.9740110928,-9.7519965642\C,0,
 -2.3646309796,11.5021829985,-9.4180629496\O,0,-1.4971964717,12.3762502
 38,-9.1199644125\C,0,-3.9304726092,13.4729660088,-10.0846692869\C,0,-3
 .5502454688,13.8558325042,-11.5330387388\C,0,-2.0555626021,13.98668124
 49,-11.8780802986\N,0,-1.2914075666,12.7311586964,-11.8018557378\C,0,-
 1.3899867341,11.6992335762,-12.6428575963\N,0,-1.7043025477,11.9074224
 219,-13.9390568519\N,0,-1.1653369937,10.4574459952,-12.1953886005\O,0,
 -2.1447993066,10.2674491784,-9.5412524642\H,0,-5.7205854528,11.4022231
 453,-8.986156108\H,0,-4.1029796283,11.3871678232,-10.6294738126\H,0,-3
 .3380644238,14.0442841833,-9.3624112064\H,0,-4.9812133389,13.753738605
 4,-9.9449284549\H,0,-4.0166965774,13.1506781402,-12.2357373621\H,0,-3.
 9930778384,14.8356929898,-11.751761908\H,0,-1.9444510834,14.4272738678
 ,-12.8747696957\H,0,-1.5629630339,14.6673521462,-11.1794031909\H,0,-0.
 9944020886,12.5134981987,-10.8424837725\H,0,-1.8562769909,11.131422074
 8,-14.5660656393\H,0,-1.5686169355,12.8156099138,-14.3578870929\H,0,-1
 .0685578977,9.6897286513,-12.8448170942\H,0,-1.3521006153,10.232996081
 8,-11.2030539304\\Version=ES64L-G16RevC.01\HF=-1866.7389658\RMSD=7.962
 e-09\Dipole=-0.9915545,2.7014985,-4.7169823\Quadrupole=-270.9806013,22
 0.0284248,50.9521765,-151.3656407,83.5939391,-437.4663859\PG=C01 [X(C2
 5H41N8O6)]\\@
 The archive entry for this job was punched.


 WOE UNTO THEM THAT CALL EVIL GOOD, AND GOOD EVIL      
 Job cpu time:       0 days  0 hours  5 minutes  6.8 seconds.
 Elapsed time:       0 days  0 hours  1 minutes 17.3 seconds.
 File lengths (MBytes):  RWF=    344 Int=      0 D2E=      0 Chk=     48 Scr=     16
 Normal termination of Gaussian 16 at Sat Jun 11 20:56:42 2022.
