 Entering Gaussian System, Link 0=/opt/software/Gaussian/g16-AVX2-C.01/g16/g16
 Input=charge-conf-950.com
 Output=charge-conf-950.log
 Initial command:
 /opt/software/Gaussian/g16-AVX2-C.01/g16/l1.exe "/mnt/gs18/scratch/users/kengmith/Gau-19476.inp" -scrdir="/mnt/gs18/scratch/users/kengmith/"
 Entering Link 1 = /opt/software/Gaussian/g16-AVX2-C.01/g16/l1.exe PID=     19486.
  
 Copyright (c) 1988-2019, Gaussian, Inc.  All Rights Reserved.
  
 This is part of the Gaussian(R) 16 program.  It is based on
 the Gaussian(R) 09 system (copyright 2009, Gaussian, Inc.),
 the Gaussian(R) 03 system (copyright 2003, Gaussian, Inc.),
 the Gaussian(R) 98 system (copyright 1998, Gaussian, Inc.),
 the Gaussian(R) 94 system (copyright 1995, Gaussian, Inc.),
 the Gaussian 92(TM) system (copyright 1992, Gaussian, Inc.),
 the Gaussian 90(TM) system (copyright 1990, Gaussian, Inc.),
 the Gaussian 88(TM) system (copyright 1988, Gaussian, Inc.),
 the Gaussian 86(TM) system (copyright 1986, Carnegie Mellon
 University), and the Gaussian 82(TM) system (copyright 1983,
 Carnegie Mellon University). Gaussian is a federally registered
 trademark of Gaussian, Inc.
  
 This software contains proprietary and confidential information,
 including trade secrets, belonging to Gaussian, Inc.
  
 This software is provided under written license and may be
 used, copied, transmitted, or stored only in accord with that
 written license.
  
 The following legend is applicable only to US Government
 contracts under FAR:
  
                    RESTRICTED RIGHTS LEGEND
  
 Use, reproduction and disclosure by the US Government is
 subject to restrictions as set forth in subparagraphs (a)
 and (c) of the Commercial Computer Software - Restricted
 Rights clause in FAR 52.227-19.
  
 Gaussian, Inc.
 340 Quinnipiac St., Bldg. 40, Wallingford CT 06492
  
  
 ---------------------------------------------------------------
 Warning -- This program may not be used in any manner that
 competes with the business of Gaussian, Inc. or will provide
 assistance to any competitor of Gaussian, Inc.  The licensee
 of this program is prohibited from giving any competitor of
 Gaussian, Inc. access to this program.  By using this program,
 the user acknowledges that Gaussian, Inc. is engaged in the
 business of creating and licensing software in the field of
 computational chemistry and represents and warrants to the
 licensee that it is not a competitor of Gaussian, Inc. and that
 it will not use this program in any manner prohibited above.
 ---------------------------------------------------------------
  

 Cite this work as:
 Gaussian 16, Revision C.01,
 M. J. Frisch, G. W. Trucks, H. B. Schlegel, G. E. Scuseria, 
 M. A. Robb, J. R. Cheeseman, G. Scalmani, V. Barone, 
 G. A. Petersson, H. Nakatsuji, X. Li, M. Caricato, A. V. Marenich, 
 J. Bloino, B. G. Janesko, R. Gomperts, B. Mennucci, H. P. Hratchian, 
 J. V. Ortiz, A. F. Izmaylov, J. L. Sonnenberg, D. Williams-Young, 
 F. Ding, F. Lipparini, F. Egidi, J. Goings, B. Peng, A. Petrone, 
 T. Henderson, D. Ranasinghe, V. G. Zakrzewski, J. Gao, N. Rega, 
 G. Zheng, W. Liang, M. Hada, M. Ehara, K. Toyota, R. Fukuda, 
 J. Hasegawa, M. Ishida, T. Nakajima, Y. Honda, O. Kitao, H. Nakai, 
 T. Vreven, K. Throssell, J. A. Montgomery, Jr., J. E. Peralta, 
 F. Ogliaro, M. J. Bearpark, J. J. Heyd, E. N. Brothers, K. N. Kudin, 
 V. N. Staroverov, T. A. Keith, R. Kobayashi, J. Normand, 
 K. Raghavachari, A. P. Rendell, J. C. Burant, S. S. Iyengar, 
 J. Tomasi, M. Cossi, J. M. Millam, M. Klene, C. Adamo, R. Cammi, 
 J. W. Ochterski, R. L. Martin, K. Morokuma, O. Farkas, 
 J. B. Foresman, and D. J. Fox, Gaussian, Inc., Wallingford CT, 2019.
 
 ******************************************
 Gaussian 16:  ES64L-G16RevC.01  3-Jul-2019
                11-Jun-2022 
 ******************************************
 %mem=8gb
 %nproc=4
 Will use up to    4 processors via shared memory.
 %chk=conf-950.chk
 ----------------------------------------------------------------------
 # B3LYP/6-31G* empiricaldispersion=gd3 guess=read geom=check nosymm in
 tegral(ultrafinegrid)
 ----------------------------------------------------------------------
 1/29=2,38=1,172=1/1;
 2/12=2,15=1,40=1/2;
 3/5=1,6=6,7=1,11=2,14=-4,25=1,30=1,74=-5,75=-5,116=-2,124=31/1,2,3;
 4/5=1/1;
 5/5=2,38=6/2;
 6/7=2,8=2,9=2,10=2,28=1/1;
 99/5=1,9=1/99;
 ------------------------------------------------------
 Candidate Structure: Conf:950 Charge calc in gas phase
 ------------------------------------------------------
 Structure from the checkpoint file:  "conf-950.chk"
 Charge =  1 Multiplicity = 1
 Redundant internal coordinates found in file.  (old form).
 N,0,-0.8717208406,14.3795283281,-7.2106625514
 C,0,-1.2989119982,14.0066918724,-5.8137381492
 C,0,-0.2840633769,12.9187200008,-5.3919569771
 O,0,0.9036567627,13.1850699061,-5.5543442989
 C,0,-2.8060796755,13.7251558547,-5.7516382885
 C,0,-3.6146999691,14.9693650999,-6.065774451
 C,0,-3.9668099364,15.857526135,-5.0397065955
 C,0,-3.9738255106,15.2861032453,-7.3851935133
 C,0,-4.6641391479,17.0325758145,-5.3200919759
 C,0,-4.6683878216,16.4664344445,-7.6659474071
 C,0,-5.016082319,17.3415197363,-6.636396157
 H,0,-1.3477704886,15.2264976906,-7.5338882928
 H,0,-1.0692754966,14.8716456299,-5.1816767357
 H,0,-3.0244445576,13.3962478617,-4.7295878401
 H,0,-3.0565860601,12.8926882473,-6.4138170043
 H,0,-3.6996328437,15.622378135,-4.011549917
 H,0,-3.7129815649,14.6123734822,-8.1978909791
 H,0,-4.9347427932,17.7054899183,-4.5113959608
 H,0,-4.939594661,16.6982315528,-8.6926906663
 H,0,-5.5588061749,18.2566138314,-6.855124275
 H,0,0.1472592854,14.5120996719,-7.1981884952
 H,0,-1.1135915491,13.5539690081,-7.8753781202
 N,0,-0.7729611293,11.7963920135,-4.818459197
 C,0,0.1177774437,10.6886392863,-4.4276731387
 C,0,0.0281588946,9.635072001,-5.5459309191
 O,0,0.8981832905,9.5132786346,-6.3886869968
 C,0,-0.221961325,10.1866615091,-3.0172485061
 C,0,0.5551509442,8.9271466755,-2.5865029039
 C,0,2.0746864705,9.1125604787,-2.7180259341
 C,0,0.1675723144,8.5427093783,-1.1520758251
 H,0,-1.7386907626,11.5491275759,-5.0227898819
 H,0,1.1325424449,11.0821045462,-4.4662466559
 H,0,-0.0165233549,11.0075598498,-2.3176926451
 H,0,-1.3024342286,9.9912336173,-2.9407215018
 H,0,0.2537356471,8.1053577581,-3.2522489426
 H,0,2.3833696557,9.2540043781,-3.7593602984
 H,0,2.4140080487,9.9813680898,-2.1391072921
 H,0,2.6032200182,8.2323359394,-2.3361794574
 H,0,0.4658934,9.3265491219,-0.444324102
 H,0,-0.9147386653,8.3950857403,-1.0518645076
 H,0,0.6633851176,7.6143432483,-0.8481944933
 N,0,-1.1509889039,8.9008704246,-5.56809555
 C,0,-1.7082818954,8.5714180133,-6.8697358975
 C,0,-2.6555952174,9.7334457342,-7.2721415847
 O,0,-3.0861558443,10.521073888,-6.4175724027
 C,0,-2.3938551646,7.1929031183,-6.8664296747
 C,0,-2.4627620083,6.5589143946,-8.2572242461
 N,0,-2.8006894801,5.2459350421,-8.274707971
 O,0,-2.2431881814,7.1841516269,-9.2958689387
 H,0,-1.8615496402,9.2149774825,-4.9158395018
 H,0,-0.8697695158,8.5442851326,-7.5692525845
 H,0,-1.8228239413,6.5377518488,-6.1984581162
 H,0,-3.4095537701,7.2543242341,-6.452772231
 H,0,-2.8071727167,4.7655477991,-9.1645281476
 H,0,-2.8683286081,4.6928582765,-7.433023148
 N,0,-2.9498910495,9.8041362167,-8.5829475386
 C,0,-3.5517680118,10.9709332315,-9.205441332
 C,0,-2.6249425643,12.2179943244,-9.1268816541
 O,0,-2.9862945666,13.2343722786,-9.8101499101
 C,0,-4.9896656613,11.2710409707,-8.6619338147
 C,0,-6.1263001944,11.0118825213,-9.6742701516
 C,0,-6.4579099089,12.2165567596,-10.5718663413
 N,0,-5.2612498799,12.7895867035,-11.1957309392
 C,0,-4.7624443058,12.5119546549,-12.3953029216
 N,0,-5.5283432259,12.0606209335,-13.4078257908
 N,0,-3.4400851335,12.6751854163,-12.5867418493
 O,0,-1.6073063086,12.1679198584,-8.4013794064
 H,0,-2.5574029699,9.064624977,-9.1654219257
 H,0,-3.6260224979,10.7268015199,-10.2706032358
 H,0,-5.0473124209,12.303165401,-8.2943832691
 H,0,-5.1408518568,10.6424405176,-7.784542167
 H,0,-5.8786383568,10.1426502415,-10.2976248478
 H,0,-7.047661877,10.7563160416,-9.1370712271
 H,0,-7.1933203988,11.9413161934,-11.333778896
 H,0,-6.907759713,13.0152418851,-9.9732953085
 H,0,-4.5244565875,13.1121084104,-10.5309477666
 H,0,-5.1152772306,11.7542628303,-14.2758177014
 H,0,-6.5341146995,12.1124833903,-13.3625906111
 H,0,-3.0663661501,12.8386366003,-13.5105561167
 H,0,-2.8890205602,12.9618523177,-11.7732939325
 Recover connectivity data from disk.
                           ----------------------------
                           !    Current Parameters    !
                           ! (Angstroms and Degrees)  !
 --------------------------                            --------------------------
 ! Name  Definition              Value                                          !
 --------------------------------------------------------------------------------
 ! R1    R(1,2)                  1.5076                                         !
 ! R2    R(1,12)                 1.0239                                         !
 ! R3    R(1,21)                 1.0276                                         !
 ! R4    R(1,22)                 1.0872                                         !
 ! R5    R(2,3)                  1.5464                                         !
 ! R6    R(2,5)                  1.5345                                         !
 ! R7    R(2,13)                 1.0956                                         !
 ! R8    R(3,4)                  1.228                                          !
 ! R9    R(3,23)                 1.3519                                         !
 ! R10   R(5,6)                  1.5168                                         !
 ! R11   R(5,14)                 1.0957                                         !
 ! R12   R(5,15)                 1.0928                                         !
 ! R13   R(6,7)                  1.402                                          !
 ! R14   R(6,8)                  1.4036                                         !
 ! R15   R(7,9)                  1.3949                                         !
 ! R16   R(7,16)                 1.088                                          !
 ! R17   R(8,10)                 1.398                                          !
 ! R18   R(8,17)                 1.0874                                         !
 ! R19   R(9,11)                 1.3971                                         !
 ! R20   R(9,18)                 1.0863                                         !
 ! R21   R(10,11)                1.3952                                         !
 ! R22   R(10,19)                1.087                                          !
 ! R23   R(11,20)                1.0862                                         !
 ! R24   R(23,24)                1.4742                                         !
 ! R25   R(23,31)                1.0176                                         !
 ! R26   R(24,25)                1.539                                          !
 ! R27   R(24,27)                1.5352                                         !
 ! R28   R(24,32)                1.0891                                         !
 ! R29   R(25,26)                1.2174                                         !
 ! R30   R(25,42)                1.3892                                         !
 ! R31   R(27,28)                1.5414                                         !
 ! R32   R(27,33)                1.0979                                         !
 ! R33   R(27,34)                1.1007                                         !
 ! R34   R(28,29)                1.5364                                         !
 ! R35   R(28,30)                1.5348                                         !
 ! R36   R(28,35)                1.0997                                         !
 ! R37   R(29,36)                1.0953                                         !
 ! R38   R(29,37)                1.0978                                         !
 ! R39   R(29,38)                1.0954                                         !
 ! R40   R(30,39)                1.0974                                         !
 ! R41   R(30,40)                1.0969                                         !
 ! R42   R(30,41)                1.0955                                         !
 ! R43   R(42,43)                1.4537                                         !
 ! R44   R(42,50)                1.0144                                         !
 ! R45   R(43,44)                1.5523                                         !
 ! R46   R(43,46)                1.5396                                         !
 ! R47   R(43,51)                1.0923                                         !
 ! R48   R(44,45)                1.2394                                         !
 ! R49   R(44,56)                1.3453                                         !
 ! R50   R(46,47)                1.53                                           !
 ! R51   R(46,52)                1.0961                                         !
 ! R52   R(46,53)                1.0984                                         !
 ! R53   R(47,48)                1.3559                                         !
 ! R54   R(47,49)                1.232                                          !
 ! R55   R(48,54)                1.0112                                         !
 ! R56   R(48,55)                1.0094                                         !
 ! R57   R(56,57)                1.453                                          !
 ! R58   R(56,68)                1.0199                                         !
 ! R59   R(57,58)                1.5557                                         !
 ! R60   R(57,60)                1.5662                                         !
 ! R61   R(57,69)                1.0953                                         !
 ! R62   R(58,59)                1.2769                                         !
 ! R63   R(58,67)                1.2508                                         !
 ! R64   R(60,61)                1.544                                          !
 ! R65   R(60,70)                1.0971                                         !
 ! R66   R(60,71)                1.0899                                         !
 ! R67   R(61,62)                1.5385                                         !
 ! R68   R(61,72)                1.0979                                         !
 ! R69   R(61,73)                1.0967                                         !
 ! R70   R(62,63)                1.4661                                         !
 ! R71   R(62,74)                1.0941                                         !
 ! R72   R(62,75)                1.0948                                         !
 ! R73   R(63,64)                1.3285                                         !
 ! R74   R(63,76)                1.0435                                         !
 ! R75   R(64,65)                1.3474                                         !
 ! R76   R(64,66)                1.3461                                         !
 ! R77   R(65,77)                1.0089                                         !
 ! R78   R(65,78)                1.0081                                         !
 ! R79   R(66,79)                1.0099                                         !
 ! R80   R(66,80)                1.0235                                         !
 ! A1    A(2,1,12)             111.4269                                         !
 ! A2    A(2,1,21)             107.5551                                         !
 ! A3    A(2,1,22)             108.4031                                         !
 ! A4    A(12,1,21)            110.9849                                         !
 ! A5    A(12,1,22)            109.3713                                         !
 ! A6    A(21,1,22)            109.0256                                         !
 ! A7    A(1,2,3)              103.9309                                         !
 ! A8    A(1,2,5)              111.1727                                         !
 ! A9    A(1,2,13)             106.2552                                         !
 ! A10   A(3,2,5)              120.2944                                         !
 ! A11   A(3,2,13)             105.1011                                         !
 ! A12   A(5,2,13)             109.1087                                         !
 ! A13   A(2,3,4)              116.4911                                         !
 ! A14   A(2,3,23)             117.5454                                         !
 ! A15   A(4,3,23)             125.8702                                         !
 ! A16   A(2,5,6)              111.3917                                         !
 ! A17   A(2,5,14)             106.773                                          !
 ! A18   A(2,5,15)             109.9006                                         !
 ! A19   A(6,5,14)             109.4627                                         !
 ! A20   A(6,5,15)             112.1588                                         !
 ! A21   A(14,5,15)            106.9102                                         !
 ! A22   A(5,6,7)              120.1305                                         !
 ! A23   A(5,6,8)              121.0771                                         !
 ! A24   A(7,6,8)              118.7338                                         !
 ! A25   A(6,7,9)              120.8042                                         !
 ! A26   A(6,7,16)             119.5382                                         !
 ! A27   A(9,7,16)             119.6556                                         !
 ! A28   A(6,8,10)             120.4252                                         !
 ! A29   A(6,8,17)             120.0898                                         !
 ! A30   A(10,8,17)            119.485                                          !
 ! A31   A(7,9,11)             120.106                                          !
 ! A32   A(7,9,18)             119.7841                                         !
 ! A33   A(11,9,18)            120.1097                                         !
 ! A34   A(8,10,11)            120.3422                                         !
 ! A35   A(8,10,19)            119.5847                                         !
 ! A36   A(11,10,19)           120.0729                                         !
 ! A37   A(9,11,10)            119.5878                                         !
 ! A38   A(9,11,20)            120.1251                                         !
 ! A39   A(10,11,20)           120.287                                          !
 ! A40   A(3,23,24)            121.1837                                         !
 ! A41   A(3,23,31)            117.3714                                         !
 ! A42   A(24,23,31)           116.3631                                         !
 ! A43   A(23,24,25)           106.6553                                         !
 ! A44   A(23,24,27)           110.8264                                         !
 ! A45   A(23,24,32)           106.3873                                         !
 ! A46   A(25,24,27)           115.5208                                         !
 ! A47   A(25,24,32)           106.0129                                         !
 ! A48   A(27,24,32)           110.9091                                         !
 ! A49   A(24,25,26)           121.9976                                         !
 ! A50   A(24,25,42)           115.0126                                         !
 ! A51   A(26,25,42)           122.8663                                         !
 ! A52   A(24,27,28)           114.3538                                         !
 ! A53   A(24,27,33)           107.4274                                         !
 ! A54   A(24,27,34)           109.827                                          !
 ! A55   A(28,27,33)           109.7892                                         !
 ! A56   A(28,27,34)           109.2932                                         !
 ! A57   A(33,27,34)           105.7912                                         !
 ! A58   A(27,28,29)           112.0916                                         !
 ! A59   A(27,28,30)           109.7881                                         !
 ! A60   A(27,28,35)           107.6536                                         !
 ! A61   A(29,28,30)           111.099                                          !
 ! A62   A(29,28,35)           108.0244                                         !
 ! A63   A(30,28,35)           108.0228                                         !
 ! A64   A(28,29,36)           112.0672                                         !
 ! A65   A(28,29,37)           110.8585                                         !
 ! A66   A(28,29,38)           110.5102                                         !
 ! A67   A(36,29,37)           108.1834                                         !
 ! A68   A(36,29,38)           107.4096                                         !
 ! A69   A(37,29,38)           107.6368                                         !
 ! A70   A(28,30,39)           110.8055                                         !
 ! A71   A(28,30,40)           111.6082                                         !
 ! A72   A(28,30,41)           110.9307                                         !
 ! A73   A(39,30,40)           107.7839                                         !
 ! A74   A(39,30,41)           107.6603                                         !
 ! A75   A(40,30,41)           107.8896                                         !
 ! A76   A(25,42,43)           117.3507                                         !
 ! A77   A(25,42,50)           114.8753                                         !
 ! A78   A(43,42,50)           112.1708                                         !
 ! A79   A(42,43,44)           107.2419                                         !
 ! A80   A(42,43,46)           111.8202                                         !
 ! A81   A(42,43,51)           106.5435                                         !
 ! A82   A(44,43,46)           113.5204                                         !
 ! A83   A(44,43,51)           108.7264                                         !
 ! A84   A(46,43,51)           108.7212                                         !
 ! A85   A(43,44,45)           120.5968                                         !
 ! A86   A(43,44,56)           115.1774                                         !
 ! A87   A(45,44,56)           124.2256                                         !
 ! A88   A(43,46,47)           112.8994                                         !
 ! A89   A(43,46,52)           107.7279                                         !
 ! A90   A(43,46,53)           111.254                                          !
 ! A91   A(47,46,52)           109.2527                                         !
 ! A92   A(47,46,53)           108.8958                                         !
 ! A93   A(52,46,53)           106.5977                                         !
 ! A94   A(46,47,48)           115.0999                                         !
 ! A95   A(46,47,49)           123.2301                                         !
 ! A96   A(48,47,49)           121.6663                                         !
 ! A97   A(47,48,54)           118.2268                                         !
 ! A98   A(47,48,55)           122.448                                          !
 ! A99   A(54,48,55)           118.2296                                         !
 ! A100  A(44,56,57)           123.3845                                         !
 ! A101  A(44,56,68)           115.7332                                         !
 ! A102  A(57,56,68)           119.8015                                         !
 ! A103  A(56,57,58)           112.0421                                         !
 ! A104  A(56,57,60)           112.6747                                         !
 ! A105  A(56,57,69)           105.4103                                         !
 ! A106  A(58,57,60)           112.075                                          !
 ! A107  A(58,57,69)           105.5548                                         !
 ! A108  A(60,57,69)           108.5385                                         !
 ! A109  A(57,58,59)           116.2591                                         !
 ! A110  A(57,58,67)           118.8094                                         !
 ! A111  A(59,58,67)           124.9242                                         !
 ! A112  A(57,60,61)           114.5926                                         !
 ! A113  A(57,60,70)           110.1668                                         !
 ! A114  A(57,60,71)           107.2298                                         !
 ! A115  A(61,60,70)           109.8084                                         !
 ! A116  A(61,60,71)           109.2023                                         !
 ! A117  A(70,60,71)           105.403                                          !
 ! A118  A(60,61,62)           114.191                                          !
 ! A119  A(60,61,72)           109.8208                                         !
 ! A120  A(60,61,73)           109.6584                                         !
 ! A121  A(62,61,72)           109.7124                                         !
 ! A122  A(62,61,73)           106.6884                                         !
 ! A123  A(72,61,73)           106.446                                          !
 ! A124  A(61,62,63)           112.2331                                         !
 ! A125  A(61,62,74)           110.7434                                         !
 ! A126  A(61,62,75)           109.9274                                         !
 ! A127  A(63,62,74)           110.5247                                         !
 ! A128  A(63,62,75)           106.433                                          !
 ! A129  A(74,62,75)           106.7429                                         !
 ! A130  A(62,63,64)           127.5175                                         !
 ! A131  A(62,63,76)           115.216                                          !
 ! A132  A(64,63,76)           112.0086                                         !
 ! A133  A(63,64,65)           122.352                                          !
 ! A134  A(63,64,66)           118.1598                                         !
 ! A135  A(65,64,66)           119.4823                                         !
 ! A136  A(64,65,77)           121.0304                                         !
 ! A137  A(64,65,78)           121.0742                                         !
 ! A138  A(77,65,78)           117.5608                                         !
 ! A139  A(64,66,79)           120.8825                                         !
 ! A140  A(64,66,80)           116.7346                                         !
 ! A141  A(79,66,80)           118.8469                                         !
 ! D1    D(12,1,2,3)          -168.442                                          !
 ! D2    D(12,1,2,5)            60.7574                                         !
 ! D3    D(12,1,2,13)          -57.8373                                         !
 ! D4    D(21,1,2,3)           -46.5948                                         !
 ! D5    D(21,1,2,5)          -177.3955                                         !
 ! D6    D(21,1,2,13)           64.0098                                         !
 ! D7    D(22,1,2,3)            71.1543                                         !
 ! D8    D(22,1,2,5)           -59.6464                                         !
 ! D9    D(22,1,2,13)         -178.2411                                         !
 ! D10   D(1,2,3,4)             50.0653                                         !
 ! D11   D(1,2,3,23)          -133.2396                                         !
 ! D12   D(5,2,3,4)            175.2275                                         !
 ! D13   D(5,2,3,23)            -8.0774                                         !
 ! D14   D(13,2,3,4)           -61.3821                                         !
 ! D15   D(13,2,3,23)          115.3129                                         !
 ! D16   D(1,2,5,6)            -64.3796                                         !
 ! D17   D(1,2,5,14)           176.1605                                         !
 ! D18   D(1,2,5,15)            60.5532                                         !
 ! D19   D(3,2,5,6)            173.9323                                         !
 ! D20   D(3,2,5,14)            54.4724                                         !
 ! D21   D(3,2,5,15)           -61.1349                                         !
 ! D22   D(13,2,5,6)            52.4844                                         !
 ! D23   D(13,2,5,14)          -66.9755                                         !
 ! D24   D(13,2,5,15)          177.4172                                         !
 ! D25   D(2,3,23,24)          177.8901                                         !
 ! D26   D(2,3,23,31)           24.0155                                         !
 ! D27   D(4,3,23,24)           -5.7606                                         !
 ! D28   D(4,3,23,31)         -159.6352                                         !
 ! D29   D(2,5,6,7)            -88.3616                                         !
 ! D30   D(2,5,6,8)             88.8202                                         !
 ! D31   D(14,5,6,7)            29.4876                                         !
 ! D32   D(14,5,6,8)          -153.3306                                         !
 ! D33   D(15,5,6,7)           147.9786                                         !
 ! D34   D(15,5,6,8)           -34.8396                                         !
 ! D35   D(5,6,7,9)            177.4342                                         !
 ! D36   D(5,6,7,16)            -3.0769                                         !
 ! D37   D(8,6,7,9)              0.1868                                         !
 ! D38   D(8,6,7,16)           179.6757                                         !
 ! D39   D(5,6,8,10)          -177.1686                                         !
 ! D40   D(5,6,8,17)             2.8586                                         !
 ! D41   D(7,6,8,10)             0.0517                                         !
 ! D42   D(7,6,8,17)          -179.9211                                         !
 ! D43   D(6,7,9,11)            -0.2879                                         !
 ! D44   D(6,7,9,18)           179.5657                                         !
 ! D45   D(16,7,9,11)         -179.7762                                         !
 ! D46   D(16,7,9,18)            0.0774                                         !
 ! D47   D(6,8,10,11)           -0.1903                                         !
 ! D48   D(6,8,10,19)          179.9946                                         !
 ! D49   D(17,8,10,11)         179.7826                                         !
 ! D50   D(17,8,10,19)          -0.0324                                         !
 ! D51   D(7,9,11,10)            0.147                                          !
 ! D52   D(7,9,11,20)         -179.9796                                         !
 ! D53   D(18,9,11,10)        -179.7062                                         !
 ! D54   D(18,9,11,20)           0.1672                                         !
 ! D55   D(8,10,11,9)            0.0903                                         !
 ! D56   D(8,10,11,20)        -179.7829                                         !
 ! D57   D(19,10,11,9)         179.9045                                         !
 ! D58   D(19,10,11,20)          0.0313                                         !
 ! D59   D(3,23,24,25)         -99.3208                                         !
 ! D60   D(3,23,24,27)         134.1707                                         !
 ! D61   D(3,23,24,32)          13.5156                                         !
 ! D62   D(31,23,24,25)         54.8029                                         !
 ! D63   D(31,23,24,27)        -71.7056                                         !
 ! D64   D(31,23,24,32)        167.6393                                         !
 ! D65   D(23,24,25,26)        102.1938                                         !
 ! D66   D(23,24,25,42)        -73.8743                                         !
 ! D67   D(27,24,25,26)       -134.1603                                         !
 ! D68   D(27,24,25,42)         49.7716                                         !
 ! D69   D(32,24,25,26)        -10.8994                                         !
 ! D70   D(32,24,25,42)        173.0325                                         !
 ! D71   D(23,24,27,28)        173.5601                                         !
 ! D72   D(23,24,27,33)        -64.3263                                         !
 ! D73   D(23,24,27,34)         50.28                                           !
 ! D74   D(25,24,27,28)         52.1332                                         !
 ! D75   D(25,24,27,33)        174.2467                                         !
 ! D76   D(25,24,27,34)        -71.147                                          !
 ! D77   D(32,24,27,28)        -68.5056                                         !
 ! D78   D(32,24,27,33)         53.608                                          !
 ! D79   D(32,24,27,34)        168.2142                                         !
 ! D80   D(24,25,42,43)        141.9438                                         !
 ! D81   D(24,25,42,50)          6.8596                                         !
 ! D82   D(26,25,42,43)        -34.0862                                         !
 ! D83   D(26,25,42,50)       -169.1703                                         !
 ! D84   D(24,27,28,29)         54.3436                                         !
 ! D85   D(24,27,28,30)        178.3245                                         !
 ! D86   D(24,27,28,35)        -64.3166                                         !
 ! D87   D(33,27,28,29)        -66.4704                                         !
 ! D88   D(33,27,28,30)         57.5106                                         !
 ! D89   D(33,27,28,35)        174.8695                                         !
 ! D90   D(34,27,28,29)        177.9111                                         !
 ! D91   D(34,27,28,30)        -58.1079                                         !
 ! D92   D(34,27,28,35)         59.251                                          !
 ! D93   D(27,28,29,36)        -64.4456                                         !
 ! D94   D(27,28,29,37)         56.5393                                         !
 ! D95   D(27,28,29,38)        175.7954                                         !
 ! D96   D(30,28,29,36)        172.3086                                         !
 ! D97   D(30,28,29,37)        -66.7065                                         !
 ! D98   D(30,28,29,38)         52.5496                                         !
 ! D99   D(35,28,29,36)         53.9953                                         !
 ! D100  D(35,28,29,37)        174.9801                                         !
 ! D101  D(35,28,29,38)        -65.7637                                         !
 ! D102  D(27,28,30,39)        -63.9253                                         !
 ! D103  D(27,28,30,40)         56.2028                                         !
 ! D104  D(27,28,30,41)        176.5503                                         !
 ! D105  D(29,28,30,39)         60.6323                                         !
 ! D106  D(29,28,30,40)       -179.2396                                         !
 ! D107  D(29,28,30,41)        -58.8921                                         !
 ! D108  D(35,28,30,39)        178.9465                                         !
 ! D109  D(35,28,30,40)        -60.9253                                         !
 ! D110  D(35,28,30,41)         59.4221                                         !
 ! D111  D(25,42,43,44)        -89.3457                                         !
 ! D112  D(25,42,43,46)        145.5996                                         !
 ! D113  D(25,42,43,51)         26.9407                                         !
 ! D114  D(50,42,43,44)         46.8891                                         !
 ! D115  D(50,42,43,46)        -78.1656                                         !
 ! D116  D(50,42,43,51)        163.1755                                         !
 ! D117  D(42,43,44,45)        -18.6135                                         !
 ! D118  D(42,43,44,56)        161.2115                                         !
 ! D119  D(46,43,44,45)        105.4094                                         !
 ! D120  D(46,43,44,56)        -74.7656                                         !
 ! D121  D(51,43,44,45)       -133.449                                          !
 ! D122  D(51,43,44,56)         46.376                                          !
 ! D123  D(42,43,46,47)       -155.8634                                         !
 ! D124  D(42,43,46,52)        -35.1447                                         !
 ! D125  D(42,43,46,53)         81.3502                                         !
 ! D126  D(44,43,46,47)         82.6385                                         !
 ! D127  D(44,43,46,52)       -156.6428                                         !
 ! D128  D(44,43,46,53)        -40.1479                                         !
 ! D129  D(51,43,46,47)        -38.506                                          !
 ! D130  D(51,43,46,52)         82.2127                                         !
 ! D131  D(51,43,46,53)       -161.2924                                         !
 ! D132  D(43,44,56,57)       -165.2902                                         !
 ! D133  D(43,44,56,68)          2.7678                                         !
 ! D134  D(45,44,56,57)         14.5276                                         !
 ! D135  D(45,44,56,68)       -177.4144                                         !
 ! D136  D(43,46,47,48)        167.037                                          !
 ! D137  D(43,46,47,49)        -13.6474                                         !
 ! D138  D(52,46,47,48)         47.1916                                         !
 ! D139  D(52,46,47,49)       -133.4928                                         !
 ! D140  D(53,46,47,48)        -68.8715                                         !
 ! D141  D(53,46,47,49)        110.4441                                         !
 ! D142  D(46,47,48,54)       -176.4618                                         !
 ! D143  D(46,47,48,55)         -8.6502                                         !
 ! D144  D(49,47,48,54)          4.2108                                         !
 ! D145  D(49,47,48,55)        172.0224                                         !
 ! D146  D(44,56,57,58)         63.6184                                         !
 ! D147  D(44,56,57,60)        -63.8681                                         !
 ! D148  D(44,56,57,69)        177.9298                                         !
 ! D149  D(68,56,57,58)       -103.9774                                         !
 ! D150  D(68,56,57,60)        128.5362                                         !
 ! D151  D(68,56,57,69)         10.3341                                         !
 ! D152  D(56,57,58,59)        170.4087                                         !
 ! D153  D(56,57,58,67)        -10.5219                                         !
 ! D154  D(60,57,58,59)        -61.7848                                         !
 ! D155  D(60,57,58,67)        117.2846                                         !
 ! D156  D(69,57,58,59)         56.186                                          !
 ! D157  D(69,57,58,67)       -124.7446                                         !
 ! D158  D(56,57,60,61)       -110.2668                                         !
 ! D159  D(56,57,60,70)        125.323                                          !
 ! D160  D(56,57,60,71)         11.1089                                         !
 ! D161  D(58,57,60,61)        122.2642                                         !
 ! D162  D(58,57,60,70)         -2.1461                                         !
 ! D163  D(58,57,60,71)       -116.3602                                         !
 ! D164  D(69,57,60,61)          6.0832                                         !
 ! D165  D(69,57,60,70)       -118.3271                                         !
 ! D166  D(69,57,60,71)        127.4589                                         !
 ! D167  D(57,60,61,62)        -88.2678                                         !
 ! D168  D(57,60,61,72)         35.4411                                         !
 ! D169  D(57,60,61,73)        152.0772                                         !
 ! D170  D(70,60,61,62)         36.3321                                         !
 ! D171  D(70,60,61,72)        160.041                                          !
 ! D172  D(70,60,61,73)        -83.3228                                         !
 ! D173  D(71,60,61,62)        151.4441                                         !
 ! D174  D(71,60,61,72)        -84.847                                          !
 ! D175  D(71,60,61,73)         31.7892                                         !
 ! D176  D(60,61,62,63)         50.0205                                         !
 ! D177  D(60,61,62,74)        174.0654                                         !
 ! D178  D(60,61,62,75)        -68.2264                                         !
 ! D179  D(72,61,62,63)        -73.7466                                         !
 ! D180  D(72,61,62,74)         50.2982                                         !
 ! D181  D(72,61,62,75)        168.0064                                         !
 ! D182  D(73,61,62,63)        171.332                                          !
 ! D183  D(73,61,62,74)        -64.6232                                         !
 ! D184  D(73,61,62,75)         53.085                                          !
 ! D185  D(61,62,63,64)         94.047                                          !
 ! D186  D(61,62,63,76)        -58.0569                                         !
 ! D187  D(74,62,63,64)        -30.1194                                         !
 ! D188  D(74,62,63,76)        177.7767                                         !
 ! D189  D(75,62,63,64)       -145.6583                                         !
 ! D190  D(75,62,63,76)         62.2378                                         !
 ! D191  D(62,63,64,65)         26.2408                                         !
 ! D192  D(62,63,64,66)       -152.8654                                         !
 ! D193  D(76,63,64,65)        179.0757                                         !
 ! D194  D(76,63,64,66)         -0.0305                                         !
 ! D195  D(63,64,65,77)       -172.8049                                         !
 ! D196  D(63,64,65,78)         13.9985                                         !
 ! D197  D(66,64,65,77)          6.2899                                         !
 ! D198  D(66,64,65,78)       -166.9067                                         !
 ! D199  D(63,64,66,79)       -155.5749                                         !
 ! D200  D(63,64,66,80)          2.9715                                         !
 ! D201  D(65,64,66,79)         25.2925                                         !
 ! D202  D(65,64,66,80)       -176.1611                                         !
 --------------------------------------------------------------------------------
 Symmetry turned off by external request.
 Stoichiometry    C25H41N8O6(1+)
 Framework group  C1[X(C25H41N8O6)]
 Deg. of freedom   234
 Full point group                 C1      NOp   1
                          Input orientation:                          
 ---------------------------------------------------------------------
 Center     Atomic      Atomic             Coordinates (Angstroms)
 Number     Number       Type             X           Y           Z
 ---------------------------------------------------------------------
      1          7           0       -0.871721   14.379528   -7.210663
      2          6           0       -1.298912   14.006692   -5.813738
      3          6           0       -0.284063   12.918720   -5.391957
      4          8           0        0.903657   13.185070   -5.554344
      5          6           0       -2.806080   13.725156   -5.751638
      6          6           0       -3.614700   14.969365   -6.065774
      7          6           0       -3.966810   15.857526   -5.039707
      8          6           0       -3.973826   15.286103   -7.385194
      9          6           0       -4.664139   17.032576   -5.320092
     10          6           0       -4.668388   16.466434   -7.665947
     11          6           0       -5.016082   17.341520   -6.636396
     12          1           0       -1.347770   15.226498   -7.533888
     13          1           0       -1.069275   14.871646   -5.181677
     14          1           0       -3.024445   13.396248   -4.729588
     15          1           0       -3.056586   12.892688   -6.413817
     16          1           0       -3.699633   15.622378   -4.011550
     17          1           0       -3.712982   14.612373   -8.197891
     18          1           0       -4.934743   17.705490   -4.511396
     19          1           0       -4.939595   16.698232   -8.692691
     20          1           0       -5.558806   18.256614   -6.855124
     21          1           0        0.147259   14.512100   -7.198188
     22          1           0       -1.113592   13.553969   -7.875378
     23          7           0       -0.772961   11.796392   -4.818459
     24          6           0        0.117777   10.688639   -4.427673
     25          6           0        0.028159    9.635072   -5.545931
     26          8           0        0.898183    9.513279   -6.388687
     27          6           0       -0.221961   10.186662   -3.017249
     28          6           0        0.555151    8.927147   -2.586503
     29          6           0        2.074686    9.112560   -2.718026
     30          6           0        0.167572    8.542709   -1.152076
     31          1           0       -1.738691   11.549128   -5.022790
     32          1           0        1.132542   11.082105   -4.466247
     33          1           0       -0.016523   11.007560   -2.317693
     34          1           0       -1.302434    9.991234   -2.940722
     35          1           0        0.253736    8.105358   -3.252249
     36          1           0        2.383370    9.254004   -3.759360
     37          1           0        2.414008    9.981368   -2.139107
     38          1           0        2.603220    8.232336   -2.336179
     39          1           0        0.465893    9.326549   -0.444324
     40          1           0       -0.914739    8.395086   -1.051865
     41          1           0        0.663385    7.614343   -0.848194
     42          7           0       -1.150989    8.900870   -5.568096
     43          6           0       -1.708282    8.571418   -6.869736
     44          6           0       -2.655595    9.733446   -7.272142
     45          8           0       -3.086156   10.521074   -6.417572
     46          6           0       -2.393855    7.192903   -6.866430
     47          6           0       -2.462762    6.558914   -8.257224
     48          7           0       -2.800689    5.245935   -8.274708
     49          8           0       -2.243188    7.184152   -9.295869
     50          1           0       -1.861550    9.214977   -4.915840
     51          1           0       -0.869770    8.544285   -7.569253
     52          1           0       -1.822824    6.537752   -6.198458
     53          1           0       -3.409554    7.254324   -6.452772
     54          1           0       -2.807173    4.765548   -9.164528
     55          1           0       -2.868329    4.692858   -7.433023
     56          7           0       -2.949891    9.804136   -8.582948
     57          6           0       -3.551768   10.970933   -9.205441
     58          6           0       -2.624943   12.217994   -9.126882
     59          8           0       -2.986295   13.234372   -9.810150
     60          6           0       -4.989666   11.271041   -8.661934
     61          6           0       -6.126300   11.011883   -9.674270
     62          6           0       -6.457910   12.216557  -10.571866
     63          7           0       -5.261250   12.789587  -11.195731
     64          6           0       -4.762444   12.511955  -12.395303
     65          7           0       -5.528343   12.060621  -13.407826
     66          7           0       -3.440085   12.675185  -12.586742
     67          8           0       -1.607306   12.167920   -8.401379
     68          1           0       -2.557403    9.064625   -9.165422
     69          1           0       -3.626022   10.726802  -10.270603
     70          1           0       -5.047312   12.303165   -8.294383
     71          1           0       -5.140852   10.642441   -7.784542
     72          1           0       -5.878638   10.142650  -10.297625
     73          1           0       -7.047662   10.756316   -9.137071
     74          1           0       -7.193320   11.941316  -11.333779
     75          1           0       -6.907760   13.015242   -9.973295
     76          1           0       -4.524457   13.112108  -10.530948
     77          1           0       -5.115277   11.754263  -14.275818
     78          1           0       -6.534115   12.112483  -13.362591
     79          1           0       -3.066366   12.838637  -13.510556
     80          1           0       -2.889021   12.961852  -11.773294
 ---------------------------------------------------------------------
 Rotational constants (GHZ):           0.1039264           0.0698479           0.0479654
 Standard basis: 6-31G(d) (6D, 7F)
   667 basis functions,  1256 primitive gaussians,   667 cartesian basis functions
   147 alpha electrons      147 beta electrons
       nuclear repulsion energy      4894.0699244380 Hartrees.
 NAtoms=   80 NActive=   80 NUniq=   80 SFac= 1.00D+00 NAtFMM=   60 NAOKFM=T Big=T
 Integral buffers will be    131072 words long.
 Raffenetti 2 integral format.
 Two-electron integral symmetry is turned off.
 Nuclear repulsion after empirical dispersion term =     4893.9581217422 Hartrees.
 One-electron integrals computed using PRISM.
 NBasis=   667 RedAO= T EigKep=  4.32D-04  NBF=   667
 NBsUse=   667 1.00D-06 EigRej= -1.00D+00 NBFU=   667
 Initial guess from the checkpoint file:  "conf-950.chk"
 B after Tr=     0.000000    0.000000    0.000000
         Rot=    1.000000    0.000000    0.000000    0.000000 Ang=   0.00 deg.
 Requested convergence on RMS density matrix=1.00D-08 within 128 cycles.
 Requested convergence on MAX density matrix=1.00D-06.
 Requested convergence on             energy=1.00D-06.
 No special actions if energy rises.
 SCF Done:  E(RB3LYP) =  -1866.74716057     A.U. after    3 cycles
            NFock=  3  Conv=0.11D-08     -V/T= 2.0095

 **********************************************************************

            Population analysis using the SCF Density.

 **********************************************************************

 Alpha  occ. eigenvalues --  -19.21053 -19.20947 -19.20926 -19.20731 -19.20602
 Alpha  occ. eigenvalues --  -19.19243 -14.52162 -14.50738 -14.49110 -14.48327
 Alpha  occ. eigenvalues --  -14.45012 -14.44777 -14.43787 -14.43102 -10.46118
 Alpha  occ. eigenvalues --  -10.38630 -10.38477 -10.38270 -10.37228 -10.36011
 Alpha  occ. eigenvalues --  -10.34962 -10.34472 -10.32537 -10.31472 -10.30407
 Alpha  occ. eigenvalues --  -10.29459 -10.29071 -10.28771 -10.28507 -10.28461
 Alpha  occ. eigenvalues --  -10.27304 -10.27236 -10.27107 -10.27025 -10.26979
 Alpha  occ. eigenvalues --  -10.25981 -10.25341 -10.23161 -10.22808  -1.14832
 Alpha  occ. eigenvalues --   -1.14167  -1.13103  -1.12718  -1.12072  -1.10884
 Alpha  occ. eigenvalues --   -1.07266  -1.05272  -1.03730  -1.02706  -1.01633
 Alpha  occ. eigenvalues --   -1.00858  -0.99888  -0.99525  -0.94020  -0.89983
 Alpha  occ. eigenvalues --   -0.88999  -0.87715  -0.86564  -0.84166  -0.83076
 Alpha  occ. eigenvalues --   -0.82596  -0.80688  -0.79034  -0.76606  -0.75253
 Alpha  occ. eigenvalues --   -0.75231  -0.74006  -0.72128  -0.71709  -0.71280
 Alpha  occ. eigenvalues --   -0.68959  -0.68536  -0.67799  -0.67451  -0.67288
 Alpha  occ. eigenvalues --   -0.67133  -0.66518  -0.65498  -0.64945  -0.63777
 Alpha  occ. eigenvalues --   -0.63391  -0.63136  -0.63009  -0.62043  -0.61155
 Alpha  occ. eigenvalues --   -0.60383  -0.59714  -0.58885  -0.58232  -0.57420
 Alpha  occ. eigenvalues --   -0.56911  -0.55593  -0.55424  -0.54948  -0.54757
 Alpha  occ. eigenvalues --   -0.54170  -0.53818  -0.53602  -0.53545  -0.53143
 Alpha  occ. eigenvalues --   -0.52718  -0.51941  -0.51430  -0.51244  -0.50680
 Alpha  occ. eigenvalues --   -0.50407  -0.50213  -0.49908  -0.49649  -0.49055
 Alpha  occ. eigenvalues --   -0.48849  -0.48337  -0.47788  -0.47387  -0.47238
 Alpha  occ. eigenvalues --   -0.46326  -0.46208  -0.45772  -0.45393  -0.45269
 Alpha  occ. eigenvalues --   -0.44727  -0.44347  -0.44033  -0.43862  -0.43717
 Alpha  occ. eigenvalues --   -0.42926  -0.42686  -0.42317  -0.41894  -0.41357
 Alpha  occ. eigenvalues --   -0.39417  -0.38908  -0.38638  -0.38481  -0.37422
 Alpha  occ. eigenvalues --   -0.36785  -0.36217  -0.36014  -0.35248  -0.35005
 Alpha  occ. eigenvalues --   -0.34707  -0.34436  -0.33548  -0.33333  -0.32788
 Alpha  occ. eigenvalues --   -0.32567  -0.31265
 Alpha virt. eigenvalues --   -0.10517  -0.08879  -0.08689  -0.08457  -0.07356
 Alpha virt. eigenvalues --   -0.06712  -0.06502  -0.05948  -0.05324  -0.03075
 Alpha virt. eigenvalues --   -0.01982  -0.00551  -0.00368  -0.00137   0.00159
 Alpha virt. eigenvalues --    0.00989   0.01263   0.01992   0.02757   0.02931
 Alpha virt. eigenvalues --    0.03055   0.03411   0.03582   0.04192   0.04703
 Alpha virt. eigenvalues --    0.04922   0.05687   0.05920   0.06434   0.06598
 Alpha virt. eigenvalues --    0.07174   0.07504   0.07608   0.07729   0.08252
 Alpha virt. eigenvalues --    0.08455   0.08633   0.08829   0.09529   0.09748
 Alpha virt. eigenvalues --    0.09975   0.10535   0.10642   0.10832   0.11098
 Alpha virt. eigenvalues --    0.11531   0.11869   0.12143   0.12336   0.13114
 Alpha virt. eigenvalues --    0.13407   0.13481   0.14069   0.14362   0.14692
 Alpha virt. eigenvalues --    0.14994   0.15337   0.15557   0.15775   0.16372
 Alpha virt. eigenvalues --    0.16775   0.17126   0.17949   0.18383   0.19064
 Alpha virt. eigenvalues --    0.19522   0.19906   0.20652   0.20770   0.21440
 Alpha virt. eigenvalues --    0.22865   0.23107   0.24362   0.25336   0.25999
 Alpha virt. eigenvalues --    0.26547   0.26994   0.27268   0.27697   0.28303
 Alpha virt. eigenvalues --    0.29699   0.30380   0.31792   0.32904   0.33097
 Alpha virt. eigenvalues --    0.33906   0.35844   0.36650   0.38501   0.40131
 Alpha virt. eigenvalues --    0.40726   0.41731   0.42420   0.42667   0.43469
 Alpha virt. eigenvalues --    0.43638   0.43751   0.44327   0.44580   0.44862
 Alpha virt. eigenvalues --    0.45031   0.45717   0.46046   0.46181   0.46350
 Alpha virt. eigenvalues --    0.46443   0.47322   0.47445   0.48194   0.48581
 Alpha virt. eigenvalues --    0.48959   0.49420   0.49680   0.49919   0.50525
 Alpha virt. eigenvalues --    0.50897   0.51165   0.51447   0.51830   0.52372
 Alpha virt. eigenvalues --    0.52736   0.52877   0.53130   0.53651   0.53753
 Alpha virt. eigenvalues --    0.54382   0.54825   0.55149   0.55520   0.55922
 Alpha virt. eigenvalues --    0.56163   0.56797   0.56853   0.57366   0.57510
 Alpha virt. eigenvalues --    0.57937   0.58703   0.58777   0.59623   0.59988
 Alpha virt. eigenvalues --    0.60209   0.60599   0.60643   0.62115   0.62769
 Alpha virt. eigenvalues --    0.63293   0.63528   0.64236   0.64904   0.65377
 Alpha virt. eigenvalues --    0.65619   0.65923   0.66475   0.66912   0.67362
 Alpha virt. eigenvalues --    0.67725   0.68998   0.69350   0.69721   0.71195
 Alpha virt. eigenvalues --    0.71681   0.71911   0.72299   0.72695   0.73149
 Alpha virt. eigenvalues --    0.73407   0.74182   0.74282   0.74883   0.75089
 Alpha virt. eigenvalues --    0.75584   0.75822   0.75911   0.76353   0.76555
 Alpha virt. eigenvalues --    0.77095   0.77536   0.77648   0.78110   0.78725
 Alpha virt. eigenvalues --    0.78754   0.79157   0.79530   0.79746   0.80015
 Alpha virt. eigenvalues --    0.80532   0.81194   0.81493   0.81916   0.82789
 Alpha virt. eigenvalues --    0.82924   0.83428   0.83555   0.84162   0.84373
 Alpha virt. eigenvalues --    0.84793   0.85112   0.85339   0.85741   0.86490
 Alpha virt. eigenvalues --    0.86789   0.86873   0.87427   0.87935   0.88197
 Alpha virt. eigenvalues --    0.88383   0.88615   0.88843   0.89315   0.89836
 Alpha virt. eigenvalues --    0.90981   0.91206   0.91360   0.91665   0.92741
 Alpha virt. eigenvalues --    0.92950   0.94050   0.94545   0.94761   0.95375
 Alpha virt. eigenvalues --    0.96043   0.96515   0.97048   0.97384   0.98330
 Alpha virt. eigenvalues --    0.99574   1.00152   1.00507   1.01131   1.02316
 Alpha virt. eigenvalues --    1.02696   1.03337   1.03917   1.05593   1.06285
 Alpha virt. eigenvalues --    1.06989   1.08310   1.08956   1.09556   1.10128
 Alpha virt. eigenvalues --    1.10811   1.11505   1.12447   1.12561   1.12842
 Alpha virt. eigenvalues --    1.14093   1.15752   1.16422   1.17144   1.17595
 Alpha virt. eigenvalues --    1.18054   1.19014   1.19733   1.20797   1.21100
 Alpha virt. eigenvalues --    1.21654   1.22375   1.23791   1.24869   1.25368
 Alpha virt. eigenvalues --    1.26003   1.27397   1.28856   1.30051   1.31064
 Alpha virt. eigenvalues --    1.31846   1.32342   1.32451   1.33921   1.34366
 Alpha virt. eigenvalues --    1.34839   1.35496   1.36635   1.37166   1.38451
 Alpha virt. eigenvalues --    1.38836   1.39156   1.39975   1.40476   1.40997
 Alpha virt. eigenvalues --    1.42018   1.42158   1.43047   1.43437   1.44349
 Alpha virt. eigenvalues --    1.45204   1.45607   1.46571   1.46882   1.48907
 Alpha virt. eigenvalues --    1.49855   1.50014   1.50506   1.51544   1.52521
 Alpha virt. eigenvalues --    1.53592   1.53867   1.55007   1.56006   1.56439
 Alpha virt. eigenvalues --    1.57086   1.58127   1.59637   1.60276   1.60781
 Alpha virt. eigenvalues --    1.62243   1.62717   1.63746   1.64583   1.65000
 Alpha virt. eigenvalues --    1.65457   1.66504   1.66941   1.68340   1.68894
 Alpha virt. eigenvalues --    1.69408   1.69567   1.69984   1.70733   1.71294
 Alpha virt. eigenvalues --    1.72266   1.72659   1.73529   1.74005   1.74278
 Alpha virt. eigenvalues --    1.74713   1.75246   1.75716   1.76411   1.76906
 Alpha virt. eigenvalues --    1.78049   1.78134   1.78968   1.80296   1.80418
 Alpha virt. eigenvalues --    1.80985   1.81744   1.82088   1.82851   1.83179
 Alpha virt. eigenvalues --    1.83476   1.83898   1.84371   1.84480   1.85495
 Alpha virt. eigenvalues --    1.85726   1.86358   1.87335   1.87474   1.88658
 Alpha virt. eigenvalues --    1.89079   1.89330   1.89629   1.90071   1.91166
 Alpha virt. eigenvalues --    1.91593   1.92255   1.92770   1.93497   1.93975
 Alpha virt. eigenvalues --    1.95026   1.95190   1.96111   1.96450   1.96799
 Alpha virt. eigenvalues --    1.97143   1.97583   1.98634   1.99211   2.00225
 Alpha virt. eigenvalues --    2.00687   2.01210   2.01940   2.02295   2.02938
 Alpha virt. eigenvalues --    2.04071   2.04555   2.06179   2.06477   2.07081
 Alpha virt. eigenvalues --    2.07521   2.07806   2.08686   2.08858   2.10050
 Alpha virt. eigenvalues --    2.10370   2.11944   2.12540   2.12736   2.14196
 Alpha virt. eigenvalues --    2.14793   2.15290   2.15960   2.17361   2.18526
 Alpha virt. eigenvalues --    2.18881   2.19093   2.19581   2.20385   2.21022
 Alpha virt. eigenvalues --    2.21908   2.22926   2.23147   2.24873   2.25390
 Alpha virt. eigenvalues --    2.26528   2.27380   2.27897   2.29294   2.31464
 Alpha virt. eigenvalues --    2.32214   2.33201   2.34096   2.34532   2.35236
 Alpha virt. eigenvalues --    2.35513   2.36198   2.38084   2.38559   2.38830
 Alpha virt. eigenvalues --    2.39086   2.39920   2.41939   2.43293   2.44033
 Alpha virt. eigenvalues --    2.44396   2.44792   2.46000   2.46761   2.47802
 Alpha virt. eigenvalues --    2.48194   2.49224   2.49548   2.50228   2.50316
 Alpha virt. eigenvalues --    2.51630   2.51842   2.53123   2.54887   2.55535
 Alpha virt. eigenvalues --    2.56066   2.56873   2.57531   2.58708   2.59431
 Alpha virt. eigenvalues --    2.60166   2.60617   2.62055   2.63300   2.63977
 Alpha virt. eigenvalues --    2.64727   2.65084   2.66192   2.67417   2.68928
 Alpha virt. eigenvalues --    2.69429   2.70208   2.71982   2.75940   2.76005
 Alpha virt. eigenvalues --    2.77925   2.79490   2.81832   2.85714   2.87668
 Alpha virt. eigenvalues --    2.88989   2.89903   2.90841   2.92412   2.94028
 Alpha virt. eigenvalues --    2.94967   2.96115   2.97374   2.97708   2.97997
 Alpha virt. eigenvalues --    2.98812   3.03594   3.06394   3.07622   3.10311
 Alpha virt. eigenvalues --    3.32640   3.67443   3.72260   3.75602   3.77302
 Alpha virt. eigenvalues --    3.86768   3.91275   3.93742   3.96918   3.98352
 Alpha virt. eigenvalues --    4.01278   4.03826   4.04570   4.07141   4.08154
 Alpha virt. eigenvalues --    4.08579   4.08857   4.10957   4.14195   4.18485
 Alpha virt. eigenvalues --    4.18770   4.21351   4.23588   4.25909   4.26763
 Alpha virt. eigenvalues --    4.28636   4.30212   4.31985   4.33090   4.38412
 Alpha virt. eigenvalues --    4.39360   4.44320   4.48348   4.49316   4.51468
 Alpha virt. eigenvalues --    4.53138   4.61205   4.63030   4.63593   4.64557
          Condensed to atoms (all electrons):
 Mulliken charges:
               1
     1  N   -0.768088
     2  C   -0.098325
     3  C    0.641173
     4  O   -0.515026
     5  C   -0.422923
     6  C    0.137073
     7  C   -0.179845
     8  C   -0.243732
     9  C   -0.125620
    10  C   -0.139309
    11  C   -0.126560
    12  H    0.389979
    13  H    0.208970
    14  H    0.175240
    15  H    0.224208
    16  H    0.138466
    17  H    0.177493
    18  H    0.153066
    19  H    0.136788
    20  H    0.150026
    21  H    0.403591
    22  H    0.444016
    23  N   -0.638153
    24  C   -0.083544
    25  C    0.603041
    26  O   -0.479090
    27  C   -0.266754
    28  C   -0.082937
    29  C   -0.461548
    30  C   -0.444474
    31  H    0.380428
    32  H    0.215905
    33  H    0.156060
    34  H    0.121642
    35  H    0.136975
    36  H    0.167856
    37  H    0.146436
    38  H    0.154751
    39  H    0.148687
    40  H    0.138374
    41  H    0.154317
    42  N   -0.588658
    43  C   -0.084502
    44  C    0.630420
    45  O   -0.571388
    46  C   -0.389193
    47  C    0.624986
    48  N   -0.740003
    49  O   -0.527607
    50  H    0.325599
    51  H    0.221266
    52  H    0.193367
    53  H    0.184728
    54  H    0.358456
    55  H    0.353581
    56  N   -0.609447
    57  C   -0.048768
    58  C    0.633217
    59  O   -0.619530
    60  C   -0.297408
    61  C   -0.274298
    62  C   -0.170919
    63  N   -0.609472
    64  C    0.779266
    65  N   -0.759617
    66  N   -0.778224
    67  O   -0.566285
    68  H    0.387727
    69  H    0.150420
    70  H    0.160297
    71  H    0.193340
    72  H    0.155479
    73  H    0.168479
    74  H    0.154482
    75  H    0.191953
    76  H    0.413063
    77  H    0.376592
    78  H    0.380203
    79  H    0.362900
    80  H    0.406866
 Sum of Mulliken charges =   1.00000
 Mulliken charges with hydrogens summed into heavy atoms:
               1
     1  N    0.469498
     2  C    0.110645
     3  C    0.641173
     4  O   -0.515026
     5  C   -0.023476
     6  C    0.137073
     7  C   -0.041378
     8  C   -0.066240
     9  C    0.027446
    10  C   -0.002521
    11  C    0.023467
    23  N   -0.257726
    24  C    0.132361
    25  C    0.603041
    26  O   -0.479090
    27  C    0.010947
    28  C    0.054038
    29  C    0.007494
    30  C   -0.003095
    42  N   -0.263059
    43  C    0.136763
    44  C    0.630420
    45  O   -0.571388
    46  C   -0.011098
    47  C    0.624986
    48  N   -0.027966
    49  O   -0.527607
    56  N   -0.221720
    57  C    0.101652
    58  C    0.633217
    59  O   -0.619530
    60  C    0.056230
    61  C    0.049659
    62  C    0.175516
    63  N   -0.196408
    64  C    0.779266
    65  N   -0.002822
    66  N   -0.008458
    67  O   -0.566285
 Electronic spatial extent (au):  <R**2>=         221855.9821
 Charge=              1.0000 electrons
 Dipole moment (field-independent basis, Debye):
    X=            -22.3040    Y=             56.0563    Z=            -46.1289  Tot=             75.9451
 Quadrupole moment (field-independent basis, Debye-Ang):
   XX=           -127.5822   YY=            508.7754   ZZ=            306.1871
   XY=           -256.2956   XZ=            236.5787   YZ=           -548.9368
 Traceless Quadrupole moment (field-independent basis, Debye-Ang):
   XX=           -356.7090   YY=            279.6486   ZZ=             77.0604
   XY=           -256.2956   XZ=            236.5787   YZ=           -548.9368
 Octapole moment (field-independent basis, Debye-Ang**2):
  XXX=           1084.7049  YYY=           2389.4655  ZZZ=          -1875.8745  XYY=          -2633.5259
  XXY=          -1431.1163  XXZ=            447.6518  XZZ=          -2205.0159  YZZ=           3808.2314
  YYZ=          -5468.4063  XYZ=           2732.7258
 Hexadecapole moment (field-independent basis, Debye-Ang**3):
 XXXX=         -11375.2472 YYYY=         -44960.5561 ZZZZ=           8379.8829 XXXY=          13801.0599
 XXXZ=          -7876.3344 YYYX=         -20964.0326 YYYZ=         -38439.5948 ZZZX=          19500.7450
 ZZZY=         -25048.2586 XXYY=         -19642.6731 XXZZ=          -1397.5211 YYZZ=          35831.6361
 XXYZ=           4940.8864 YYXZ=          28284.8302 ZZXY=         -25347.4024
 N-N= 4.893958121742D+03 E-N=-1.410918120923D+04  KE= 1.849242086462D+03
 Unable to Open any file for archive entry.
 1\1\GINC-LAC-250\SP\RB3LYP\6-31G(d)\C25H41N8O6(1+)\KENGMITH\11-Jun-202
 2\0\\# B3LYP/6-31G* empiricaldispersion=gd3 guess=read geom=check nosy
 mm integral(ultrafinegrid)\\Candidate Structure: Conf:950 Charge calc 
 in gas phase\\1,1\N,0,-0.8717208406,14.3795283281,-7.2106625514\C,0,-1
 .2989119982,14.0066918724,-5.8137381492\C,0,-0.2840633769,12.918720000
 8,-5.3919569771\O,0,0.9036567627,13.1850699061,-5.5543442989\C,0,-2.80
 60796755,13.7251558547,-5.7516382885\C,0,-3.6146999691,14.9693650999,-
 6.065774451\C,0,-3.9668099364,15.857526135,-5.0397065955\C,0,-3.973825
 5106,15.2861032453,-7.3851935133\C,0,-4.6641391479,17.0325758145,-5.32
 00919759\C,0,-4.6683878216,16.4664344445,-7.6659474071\C,0,-5.01608231
 9,17.3415197363,-6.636396157\H,0,-1.3477704886,15.2264976906,-7.533888
 2928\H,0,-1.0692754966,14.8716456299,-5.1816767357\H,0,-3.0244445576,1
 3.3962478617,-4.7295878401\H,0,-3.0565860601,12.8926882473,-6.41381700
 43\H,0,-3.6996328437,15.622378135,-4.011549917\H,0,-3.7129815649,14.61
 23734822,-8.1978909791\H,0,-4.9347427932,17.7054899183,-4.5113959608\H
 ,0,-4.939594661,16.6982315528,-8.6926906663\H,0,-5.5588061749,18.25661
 38314,-6.855124275\H,0,0.1472592854,14.5120996719,-7.1981884952\H,0,-1
 .1135915491,13.5539690081,-7.8753781202\N,0,-0.7729611293,11.796392013
 5,-4.818459197\C,0,0.1177774437,10.6886392863,-4.4276731387\C,0,0.0281
 588946,9.635072001,-5.5459309191\O,0,0.8981832905,9.5132786346,-6.3886
 869968\C,0,-0.221961325,10.1866615091,-3.0172485061\C,0,0.5551509442,8
 .9271466755,-2.5865029039\C,0,2.0746864705,9.1125604787,-2.7180259341\
 C,0,0.1675723144,8.5427093783,-1.1520758251\H,0,-1.7386907626,11.54912
 75759,-5.0227898819\H,0,1.1325424449,11.0821045462,-4.4662466559\H,0,-
 0.0165233549,11.0075598498,-2.3176926451\H,0,-1.3024342286,9.991233617
 3,-2.9407215018\H,0,0.2537356471,8.1053577581,-3.2522489426\H,0,2.3833
 696557,9.2540043781,-3.7593602984\H,0,2.4140080487,9.9813680898,-2.139
 1072921\H,0,2.6032200182,8.2323359394,-2.3361794574\H,0,0.4658934,9.32
 65491219,-0.444324102\H,0,-0.9147386653,8.3950857403,-1.0518645076\H,0
 ,0.6633851176,7.6143432483,-0.8481944933\N,0,-1.1509889039,8.900870424
 6,-5.56809555\C,0,-1.7082818954,8.5714180133,-6.8697358975\C,0,-2.6555
 952174,9.7334457342,-7.2721415847\O,0,-3.0861558443,10.521073888,-6.41
 75724027\C,0,-2.3938551646,7.1929031183,-6.8664296747\C,0,-2.462762008
 3,6.5589143946,-8.2572242461\N,0,-2.8006894801,5.2459350421,-8.2747079
 71\O,0,-2.2431881814,7.1841516269,-9.2958689387\H,0,-1.8615496402,9.21
 49774825,-4.9158395018\H,0,-0.8697695158,8.5442851326,-7.5692525845\H,
 0,-1.8228239413,6.5377518488,-6.1984581162\H,0,-3.4095537701,7.2543242
 341,-6.452772231\H,0,-2.8071727167,4.7655477991,-9.1645281476\H,0,-2.8
 683286081,4.6928582765,-7.433023148\N,0,-2.9498910495,9.8041362167,-8.
 5829475386\C,0,-3.5517680118,10.9709332315,-9.205441332\C,0,-2.6249425
 643,12.2179943244,-9.1268816541\O,0,-2.9862945666,13.2343722786,-9.810
 1499101\C,0,-4.9896656613,11.2710409707,-8.6619338147\C,0,-6.126300194
 4,11.0118825213,-9.6742701516\C,0,-6.4579099089,12.2165567596,-10.5718
 663413\N,0,-5.2612498799,12.7895867035,-11.1957309392\C,0,-4.762444305
 8,12.5119546549,-12.3953029216\N,0,-5.5283432259,12.0606209335,-13.407
 8257908\N,0,-3.4400851335,12.6751854163,-12.5867418493\O,0,-1.60730630
 86,12.1679198584,-8.4013794064\H,0,-2.5574029699,9.064624977,-9.165421
 9257\H,0,-3.6260224979,10.7268015199,-10.2706032358\H,0,-5.0473124209,
 12.303165401,-8.2943832691\H,0,-5.1408518568,10.6424405176,-7.78454216
 7\H,0,-5.8786383568,10.1426502415,-10.2976248478\H,0,-7.047661877,10.7
 563160416,-9.1370712271\H,0,-7.1933203988,11.9413161934,-11.333778896\
 H,0,-6.907759713,13.0152418851,-9.9732953085\H,0,-4.5244565875,13.1121
 084104,-10.5309477666\H,0,-5.1152772306,11.7542628303,-14.2758177014\H
 ,0,-6.5341146995,12.1124833903,-13.3625906111\H,0,-3.0663661501,12.838
 6366003,-13.5105561167\H,0,-2.8890205602,12.9618523177,-11.7732939325\
 \Version=ES64L-G16RevC.01\HF=-1866.7471606\RMSD=1.081e-09\Dipole=-4.15
 15334,0.3640186,-4.5027725\Quadrupole=-265.2043975,207.9119027,57.2924
 948,-190.549465,175.8904918,-408.1210576\PG=C01 [X(C25H41N8O6)]\\@
 The archive entry for this job was punched.


 ... IT CAN BE VERY DIFFICULT, IN THESE COMPLEX TIMES,
 TO UNDERSTAND JUST HOW SCIENTISTS DO WHAT THEY DO.

                     DON MOSER IN THE FEBRUARY 1979 SMITHSONIAN
 Job cpu time:       0 days  0 hours  5 minutes  5.0 seconds.
 Elapsed time:       0 days  0 hours  1 minutes 17.0 seconds.
 File lengths (MBytes):  RWF=    344 Int=      0 D2E=      0 Chk=     48 Scr=     16
 Normal termination of Gaussian 16 at Sat Jun 11 20:56:41 2022.
