 Entering Gaussian System, Link 0=/opt/software/Gaussian/g16-AVX-C.01/g16/g16
 Input=charge-conf-60.com
 Output=charge-conf-60.log
 Initial command:
 /opt/software/Gaussian/g16-AVX-C.01/g16/l1.exe "/mnt/gs18/scratch/users/kengmith/Gau-31170.inp" -scrdir="/mnt/gs18/scratch/users/kengmith/"
 Entering Link 1 = /opt/software/Gaussian/g16-AVX-C.01/g16/l1.exe PID=     31187.
  
 Copyright (c) 1988-2019, Gaussian, Inc.  All Rights Reserved.
  
 This is part of the Gaussian(R) 16 program.  It is based on
 the Gaussian(R) 09 system (copyright 2009, Gaussian, Inc.),
 the Gaussian(R) 03 system (copyright 2003, Gaussian, Inc.),
 the Gaussian(R) 98 system (copyright 1998, Gaussian, Inc.),
 the Gaussian(R) 94 system (copyright 1995, Gaussian, Inc.),
 the Gaussian 92(TM) system (copyright 1992, Gaussian, Inc.),
 the Gaussian 90(TM) system (copyright 1990, Gaussian, Inc.),
 the Gaussian 88(TM) system (copyright 1988, Gaussian, Inc.),
 the Gaussian 86(TM) system (copyright 1986, Carnegie Mellon
 University), and the Gaussian 82(TM) system (copyright 1983,
 Carnegie Mellon University). Gaussian is a federally registered
 trademark of Gaussian, Inc.
  
 This software contains proprietary and confidential information,
 including trade secrets, belonging to Gaussian, Inc.
  
 This software is provided under written license and may be
 used, copied, transmitted, or stored only in accord with that
 written license.
  
 The following legend is applicable only to US Government
 contracts under FAR:
  
                    RESTRICTED RIGHTS LEGEND
  
 Use, reproduction and disclosure by the US Government is
 subject to restrictions as set forth in subparagraphs (a)
 and (c) of the Commercial Computer Software - Restricted
 Rights clause in FAR 52.227-19.
  
 Gaussian, Inc.
 340 Quinnipiac St., Bldg. 40, Wallingford CT 06492
  
  
 ---------------------------------------------------------------
 Warning -- This program may not be used in any manner that
 competes with the business of Gaussian, Inc. or will provide
 assistance to any competitor of Gaussian, Inc.  The licensee
 of this program is prohibited from giving any competitor of
 Gaussian, Inc. access to this program.  By using this program,
 the user acknowledges that Gaussian, Inc. is engaged in the
 business of creating and licensing software in the field of
 computational chemistry and represents and warrants to the
 licensee that it is not a competitor of Gaussian, Inc. and that
 it will not use this program in any manner prohibited above.
 ---------------------------------------------------------------
  

 Cite this work as:
 Gaussian 16, Revision C.01,
 M. J. Frisch, G. W. Trucks, H. B. Schlegel, G. E. Scuseria, 
 M. A. Robb, J. R. Cheeseman, G. Scalmani, V. Barone, 
 G. A. Petersson, H. Nakatsuji, X. Li, M. Caricato, A. V. Marenich, 
 J. Bloino, B. G. Janesko, R. Gomperts, B. Mennucci, H. P. Hratchian, 
 J. V. Ortiz, A. F. Izmaylov, J. L. Sonnenberg, D. Williams-Young, 
 F. Ding, F. Lipparini, F. Egidi, J. Goings, B. Peng, A. Petrone, 
 T. Henderson, D. Ranasinghe, V. G. Zakrzewski, J. Gao, N. Rega, 
 G. Zheng, W. Liang, M. Hada, M. Ehara, K. Toyota, R. Fukuda, 
 J. Hasegawa, M. Ishida, T. Nakajima, Y. Honda, O. Kitao, H. Nakai, 
 T. Vreven, K. Throssell, J. A. Montgomery, Jr., J. E. Peralta, 
 F. Ogliaro, M. J. Bearpark, J. J. Heyd, E. N. Brothers, K. N. Kudin, 
 V. N. Staroverov, T. A. Keith, R. Kobayashi, J. Normand, 
 K. Raghavachari, A. P. Rendell, J. C. Burant, S. S. Iyengar, 
 J. Tomasi, M. Cossi, J. M. Millam, M. Klene, C. Adamo, R. Cammi, 
 J. W. Ochterski, R. L. Martin, K. Morokuma, O. Farkas, 
 J. B. Foresman, and D. J. Fox, Gaussian, Inc., Wallingford CT, 2019.
 
 ******************************************
 Gaussian 16:  ES64L-G16RevC.01  3-Jul-2019
                11-Jun-2022 
 ******************************************
 %mem=8gb
 %nproc=4
 Will use up to    4 processors via shared memory.
 %chk=conf-60.chk
 ----------------------------------------------------------------------
 # B3LYP/6-31G* empiricaldispersion=gd3 guess=read geom=check nosymm in
 tegral(ultrafinegrid)
 ----------------------------------------------------------------------
 1/29=2,38=1,172=1/1;
 2/12=2,15=1,40=1/2;
 3/5=1,6=6,7=1,11=2,14=-4,25=1,30=1,74=-5,75=-5,116=-2,124=31/1,2,3;
 4/5=1/1;
 5/5=2,38=6/2;
 6/7=2,8=2,9=2,10=2,28=1/1;
 99/5=1,9=1/99;
 -----------------------------------------------------
 Candidate Structure: Conf:60 Charge calc in gas phase
 -----------------------------------------------------
 Structure from the checkpoint file:  "conf-60.chk"
 Charge =  1 Multiplicity = 1
 Redundant internal coordinates found in file.  (old form).
 N,0,-1.3750697557,9.8830818037,-7.440408824
 C,0,-2.2993231527,8.8650253105,-8.0304057435
 C,0,-2.9432578766,9.6098956873,-9.2242126112
 O,0,-2.2592139471,10.4088505283,-9.8558894782
 C,0,-3.2508639401,8.3446260267,-6.9356712752
 C,0,-2.5036893281,7.7970691331,-5.736225978
 C,0,-2.1106618165,6.4529480887,-5.6933225229
 C,0,-2.145994872,8.6485479436,-4.6802247291
 C,0,-1.3760037296,5.9639583254,-4.6129634145
 C,0,-1.4023973031,8.1594660242,-3.604511551
 C,0,-1.0192185519,6.8178606885,-3.5663301673
 H,0,-1.9539525786,10.6465914186,-7.0220807471
 H,0,-1.6837642447,8.0472208564,-8.4197275152
 H,0,-3.8724725295,7.5560253646,-7.3762050882
 H,0,-3.9092063435,9.1654186967,-6.6300824222
 H,0,-2.3891189337,5.7830278055,-6.5043691946
 H,0,-2.4266249313,9.6985476865,-4.7049491666
 H,0,-1.0854740633,4.9176550278,-4.5867812073
 H,0,-1.1272127494,8.8310247682,-2.7964448146
 H,0,-0.4475761945,6.4368110676,-2.7249770014
 H,0,-0.7777600361,9.5383519491,-6.6824270126
 H,0,-0.7998650751,10.3520066333,-8.1519011649
 N,0,-4.2528390656,9.3895091034,-9.4876718554
 C,0,-4.9545477889,10.1998958527,-10.4915165154
 C,0,-4.9195197822,11.7046672004,-10.1402782581
 O,0,-4.9414425919,12.5525701728,-11.0165795009
 C,0,-6.4016036157,9.7181823519,-10.6651328281
 C,0,-6.5686785395,8.2591921894,-11.1364609346
 C,0,-8.0634985665,7.9226419437,-11.2395423889
 C,0,-5.852378,7.9932325189,-12.4674543907
 H,0,-4.7843893372,8.7327653422,-8.934266998
 H,0,-4.4107232824,10.1305892652,-11.4359677035
 H,0,-6.9400008721,9.8651378055,-9.7172252309
 H,0,-6.8699894793,10.3896556266,-11.3947611879
 H,0,-6.1306592662,7.5908578632,-10.3772838017
 H,0,-8.5489188034,8.5470795221,-11.9997817424
 H,0,-8.2107197344,6.8754185524,-11.5246336809
 H,0,-8.5816325604,8.0898711323,-10.2877287421
 H,0,-6.2173053693,8.6735341018,-13.2470201622
 H,0,-4.7674543466,8.1234388933,-12.3882713299
 H,0,-6.0363685556,6.9680788877,-12.8063896661
 N,0,-4.9087840591,12.0000215822,-8.8007906418
 C,0,-4.3429609903,13.2541056522,-8.3377557105
 C,0,-3.3133680058,12.8917326626,-7.2372182811
 O,0,-3.2664816956,11.7196771105,-6.8004514283
 C,0,-5.4396166334,14.2474939325,-7.8827523715
 C,0,-5.0082013404,15.7096217589,-7.9763998765
 N,0,-6.0086848429,16.6044871206,-8.1443948365
 O,0,-3.8308225207,16.0694759299,-7.8837292071
 H,0,-4.7286088373,11.2362886917,-8.1598442957
 H,0,-3.8044310605,13.7088138855,-9.1764981304
 H,0,-6.3111054218,14.0746613767,-8.5216881603
 H,0,-5.7546774883,14.0387621476,-6.8519565233
 H,0,-5.7660564458,17.5820087999,-8.2382470008
 H,0,-6.9596488154,16.3269122973,-8.336725647
 N,0,-2.5064039058,13.8727645493,-6.843513127
 C,0,-1.3910999705,13.7483579042,-5.8951153522
 C,0,-0.6412689758,12.3980193386,-6.1115377537
 O,0,-0.6920232755,11.5218670106,-5.2020693814
 C,0,-1.8150587647,14.0213015245,-4.4398453502
 C,0,-0.707040559,14.6155454785,-3.541159108
 C,0,0.3603266562,13.657108305,-2.9830232548
 N,0,1.217237375,13.0278132928,-4.0009536417
 C,0,2.152495517,13.6423085825,-4.7282422625
 N,0,2.8293302793,14.6924207385,-4.2154169275
 N,0,2.4244942128,13.2058563179,-5.9645805799
 O,0,0.0276964346,12.3130251457,-7.1784556658
 H,0,-2.7145001357,14.7977116035,-7.2384793441
 H,0,-0.6836720678,14.522923898,-6.213384893
 H,0,-2.2113472045,13.0959891975,-4.0093407332
 H,0,-2.6328292585,14.7509478982,-4.4647644123
 H,0,-0.2041540624,15.4371578876,-4.0710417338
 H,0,-1.1861329561,15.0707225002,-2.6650491839
 H,0,0.9812735758,14.1819718519,-2.2487564204
 H,0,-0.1149636619,12.8275734521,-2.4538472245
 H,0,0.7705689252,12.2062013335,-4.4297940275
 H,0,3.4856638839,15.2110874271,-4.7796382859
 H,0,2.8680410961,14.8363334133,-3.2173188081
 H,0,3.2350636236,13.5502214941,-6.4593518599
 H,0,1.6841337059,12.7353106768,-6.5156692006
 Recover connectivity data from disk.
                           ----------------------------
                           !    Current Parameters    !
                           ! (Angstroms and Degrees)  !
 --------------------------                            --------------------------
 ! Name  Definition              Value                                          !
 --------------------------------------------------------------------------------
 ! R1    R(1,2)                  1.4963                                         !
 ! R2    R(1,12)                 1.0455                                         !
 ! R3    R(1,21)                 1.0248                                         !
 ! R4    R(1,22)                 1.0281                                         !
 ! R5    R(2,3)                  1.5475                                         !
 ! R6    R(2,5)                  1.541                                          !
 ! R7    R(2,13)                 1.0951                                         !
 ! R8    R(3,4)                  1.2269                                         !
 ! R9    R(3,23)                 1.3539                                         !
 ! R10   R(5,6)                  1.5155                                         !
 ! R11   R(5,14)                 1.0965                                         !
 ! R12   R(5,15)                 1.0957                                         !
 ! R13   R(6,7)                  1.4011                                         !
 ! R14   R(6,8)                  1.4029                                         !
 ! R15   R(7,9)                  1.395                                          !
 ! R16   R(7,16)                 1.0882                                         !
 ! R17   R(8,10)                 1.3962                                         !
 ! R18   R(8,17)                 1.0871                                         !
 ! R19   R(9,11)                 1.3971                                         !
 ! R20   R(9,18)                 1.0862                                         !
 ! R21   R(10,11)                1.3958                                         !
 ! R22   R(10,19)                1.0861                                         !
 ! R23   R(11,20)                1.0862                                         !
 ! R24   R(23,24)                1.4686                                         !
 ! R25   R(23,31)                1.01                                           !
 ! R26   R(24,25)                1.5456                                         !
 ! R27   R(24,27)                1.535                                          !
 ! R28   R(24,32)                1.092                                          !
 ! R29   R(25,26)                1.2196                                         !
 ! R30   R(25,42)                1.3717                                         !
 ! R31   R(27,28)                1.5423                                         !
 ! R32   R(27,33)                1.1                                            !
 ! R33   R(27,34)                1.0966                                         !
 ! R34   R(28,29)                1.5357                                         !
 ! R35   R(28,30)                1.5347                                         !
 ! R36   R(28,35)                1.1022                                         !
 ! R37   R(29,36)                1.0971                                         !
 ! R38   R(29,37)                1.0953                                         !
 ! R39   R(29,38)                1.0965                                         !
 ! R40   R(30,39)                1.0971                                         !
 ! R41   R(30,40)                1.0956                                         !
 ! R42   R(30,41)                1.0953                                         !
 ! R43   R(42,43)                1.4516                                         !
 ! R44   R(42,50)                1.0132                                         !
 ! R45   R(43,44)                1.55                                           !
 ! R46   R(43,46)                1.5481                                         !
 ! R47   R(43,51)                1.0956                                         !
 ! R48   R(44,45)                1.2517                                         !
 ! R49   R(44,56)                1.3299                                         !
 ! R50   R(46,47)                1.5273                                         !
 ! R51   R(46,52)                1.0944                                         !
 ! R52   R(46,53)                1.0979                                         !
 ! R53   R(47,48)                1.3528                                         !
 ! R54   R(47,49)                1.2346                                         !
 ! R55   R(48,54)                1.0115                                         !
 ! R56   R(48,55)                1.0091                                         !
 ! R57   R(56,57)                1.4693                                         !
 ! R58   R(56,68)                1.027                                          !
 ! R59   R(57,58)                1.5596                                         !
 ! R60   R(57,60)                1.5401                                         !
 ! R61   R(57,69)                1.0962                                         !
 ! R62   R(58,59)                1.2639                                         !
 ! R63   R(58,67)                1.2622                                         !
 ! R64   R(60,61)                1.5455                                         !
 ! R65   R(60,70)                1.0948                                         !
 ! R66   R(60,71)                1.0962                                         !
 ! R67   R(61,62)                1.5393                                         !
 ! R68   R(61,72)                1.0994                                         !
 ! R69   R(61,73)                1.0974                                         !
 ! R70   R(62,63)                1.4719                                         !
 ! R71   R(62,74)                1.0955                                         !
 ! R72   R(62,75)                1.0927                                         !
 ! R73   R(63,64)                1.3346                                         !
 ! R74   R(63,76)                1.0288                                         !
 ! R75   R(64,65)                1.3505                                         !
 ! R76   R(64,66)                1.339                                          !
 ! R77   R(65,77)                1.009                                          !
 ! R78   R(65,78)                1.0092                                         !
 ! R79   R(66,79)                1.0102                                         !
 ! R80   R(66,80)                1.036                                          !
 ! A1    A(2,1,12)             108.2186                                         !
 ! A2    A(2,1,21)             115.0128                                         !
 ! A3    A(2,1,22)             112.523                                          !
 ! A4    A(12,1,21)            105.8097                                         !
 ! A5    A(12,1,22)            104.6907                                         !
 ! A6    A(21,1,22)            109.8286                                         !
 ! A7    A(1,2,3)              103.5168                                         !
 ! A8    A(1,2,5)              109.334                                          !
 ! A9    A(1,2,13)             107.5223                                         !
 ! A10   A(3,2,5)              116.9782                                         !
 ! A11   A(3,2,13)             108.6084                                         !
 ! A12   A(5,2,13)             110.3313                                         !
 ! A13   A(2,3,4)              118.5968                                         !
 ! A14   A(2,3,23)             118.3121                                         !
 ! A15   A(4,3,23)             123.0325                                         !
 ! A16   A(2,5,6)              112.3232                                         !
 ! A17   A(2,5,14)             107.909                                          !
 ! A18   A(2,5,15)             108.4317                                         !
 ! A19   A(6,5,14)             109.7316                                         !
 ! A20   A(6,5,15)             110.2523                                         !
 ! A21   A(14,5,15)            108.0706                                         !
 ! A22   A(5,6,7)              120.6078                                         !
 ! A23   A(5,6,8)              120.1432                                         !
 ! A24   A(7,6,8)              119.1898                                         !
 ! A25   A(6,7,9)              120.5131                                         !
 ! A26   A(6,7,16)             119.7363                                         !
 ! A27   A(9,7,16)             119.7479                                         !
 ! A28   A(6,8,10)             120.2081                                         !
 ! A29   A(6,8,17)             120.217                                          !
 ! A30   A(10,8,17)            119.5605                                         !
 ! A31   A(7,9,11)             120.0283                                         !
 ! A32   A(7,9,18)             119.8138                                         !
 ! A33   A(11,9,18)            120.1576                                         !
 ! A34   A(8,10,11)            120.2647                                         !
 ! A35   A(8,10,19)            119.4436                                         !
 ! A36   A(11,10,19)           120.2914                                         !
 ! A37   A(9,11,10)            119.7935                                         !
 ! A38   A(9,11,20)            120.0171                                         !
 ! A39   A(10,11,20)           120.1892                                         !
 ! A40   A(3,23,24)            120.3552                                         !
 ! A41   A(3,23,31)            120.5499                                         !
 ! A42   A(24,23,31)           118.8073                                         !
 ! A43   A(23,24,25)           111.7811                                         !
 ! A44   A(23,24,27)           110.7676                                         !
 ! A45   A(23,24,32)           108.5537                                         !
 ! A46   A(25,24,27)           110.6463                                         !
 ! A47   A(25,24,32)           104.3024                                         !
 ! A48   A(27,24,32)           110.5932                                         !
 ! A49   A(24,25,26)           120.8763                                         !
 ! A50   A(24,25,42)           115.5766                                         !
 ! A51   A(26,25,42)           123.5113                                         !
 ! A52   A(24,27,28)           115.6936                                         !
 ! A53   A(24,27,33)           108.7853                                         !
 ! A54   A(24,27,34)           106.6033                                         !
 ! A55   A(28,27,33)           109.6761                                         !
 ! A56   A(28,27,34)           109.2463                                         !
 ! A57   A(33,27,34)           106.4088                                         !
 ! A58   A(27,28,29)           109.4673                                         !
 ! A59   A(27,28,30)           112.235                                          !
 ! A60   A(27,28,35)           108.6666                                         !
 ! A61   A(29,28,30)           110.9845                                         !
 ! A62   A(29,28,35)           107.4678                                         !
 ! A63   A(30,28,35)           107.8656                                         !
 ! A64   A(28,29,36)           110.6387                                         !
 ! A65   A(28,29,37)           110.9679                                         !
 ! A66   A(28,29,38)           111.6081                                         !
 ! A67   A(36,29,37)           107.7203                                         !
 ! A68   A(36,29,38)           107.7967                                         !
 ! A69   A(37,29,38)           107.9533                                         !
 ! A70   A(28,30,39)           110.7032                                         !
 ! A71   A(28,30,40)           112.2666                                         !
 ! A72   A(28,30,41)           110.6198                                         !
 ! A73   A(39,30,40)           107.8813                                         !
 ! A74   A(39,30,41)           107.7348                                         !
 ! A75   A(40,30,41)           107.4547                                         !
 ! A76   A(25,42,43)           120.0361                                         !
 ! A77   A(25,42,50)           117.1826                                         !
 ! A78   A(43,42,50)           112.3401                                         !
 ! A79   A(42,43,44)           106.4642                                         !
 ! A80   A(42,43,46)           111.8386                                         !
 ! A81   A(42,43,51)           107.8158                                         !
 ! A82   A(44,43,46)           114.3235                                         !
 ! A83   A(44,43,51)           108.306                                          !
 ! A84   A(46,43,51)           107.8727                                         !
 ! A85   A(43,44,45)           119.4429                                         !
 ! A86   A(43,44,56)           116.1545                                         !
 ! A87   A(45,44,56)           124.383                                          !
 ! A88   A(43,46,47)           113.3399                                         !
 ! A89   A(43,46,52)           106.9293                                         !
 ! A90   A(43,46,53)           110.9311                                         !
 ! A91   A(47,46,52)           109.8972                                         !
 ! A92   A(47,46,53)           108.7011                                         !
 ! A93   A(52,46,53)           106.8348                                         !
 ! A94   A(46,47,48)           115.5933                                         !
 ! A95   A(46,47,49)           122.9422                                         !
 ! A96   A(48,47,49)           121.4533                                         !
 ! A97   A(47,48,54)           118.2542                                         !
 ! A98   A(47,48,55)           122.5924                                         !
 ! A99   A(54,48,55)           118.3044                                         !
 ! A100  A(44,56,57)           126.102                                          !
 ! A101  A(44,56,68)           115.3122                                         !
 ! A102  A(57,56,68)           118.5732                                         !
 ! A103  A(56,57,58)           110.4065                                         !
 ! A104  A(56,57,60)           112.7026                                         !
 ! A105  A(56,57,69)           104.0415                                         !
 ! A106  A(58,57,60)           114.6387                                         !
 ! A107  A(58,57,69)           105.1418                                         !
 ! A108  A(60,57,69)           109.072                                          !
 ! A109  A(57,58,59)           118.7533                                         !
 ! A110  A(57,58,67)           115.494                                          !
 ! A111  A(59,58,67)           125.6535                                         !
 ! A112  A(57,60,61)           114.8497                                         !
 ! A113  A(57,60,70)           108.7485                                         !
 ! A114  A(57,60,71)           107.5671                                         !
 ! A115  A(61,60,70)           110.8448                                         !
 ! A116  A(61,60,71)           106.9849                                         !
 ! A117  A(70,60,71)           107.5455                                         !
 ! A118  A(60,61,62)           117.9421                                         !
 ! A119  A(60,61,72)           109.5741                                         !
 ! A120  A(60,61,73)           108.1031                                         !
 ! A121  A(62,61,72)           108.8383                                         !
 ! A122  A(62,61,73)           105.7542                                         !
 ! A123  A(72,61,73)           105.9323                                         !
 ! A124  A(61,62,63)           114.7804                                         !
 ! A125  A(61,62,74)           109.7394                                         !
 ! A126  A(61,62,75)           110.2836                                         !
 ! A127  A(63,62,74)           109.7776                                         !
 ! A128  A(63,62,75)           105.282                                          !
 ! A129  A(74,62,75)           106.5981                                         !
 ! A130  A(62,63,64)           126.0139                                         !
 ! A131  A(62,63,76)           112.1445                                         !
 ! A132  A(64,63,76)           116.4097                                         !
 ! A133  A(63,64,65)           120.1514                                         !
 ! A134  A(63,64,66)           119.697                                          !
 ! A135  A(65,64,66)           120.1492                                         !
 ! A136  A(64,65,77)           120.8876                                         !
 ! A137  A(64,65,78)           120.3765                                         !
 ! A138  A(77,65,78)           117.0513                                         !
 ! A139  A(64,66,79)           120.2726                                         !
 ! A140  A(64,66,80)           119.606                                          !
 ! A141  A(79,66,80)           117.8879                                         !
 ! D1    D(12,1,2,3)            67.9767                                         !
 ! D2    D(12,1,2,5)           -57.3898                                         !
 ! D3    D(12,1,2,13)         -177.1854                                         !
 ! D4    D(21,1,2,3)          -173.9841                                         !
 ! D5    D(21,1,2,5)            60.6494                                         !
 ! D6    D(21,1,2,13)          -59.1461                                         !
 ! D7    D(22,1,2,3)           -47.2069                                         !
 ! D8    D(22,1,2,5)          -172.5733                                         !
 ! D9    D(22,1,2,13)           67.6311                                         !
 ! D10   D(1,2,3,4)             35.3455                                         !
 ! D11   D(1,2,3,23)          -141.9573                                         !
 ! D12   D(5,2,3,4)            155.6407                                         !
 ! D13   D(5,2,3,23)           -21.6622                                         !
 ! D14   D(13,2,3,4)           -78.7132                                         !
 ! D15   D(13,2,3,23)          103.9839                                         !
 ! D16   D(1,2,5,6)            -55.3297                                         !
 ! D17   D(1,2,5,14)          -176.4103                                         !
 ! D18   D(1,2,5,15)            66.7619                                         !
 ! D19   D(3,2,5,6)           -172.4944                                         !
 ! D20   D(3,2,5,14)            66.425                                          !
 ! D21   D(3,2,5,15)           -50.4028                                         !
 ! D22   D(13,2,5,6)            62.7225                                         !
 ! D23   D(13,2,5,14)          -58.3581                                         !
 ! D24   D(13,2,5,15)         -175.1859                                         !
 ! D25   D(2,3,23,24)          171.8811                                         !
 ! D26   D(2,3,23,31)           -1.886                                          !
 ! D27   D(4,3,23,24)           -5.294                                          !
 ! D28   D(4,3,23,31)         -179.0612                                         !
 ! D29   D(2,5,6,7)            -88.4973                                         !
 ! D30   D(2,5,6,8)             88.6821                                         !
 ! D31   D(14,5,6,7)            31.531                                          !
 ! D32   D(14,5,6,8)          -151.2896                                         !
 ! D33   D(15,5,6,7)           150.4511                                         !
 ! D34   D(15,5,6,8)           -32.3694                                         !
 ! D35   D(5,6,7,9)            177.3951                                         !
 ! D36   D(5,6,7,16)            -3.2115                                         !
 ! D37   D(8,6,7,9)              0.1891                                         !
 ! D38   D(8,6,7,16)           179.5825                                         !
 ! D39   D(5,6,8,10)          -176.9436                                         !
 ! D40   D(5,6,8,17)             1.6695                                         !
 ! D41   D(7,6,8,10)             0.2757                                         !
 ! D42   D(7,6,8,17)           178.8888                                         !
 ! D43   D(6,7,9,11)            -0.3912                                         !
 ! D44   D(6,7,9,18)           179.4107                                         !
 ! D45   D(16,7,9,11)         -179.7846                                         !
 ! D46   D(16,7,9,18)            0.0173                                         !
 ! D47   D(6,8,10,11)           -0.5404                                         !
 ! D48   D(6,8,10,19)          179.638                                          !
 ! D49   D(17,8,10,11)        -179.1626                                         !
 ! D50   D(17,8,10,19)           1.0158                                         !
 ! D51   D(7,9,11,10)            0.127                                          !
 ! D52   D(7,9,11,20)          179.9714                                         !
 ! D53   D(18,9,11,10)        -179.6742                                         !
 ! D54   D(18,9,11,20)           0.1702                                         !
 ! D55   D(8,10,11,9)            0.3375                                         !
 ! D56   D(8,10,11,20)        -179.5066                                         !
 ! D57   D(19,10,11,9)        -179.8424                                         !
 ! D58   D(19,10,11,20)          0.3135                                         !
 ! D59   D(3,23,24,25)         -59.0467                                         !
 ! D60   D(3,23,24,27)         177.0618                                         !
 ! D61   D(3,23,24,32)          55.4559                                         !
 ! D62   D(31,23,24,25)        114.828                                          !
 ! D63   D(31,23,24,27)         -9.0636                                         !
 ! D64   D(31,23,24,32)       -130.6695                                         !
 ! D65   D(23,24,25,26)        150.3947                                         !
 ! D66   D(23,24,25,42)        -31.707                                          !
 ! D67   D(27,24,25,26)        -85.6456                                         !
 ! D68   D(27,24,25,42)         92.2527                                         !
 ! D69   D(32,24,25,26)         33.2983                                         !
 ! D70   D(32,24,25,42)       -148.8033                                         !
 ! D71   D(23,24,27,28)        -60.4864                                         !
 ! D72   D(23,24,27,33)         63.4535                                         !
 ! D73   D(23,24,27,34)        177.8335                                         !
 ! D74   D(25,24,27,28)        174.9743                                         !
 ! D75   D(25,24,27,33)        -61.0858                                         !
 ! D76   D(25,24,27,34)         53.2942                                         !
 ! D77   D(32,24,27,28)         59.9127                                         !
 ! D78   D(32,24,27,33)       -176.1474                                         !
 ! D79   D(32,24,27,34)        -61.7674                                         !
 ! D80   D(24,25,42,43)        154.7549                                         !
 ! D81   D(24,25,42,50)         12.522                                          !
 ! D82   D(26,25,42,43)        -27.4085                                         !
 ! D83   D(26,25,42,50)       -169.6414                                         !
 ! D84   D(24,27,28,29)        179.0781                                         !
 ! D85   D(24,27,28,30)        -57.2218                                         !
 ! D86   D(24,27,28,35)         61.9834                                         !
 ! D87   D(33,27,28,29)         55.604                                          !
 ! D88   D(33,27,28,30)        179.304                                          !
 ! D89   D(33,27,28,35)        -61.4907                                         !
 ! D90   D(34,27,28,29)        -60.6667                                         !
 ! D91   D(34,27,28,30)         63.0334                                         !
 ! D92   D(34,27,28,35)       -177.7614                                         !
 ! D93   D(27,28,29,36)         63.3172                                         !
 ! D94   D(27,28,29,37)       -177.168                                          !
 ! D95   D(27,28,29,38)        -56.7142                                         !
 ! D96   D(30,28,29,36)        -61.1155                                         !
 ! D97   D(30,28,29,37)         58.3993                                         !
 ! D98   D(30,28,29,38)        178.8531                                         !
 ! D99   D(35,28,29,36)       -178.836                                          !
 ! D100  D(35,28,29,37)        -59.3212                                         !
 ! D101  D(35,28,29,38)         61.1326                                         !
 ! D102  D(27,28,30,39)        -57.3472                                         !
 ! D103  D(27,28,30,40)         63.2791                                         !
 ! D104  D(27,28,30,41)       -176.6965                                         !
 ! D105  D(29,28,30,39)         65.501                                          !
 ! D106  D(29,28,30,40)       -173.8728                                         !
 ! D107  D(29,28,30,41)        -53.8483                                         !
 ! D108  D(35,28,30,39)       -177.0209                                         !
 ! D109  D(35,28,30,40)        -56.3947                                         !
 ! D110  D(35,28,30,41)         63.6298                                         !
 ! D111  D(25,42,43,44)       -127.5813                                         !
 ! D112  D(25,42,43,46)        106.8878                                         !
 ! D113  D(25,42,43,51)        -11.5416                                         !
 ! D114  D(50,42,43,44)         16.3311                                         !
 ! D115  D(50,42,43,46)       -109.1997                                         !
 ! D116  D(50,42,43,51)        132.3709                                         !
 ! D117  D(42,43,44,45)        -10.0349                                         !
 ! D118  D(42,43,44,56)        168.4245                                         !
 ! D119  D(46,43,44,45)        113.9704                                         !
 ! D120  D(46,43,44,56)        -67.5702                                         !
 ! D121  D(51,43,44,45)       -125.745                                          !
 ! D122  D(51,43,44,56)         52.7143                                         !
 ! D123  D(42,43,46,47)       -154.6468                                         !
 ! D124  D(42,43,46,52)        -33.3953                                         !
 ! D125  D(42,43,46,53)         82.7431                                         !
 ! D126  D(44,43,46,47)         84.2745                                         !
 ! D127  D(44,43,46,52)       -154.4741                                         !
 ! D128  D(44,43,46,53)        -38.3356                                         !
 ! D129  D(51,43,46,47)        -36.2513                                         !
 ! D130  D(51,43,46,52)         85.0002                                         !
 ! D131  D(51,43,46,53)       -158.8613                                         !
 ! D132  D(43,44,56,57)       -175.0888                                         !
 ! D133  D(43,44,56,68)          6.2302                                         !
 ! D134  D(45,44,56,57)          3.2855                                         !
 ! D135  D(45,44,56,68)       -175.3955                                         !
 ! D136  D(43,46,47,48)        153.4517                                         !
 ! D137  D(43,46,47,49)        -27.7533                                         !
 ! D138  D(52,46,47,48)         33.884                                          !
 ! D139  D(52,46,47,49)       -147.321                                          !
 ! D140  D(53,46,47,48)        -82.7113                                         !
 ! D141  D(53,46,47,49)         96.0838                                         !
 ! D142  D(46,47,48,54)       -178.2621                                         !
 ! D143  D(46,47,48,55)         -8.9997                                         !
 ! D144  D(49,47,48,54)          2.9233                                         !
 ! D145  D(49,47,48,55)        172.1858                                         !
 ! D146  D(44,56,57,58)         38.3974                                         !
 ! D147  D(44,56,57,60)        -91.2312                                         !
 ! D148  D(44,56,57,69)        150.7513                                         !
 ! D149  D(68,56,57,58)       -142.9603                                         !
 ! D150  D(68,56,57,60)         87.411                                          !
 ! D151  D(68,56,57,69)        -30.6064                                         !
 ! D152  D(56,57,58,59)       -113.2966                                         !
 ! D153  D(56,57,58,67)         70.1197                                         !
 ! D154  D(60,57,58,59)         15.288                                          !
 ! D155  D(60,57,58,67)       -161.2958                                         !
 ! D156  D(69,57,58,59)        135.0585                                         !
 ! D157  D(69,57,58,67)        -41.5252                                         !
 ! D158  D(56,57,60,61)       -149.9802                                         !
 ! D159  D(56,57,60,70)         85.1781                                         !
 ! D160  D(56,57,60,71)        -31.0142                                         !
 ! D161  D(58,57,60,61)         82.5961                                         !
 ! D162  D(58,57,60,70)        -42.2456                                         !
 ! D163  D(58,57,60,71)       -158.4379                                         !
 ! D164  D(69,57,60,61)        -34.9611                                         !
 ! D165  D(69,57,60,70)       -159.8029                                         !
 ! D166  D(69,57,60,71)         84.0048                                         !
 ! D167  D(57,60,61,62)        -78.8129                                         !
 ! D168  D(57,60,61,72)         46.394                                          !
 ! D169  D(57,60,61,73)        161.4024                                         !
 ! D170  D(70,60,61,62)         44.9222                                         !
 ! D171  D(70,60,61,72)        170.129                                          !
 ! D172  D(70,60,61,73)        -74.8626                                         !
 ! D173  D(71,60,61,62)        161.8963                                         !
 ! D174  D(71,60,61,72)        -72.8969                                         !
 ! D175  D(71,60,61,73)         42.1115                                         !
 ! D176  D(60,61,62,63)         64.4805                                         !
 ! D177  D(60,61,62,74)       -171.3526                                         !
 ! D178  D(60,61,62,75)        -54.2123                                         !
 ! D179  D(72,61,62,63)        -61.0873                                         !
 ! D180  D(72,61,62,74)         63.0797                                         !
 ! D181  D(72,61,62,75)       -179.78                                           !
 ! D182  D(73,61,62,63)       -174.5159                                         !
 ! D183  D(73,61,62,74)        -50.3489                                         !
 ! D184  D(73,61,62,75)         66.7914                                         !
 ! D185  D(61,62,63,64)         70.5286                                         !
 ! D186  D(61,62,63,76)        -82.2821                                         !
 ! D187  D(74,62,63,64)        -53.6181                                         !
 ! D188  D(74,62,63,76)        153.5712                                         !
 ! D189  D(75,62,63,64)       -168.0077                                         !
 ! D190  D(75,62,63,76)         39.1816                                         !
 ! D191  D(62,63,64,65)         31.145                                          !
 ! D192  D(62,63,64,66)       -149.4111                                         !
 ! D193  D(76,63,64,65)       -177.0545                                         !
 ! D194  D(76,63,64,66)          2.3894                                         !
 ! D195  D(63,64,65,77)       -175.0924                                         !
 ! D196  D(63,64,65,78)         20.1323                                         !
 ! D197  D(66,64,65,77)          5.4663                                         !
 ! D198  D(66,64,65,78)       -159.3091                                         !
 ! D199  D(63,64,66,79)       -169.0016                                         !
 ! D200  D(63,64,66,80)         28.3293                                         !
 ! D201  D(65,64,66,79)         10.4423                                         !
 ! D202  D(65,64,66,80)       -152.2268                                         !
 --------------------------------------------------------------------------------
 Symmetry turned off by external request.
 Stoichiometry    C25H41N8O6(1+)
 Framework group  C1[X(C25H41N8O6)]
 Deg. of freedom   234
 Full point group                 C1      NOp   1
                          Input orientation:                          
 ---------------------------------------------------------------------
 Center     Atomic      Atomic             Coordinates (Angstroms)
 Number     Number       Type             X           Y           Z
 ---------------------------------------------------------------------
      1          7           0       -1.375070    9.883082   -7.440409
      2          6           0       -2.299323    8.865025   -8.030406
      3          6           0       -2.943258    9.609896   -9.224213
      4          8           0       -2.259214   10.408851   -9.855889
      5          6           0       -3.250864    8.344626   -6.935671
      6          6           0       -2.503689    7.797069   -5.736226
      7          6           0       -2.110662    6.452948   -5.693323
      8          6           0       -2.145995    8.648548   -4.680225
      9          6           0       -1.376004    5.963958   -4.612963
     10          6           0       -1.402397    8.159466   -3.604512
     11          6           0       -1.019219    6.817861   -3.566330
     12          1           0       -1.953953   10.646591   -7.022081
     13          1           0       -1.683764    8.047221   -8.419728
     14          1           0       -3.872473    7.556025   -7.376205
     15          1           0       -3.909206    9.165419   -6.630082
     16          1           0       -2.389119    5.783028   -6.504369
     17          1           0       -2.426625    9.698548   -4.704949
     18          1           0       -1.085474    4.917655   -4.586781
     19          1           0       -1.127213    8.831025   -2.796445
     20          1           0       -0.447576    6.436811   -2.724977
     21          1           0       -0.777760    9.538352   -6.682427
     22          1           0       -0.799865   10.352007   -8.151901
     23          7           0       -4.252839    9.389509   -9.487672
     24          6           0       -4.954548   10.199896  -10.491517
     25          6           0       -4.919520   11.704667  -10.140278
     26          8           0       -4.941443   12.552570  -11.016580
     27          6           0       -6.401604    9.718182  -10.665133
     28          6           0       -6.568679    8.259192  -11.136461
     29          6           0       -8.063499    7.922642  -11.239542
     30          6           0       -5.852378    7.993233  -12.467454
     31          1           0       -4.784389    8.732765   -8.934267
     32          1           0       -4.410723   10.130589  -11.435968
     33          1           0       -6.940001    9.865138   -9.717225
     34          1           0       -6.869989   10.389656  -11.394761
     35          1           0       -6.130659    7.590858  -10.377284
     36          1           0       -8.548919    8.547080  -11.999782
     37          1           0       -8.210720    6.875419  -11.524634
     38          1           0       -8.581633    8.089871  -10.287729
     39          1           0       -6.217305    8.673534  -13.247020
     40          1           0       -4.767454    8.123439  -12.388271
     41          1           0       -6.036369    6.968079  -12.806390
     42          7           0       -4.908784   12.000022   -8.800791
     43          6           0       -4.342961   13.254106   -8.337756
     44          6           0       -3.313368   12.891733   -7.237218
     45          8           0       -3.266482   11.719677   -6.800451
     46          6           0       -5.439617   14.247494   -7.882752
     47          6           0       -5.008201   15.709622   -7.976400
     48          7           0       -6.008685   16.604487   -8.144395
     49          8           0       -3.830823   16.069476   -7.883729
     50          1           0       -4.728609   11.236289   -8.159844
     51          1           0       -3.804431   13.708814   -9.176498
     52          1           0       -6.311105   14.074661   -8.521688
     53          1           0       -5.754677   14.038762   -6.851957
     54          1           0       -5.766056   17.582009   -8.238247
     55          1           0       -6.959649   16.326912   -8.336726
     56          7           0       -2.506404   13.872765   -6.843513
     57          6           0       -1.391100   13.748358   -5.895115
     58          6           0       -0.641269   12.398019   -6.111538
     59          8           0       -0.692023   11.521867   -5.202069
     60          6           0       -1.815059   14.021302   -4.439845
     61          6           0       -0.707041   14.615545   -3.541159
     62          6           0        0.360327   13.657108   -2.983023
     63          7           0        1.217237   13.027813   -4.000954
     64          6           0        2.152496   13.642309   -4.728242
     65          7           0        2.829330   14.692421   -4.215417
     66          7           0        2.424494   13.205856   -5.964581
     67          8           0        0.027696   12.313025   -7.178456
     68          1           0       -2.714500   14.797712   -7.238479
     69          1           0       -0.683672   14.522924   -6.213385
     70          1           0       -2.211347   13.095989   -4.009341
     71          1           0       -2.632829   14.750948   -4.464764
     72          1           0       -0.204154   15.437158   -4.071042
     73          1           0       -1.186133   15.070723   -2.665049
     74          1           0        0.981274   14.181972   -2.248756
     75          1           0       -0.114964   12.827573   -2.453847
     76          1           0        0.770569   12.206201   -4.429794
     77          1           0        3.485664   15.211087   -4.779638
     78          1           0        2.868041   14.836333   -3.217319
     79          1           0        3.235064   13.550221   -6.459352
     80          1           0        1.684134   12.735311   -6.515669
 ---------------------------------------------------------------------
 Rotational constants (GHZ):           0.1053959           0.0662425           0.0465927
 Standard basis: 6-31G(d) (6D, 7F)
   667 basis functions,  1256 primitive gaussians,   667 cartesian basis functions
   147 alpha electrons      147 beta electrons
       nuclear repulsion energy      4877.3887216389 Hartrees.
 NAtoms=   80 NActive=   80 NUniq=   80 SFac= 1.00D+00 NAtFMM=   60 NAOKFM=T Big=T
 Integral buffers will be    131072 words long.
 Raffenetti 2 integral format.
 Two-electron integral symmetry is turned off.
 Nuclear repulsion after empirical dispersion term =     4877.2768024842 Hartrees.
 One-electron integrals computed using PRISM.
 NBasis=   667 RedAO= T EigKep=  4.64D-04  NBF=   667
 NBsUse=   667 1.00D-06 EigRej= -1.00D+00 NBFU=   667
 Initial guess from the checkpoint file:  "conf-60.chk"
 B after Tr=     0.000000    0.000000    0.000000
         Rot=    1.000000    0.000000    0.000000    0.000000 Ang=   0.00 deg.
 Requested convergence on RMS density matrix=1.00D-08 within 128 cycles.
 Requested convergence on MAX density matrix=1.00D-06.
 Requested convergence on             energy=1.00D-06.
 No special actions if energy rises.
 SCF Done:  E(RB3LYP) =  -1866.74465691     A.U. after    2 cycles
            NFock=  2  Conv=0.95D-08     -V/T= 2.0094

 **********************************************************************

            Population analysis using the SCF Density.

 **********************************************************************

 Alpha  occ. eigenvalues --  -19.22463 -19.22228 -19.21332 -19.19099 -19.18570
 Alpha  occ. eigenvalues --  -19.18424 -14.52050 -14.50099 -14.48091 -14.47722
 Alpha  occ. eigenvalues --  -14.46903 -14.45039 -14.44996 -14.43214 -10.45387
 Alpha  occ. eigenvalues --  -10.39726 -10.38902 -10.38839 -10.36721 -10.36280
 Alpha  occ. eigenvalues --  -10.36033 -10.33605 -10.32552 -10.31724 -10.31466
 Alpha  occ. eigenvalues --  -10.30513 -10.29225 -10.28896 -10.28693 -10.27449
 Alpha  occ. eigenvalues --  -10.27351 -10.27101 -10.27095 -10.27085 -10.27032
 Alpha  occ. eigenvalues --  -10.26940 -10.26907 -10.24195 -10.24174  -1.14886
 Alpha  occ. eigenvalues --   -1.14018  -1.13751  -1.12844  -1.11954  -1.11035
 Alpha  occ. eigenvalues --   -1.07708  -1.03540  -1.03192  -1.02655  -1.01886
 Alpha  occ. eigenvalues --   -1.01546  -1.00211  -0.99741  -0.94206  -0.89981
 Alpha  occ. eigenvalues --   -0.89298  -0.88437  -0.87051  -0.84040  -0.83670
 Alpha  occ. eigenvalues --   -0.82593  -0.81747  -0.78875  -0.76684  -0.76062
 Alpha  occ. eigenvalues --   -0.75219  -0.74930  -0.72840  -0.70954  -0.70132
 Alpha  occ. eigenvalues --   -0.69994  -0.69058  -0.68917  -0.67738  -0.67438
 Alpha  occ. eigenvalues --   -0.66927  -0.66648  -0.65894  -0.65464  -0.64162
 Alpha  occ. eigenvalues --   -0.63904  -0.63087  -0.62732  -0.62246  -0.60967
 Alpha  occ. eigenvalues --   -0.59871  -0.59304  -0.58936  -0.58394  -0.57644
 Alpha  occ. eigenvalues --   -0.57054  -0.56360  -0.55540  -0.55279  -0.54539
 Alpha  occ. eigenvalues --   -0.54318  -0.53981  -0.53611  -0.53498  -0.53000
 Alpha  occ. eigenvalues --   -0.52748  -0.52192  -0.51953  -0.51669  -0.51164
 Alpha  occ. eigenvalues --   -0.50485  -0.50263  -0.50132  -0.49622  -0.49214
 Alpha  occ. eigenvalues --   -0.49021  -0.48684  -0.48468  -0.47916  -0.47250
 Alpha  occ. eigenvalues --   -0.46854  -0.46506  -0.46196  -0.45728  -0.45563
 Alpha  occ. eigenvalues --   -0.45380  -0.44936  -0.44654  -0.44224  -0.43975
 Alpha  occ. eigenvalues --   -0.43211  -0.42994  -0.42658  -0.42216  -0.40761
 Alpha  occ. eigenvalues --   -0.40257  -0.40136  -0.39848  -0.37806  -0.37353
 Alpha  occ. eigenvalues --   -0.36734  -0.36351  -0.36268  -0.35838  -0.35246
 Alpha  occ. eigenvalues --   -0.34740  -0.33681  -0.33246  -0.32886  -0.32729
 Alpha  occ. eigenvalues --   -0.32151  -0.32079
 Alpha virt. eigenvalues --   -0.10274  -0.09346  -0.08779  -0.08525  -0.08066
 Alpha virt. eigenvalues --   -0.06898  -0.06535  -0.05648  -0.05314  -0.03014
 Alpha virt. eigenvalues --   -0.02716  -0.00652  -0.00364   0.00461   0.00570
 Alpha virt. eigenvalues --    0.01266   0.01527   0.01855   0.02053   0.02589
 Alpha virt. eigenvalues --    0.02856   0.03795   0.04237   0.04900   0.05136
 Alpha virt. eigenvalues --    0.05364   0.05643   0.05862   0.06161   0.06247
 Alpha virt. eigenvalues --    0.06569   0.06844   0.07196   0.07477   0.08048
 Alpha virt. eigenvalues --    0.08280   0.08335   0.08542   0.08681   0.08983
 Alpha virt. eigenvalues --    0.09361   0.09567   0.10187   0.10572   0.10914
 Alpha virt. eigenvalues --    0.11414   0.11713   0.11925   0.12311   0.12729
 Alpha virt. eigenvalues --    0.13023   0.13366   0.13540   0.13746   0.14588
 Alpha virt. eigenvalues --    0.14616   0.14910   0.15068   0.15517   0.15929
 Alpha virt. eigenvalues --    0.16033   0.16913   0.17146   0.17695   0.18275
 Alpha virt. eigenvalues --    0.18850   0.19361   0.19759   0.20450   0.21176
 Alpha virt. eigenvalues --    0.22922   0.23457   0.23789   0.24788   0.25069
 Alpha virt. eigenvalues --    0.25902   0.26853   0.26975   0.27586   0.27716
 Alpha virt. eigenvalues --    0.29041   0.30564   0.30984   0.31540   0.33853
 Alpha virt. eigenvalues --    0.34185   0.35570   0.36581   0.38082   0.39611
 Alpha virt. eigenvalues --    0.40389   0.41162   0.41576   0.42781   0.42887
 Alpha virt. eigenvalues --    0.43368   0.43502   0.43677   0.44043   0.44450
 Alpha virt. eigenvalues --    0.44720   0.44847   0.45529   0.45717   0.45931
 Alpha virt. eigenvalues --    0.46540   0.46918   0.47312   0.48257   0.48383
 Alpha virt. eigenvalues --    0.49209   0.49329   0.49834   0.50005   0.50412
 Alpha virt. eigenvalues --    0.51078   0.51296   0.51416   0.51702   0.52103
 Alpha virt. eigenvalues --    0.52638   0.53040   0.53346   0.53559   0.53805
 Alpha virt. eigenvalues --    0.54035   0.54326   0.55435   0.55640   0.56081
 Alpha virt. eigenvalues --    0.56397   0.56784   0.56867   0.56905   0.57298
 Alpha virt. eigenvalues --    0.58162   0.58189   0.58473   0.58906   0.59845
 Alpha virt. eigenvalues --    0.60565   0.60815   0.61429   0.61575   0.62544
 Alpha virt. eigenvalues --    0.63605   0.63850   0.63942   0.64456   0.64964
 Alpha virt. eigenvalues --    0.65306   0.65491   0.66186   0.66850   0.67351
 Alpha virt. eigenvalues --    0.68796   0.69025   0.69877   0.70231   0.70584
 Alpha virt. eigenvalues --    0.71382   0.71736   0.72315   0.72692   0.72899
 Alpha virt. eigenvalues --    0.73273   0.73812   0.74846   0.75143   0.75276
 Alpha virt. eigenvalues --    0.75852   0.76061   0.76123   0.76626   0.77125
 Alpha virt. eigenvalues --    0.77350   0.77667   0.77904   0.78603   0.78762
 Alpha virt. eigenvalues --    0.79007   0.79373   0.79608   0.80252   0.80556
 Alpha virt. eigenvalues --    0.80922   0.81359   0.81541   0.82090   0.82247
 Alpha virt. eigenvalues --    0.82783   0.82964   0.83505   0.83998   0.84143
 Alpha virt. eigenvalues --    0.84314   0.84646   0.85074   0.85320   0.85921
 Alpha virt. eigenvalues --    0.86137   0.86407   0.86935   0.87199   0.87268
 Alpha virt. eigenvalues --    0.87680   0.88326   0.89162   0.89300   0.89820
 Alpha virt. eigenvalues --    0.90627   0.91124   0.91225   0.92235   0.92654
 Alpha virt. eigenvalues --    0.93292   0.93687   0.94313   0.94714   0.96000
 Alpha virt. eigenvalues --    0.96193   0.96943   0.97478   0.98412   0.99140
 Alpha virt. eigenvalues --    0.99922   1.00416   1.01071   1.01563   1.02701
 Alpha virt. eigenvalues --    1.02946   1.03648   1.04656   1.05766   1.05871
 Alpha virt. eigenvalues --    1.06898   1.07314   1.07995   1.08846   1.09790
 Alpha virt. eigenvalues --    1.10936   1.11416   1.11863   1.12574   1.12932
 Alpha virt. eigenvalues --    1.14167   1.14690   1.15828   1.16667   1.17105
 Alpha virt. eigenvalues --    1.17309   1.17991   1.18284   1.19051   1.19382
 Alpha virt. eigenvalues --    1.21189   1.22492   1.22522   1.23424   1.24199
 Alpha virt. eigenvalues --    1.24777   1.26599   1.27284   1.28738   1.29522
 Alpha virt. eigenvalues --    1.30363   1.31587   1.32803   1.33029   1.34403
 Alpha virt. eigenvalues --    1.35225   1.35346   1.35642   1.36392   1.37459
 Alpha virt. eigenvalues --    1.38819   1.39083   1.39857   1.40131   1.40297
 Alpha virt. eigenvalues --    1.41038   1.41607   1.42005   1.42792   1.43427
 Alpha virt. eigenvalues --    1.43844   1.44399   1.45241   1.45780   1.47753
 Alpha virt. eigenvalues --    1.48198   1.49359   1.49584   1.51086   1.52235
 Alpha virt. eigenvalues --    1.53678   1.55428   1.55981   1.56585   1.57557
 Alpha virt. eigenvalues --    1.57793   1.58620   1.59779   1.60513   1.61416
 Alpha virt. eigenvalues --    1.63106   1.63723   1.64494   1.65092   1.65734
 Alpha virt. eigenvalues --    1.66211   1.66907   1.67849   1.68350   1.68917
 Alpha virt. eigenvalues --    1.69176   1.69868   1.70448   1.71350   1.71497
 Alpha virt. eigenvalues --    1.71788   1.72101   1.72645   1.73109   1.73289
 Alpha virt. eigenvalues --    1.73787   1.75391   1.75810   1.76475   1.76999
 Alpha virt. eigenvalues --    1.77742   1.77917   1.78308   1.79094   1.79955
 Alpha virt. eigenvalues --    1.80627   1.81225   1.81603   1.81724   1.82352
 Alpha virt. eigenvalues --    1.83097   1.83412   1.84357   1.84714   1.84996
 Alpha virt. eigenvalues --    1.85377   1.85879   1.86816   1.87872   1.88273
 Alpha virt. eigenvalues --    1.88914   1.89306   1.89615   1.90067   1.90668
 Alpha virt. eigenvalues --    1.90823   1.92245   1.92753   1.93072   1.93489
 Alpha virt. eigenvalues --    1.93899   1.94327   1.95459   1.95879   1.96977
 Alpha virt. eigenvalues --    1.97545   1.97864   1.98190   1.99235   1.99391
 Alpha virt. eigenvalues --    2.00484   2.01065   2.01258   2.02329   2.03265
 Alpha virt. eigenvalues --    2.04086   2.05217   2.06210   2.06589   2.07215
 Alpha virt. eigenvalues --    2.07392   2.08599   2.08749   2.10523   2.10679
 Alpha virt. eigenvalues --    2.11611   2.12869   2.13406   2.13941   2.14677
 Alpha virt. eigenvalues --    2.15020   2.15882   2.16272   2.17099   2.18381
 Alpha virt. eigenvalues --    2.18599   2.19698   2.20476   2.20677   2.22031
 Alpha virt. eigenvalues --    2.22881   2.23043   2.23864   2.24155   2.25348
 Alpha virt. eigenvalues --    2.26630   2.27694   2.28121   2.28838   2.30271
 Alpha virt. eigenvalues --    2.30853   2.31279   2.33249   2.33527   2.34831
 Alpha virt. eigenvalues --    2.35505   2.36546   2.36936   2.38315   2.39545
 Alpha virt. eigenvalues --    2.40260   2.41122   2.42406   2.43087   2.44212
 Alpha virt. eigenvalues --    2.44804   2.45407   2.46143   2.46946   2.47633
 Alpha virt. eigenvalues --    2.48609   2.48899   2.49281   2.50041   2.51198
 Alpha virt. eigenvalues --    2.51841   2.51934   2.52793   2.53254   2.54710
 Alpha virt. eigenvalues --    2.56862   2.57069   2.57920   2.58665   2.59756
 Alpha virt. eigenvalues --    2.61806   2.62127   2.62552   2.63258   2.63954
 Alpha virt. eigenvalues --    2.64775   2.65179   2.66676   2.67391   2.68186
 Alpha virt. eigenvalues --    2.68626   2.69307   2.70997   2.72380   2.74880
 Alpha virt. eigenvalues --    2.76048   2.79297   2.80769   2.84492   2.88047
 Alpha virt. eigenvalues --    2.88299   2.88994   2.92355   2.92638   2.93707
 Alpha virt. eigenvalues --    2.94582   2.95100   2.97083   2.97862   2.98461
 Alpha virt. eigenvalues --    2.98961   3.05043   3.07831   3.09323   3.12077
 Alpha virt. eigenvalues --    3.32722   3.69082   3.72024   3.78447   3.86708
 Alpha virt. eigenvalues --    3.88051   3.92581   3.93404   3.97072   3.98644
 Alpha virt. eigenvalues --    4.01022   4.01457   4.03882   4.04852   4.06212
 Alpha virt. eigenvalues --    4.08886   4.10230   4.12844   4.14215   4.16961
 Alpha virt. eigenvalues --    4.17556   4.21218   4.22684   4.24818   4.25947
 Alpha virt. eigenvalues --    4.27861   4.29758   4.32930   4.33535   4.37699
 Alpha virt. eigenvalues --    4.41106   4.45911   4.47204   4.50282   4.51451
 Alpha virt. eigenvalues --    4.54485   4.57345   4.62487   4.65291   4.67537
          Condensed to atoms (all electrons):
 Mulliken charges:
               1
     1  N   -0.786767
     2  C   -0.086956
     3  C    0.638973
     4  O   -0.510646
     5  C   -0.404199
     6  C    0.133244
     7  C   -0.179580
     8  C   -0.206773
     9  C   -0.127625
    10  C   -0.128076
    11  C   -0.125451
    12  H    0.482550
    13  H    0.211106
    14  H    0.168740
    15  H    0.194391
    16  H    0.134098
    17  H    0.173514
    18  H    0.152447
    19  H    0.142889
    20  H    0.149779
    21  H    0.404482
    22  H    0.419178
    23  N   -0.650064
    24  C   -0.024094
    25  C    0.604552
    26  O   -0.503346
    27  C   -0.306006
    28  C   -0.077031
    29  C   -0.443489
    30  C   -0.451929
    31  H    0.350247
    32  H    0.205601
    33  H    0.137892
    34  H    0.180459
    35  H    0.108261
    36  H    0.155371
    37  H    0.157261
    38  H    0.143642
    39  H    0.158242
    40  H    0.148313
    41  H    0.158131
    42  N   -0.613363
    43  C   -0.056743
    44  C    0.620536
    45  O   -0.609769
    46  C   -0.377585
    47  C    0.631377
    48  N   -0.736504
    49  O   -0.532549
    50  H    0.343622
    51  H    0.218200
    52  H    0.191494
    53  H    0.189633
    54  H    0.361641
    55  H    0.356521
    56  N   -0.615397
    57  C    0.010306
    58  C    0.539777
    59  O   -0.609492
    60  C   -0.269035
    61  C   -0.281057
    62  C   -0.161565
    63  N   -0.603010
    64  C    0.775481
    65  N   -0.757615
    66  N   -0.779550
    67  O   -0.601317
    68  H    0.401141
    69  H    0.147063
    70  H    0.175797
    71  H    0.150579
    72  H    0.147809
    73  H    0.165770
    74  H    0.155186
    75  H    0.193174
    76  H    0.397715
    77  H    0.372302
    78  H    0.378172
    79  H    0.358130
    80  H    0.421798
 Sum of Mulliken charges =   1.00000
 Mulliken charges with hydrogens summed into heavy atoms:
               1
     1  N    0.519443
     2  C    0.124149
     3  C    0.638973
     4  O   -0.510646
     5  C   -0.041069
     6  C    0.133244
     7  C   -0.045482
     8  C   -0.033259
     9  C    0.024821
    10  C    0.014813
    11  C    0.024328
    23  N   -0.299817
    24  C    0.181507
    25  C    0.604552
    26  O   -0.503346
    27  C    0.012345
    28  C    0.031230
    29  C    0.012785
    30  C    0.012757
    42  N   -0.269741
    43  C    0.161458
    44  C    0.620536
    45  O   -0.609769
    46  C    0.003541
    47  C    0.631377
    48  N   -0.018341
    49  O   -0.532549
    56  N   -0.214256
    57  C    0.157369
    58  C    0.539777
    59  O   -0.609492
    60  C    0.057341
    61  C    0.032522
    62  C    0.186794
    63  N   -0.205295
    64  C    0.775481
    65  N   -0.007141
    66  N    0.000378
    67  O   -0.601317
 Electronic spatial extent (au):  <R**2>=         221626.0815
 Charge=              1.0000 electrons
 Dipole moment (field-independent basis, Debye):
    X=             -6.4292    Y=             58.7056    Z=            -26.9170  Tot=             64.9015
 Quadrupole moment (field-independent basis, Debye-Ang):
   XX=           -117.9865   YY=            569.9358   ZZ=            -61.8250
   XY=            -58.6725   XZ=             77.3347   YZ=           -301.4269
 Traceless Quadrupole moment (field-independent basis, Debye-Ang):
   XX=           -248.0279   YY=            439.8944   ZZ=           -191.8665
   XY=            -58.6725   XZ=             77.3347   YZ=           -301.4269
 Octapole moment (field-independent basis, Debye-Ang**2):
  XXX=           1348.6778  YYY=           3881.1850  ZZZ=           3915.6738  XYY=            -80.3911
  XXY=          -1103.9739  XXZ=            758.2584  XZZ=           -120.4985  YZZ=           -942.3886
  YYZ=          -2278.4826  XYZ=            777.1017
 Hexadecapole moment (field-independent basis, Debye-Ang**3):
 XXXX=         -15549.8819 YYYY=         -10173.4674 ZZZZ=         -75010.7997 XXXY=          13316.2836
 XXXZ=         -12218.9594 YYYX=           8821.2014 YYYZ=          -2376.1881 ZZZX=         -10494.4585
 ZZZY=          47064.6562 XXYY=         -13016.8582 XXZZ=          -9296.9619 YYZZ=         -24699.7182
 XXYZ=           7019.4786 YYXZ=           4049.5197 ZZXY=           -585.0256
 N-N= 4.877276802484D+03 E-N=-1.407528571273D+04  KE= 1.849294878083D+03
 Unable to Open any file for archive entry.
 1\1\GINC-QML-003\SP\RB3LYP\6-31G(d)\C25H41N8O6(1+)\KENGMITH\11-Jun-202
 2\0\\# B3LYP/6-31G* empiricaldispersion=gd3 guess=read geom=check nosy
 mm integral(ultrafinegrid)\\Candidate Structure: Conf:60 Charge calc i
 n gas phase\\1,1\N,0,-1.3750697557,9.8830818037,-7.440408824\C,0,-2.29
 93231527,8.8650253105,-8.0304057435\C,0,-2.9432578766,9.6098956873,-9.
 2242126112\O,0,-2.2592139471,10.4088505283,-9.8558894782\C,0,-3.250863
 9401,8.3446260267,-6.9356712752\C,0,-2.5036893281,7.7970691331,-5.7362
 25978\C,0,-2.1106618165,6.4529480887,-5.6933225229\C,0,-2.145994872,8.
 6485479436,-4.6802247291\C,0,-1.3760037296,5.9639583254,-4.6129634145\
 C,0,-1.4023973031,8.1594660242,-3.604511551\C,0,-1.0192185519,6.817860
 6885,-3.5663301673\H,0,-1.9539525786,10.6465914186,-7.0220807471\H,0,-
 1.6837642447,8.0472208564,-8.4197275152\H,0,-3.8724725295,7.5560253646
 ,-7.3762050882\H,0,-3.9092063435,9.1654186967,-6.6300824222\H,0,-2.389
 1189337,5.7830278055,-6.5043691946\H,0,-2.4266249313,9.6985476865,-4.7
 049491666\H,0,-1.0854740633,4.9176550278,-4.5867812073\H,0,-1.12721274
 94,8.8310247682,-2.7964448146\H,0,-0.4475761945,6.4368110676,-2.724977
 0014\H,0,-0.7777600361,9.5383519491,-6.6824270126\H,0,-0.7998650751,10
 .3520066333,-8.1519011649\N,0,-4.2528390656,9.3895091034,-9.4876718554
 \C,0,-4.9545477889,10.1998958527,-10.4915165154\C,0,-4.9195197822,11.7
 046672004,-10.1402782581\O,0,-4.9414425919,12.5525701728,-11.016579500
 9\C,0,-6.4016036157,9.7181823519,-10.6651328281\C,0,-6.5686785395,8.25
 91921894,-11.1364609346\C,0,-8.0634985665,7.9226419437,-11.2395423889\
 C,0,-5.852378,7.9932325189,-12.4674543907\H,0,-4.7843893372,8.73276534
 22,-8.934266998\H,0,-4.4107232824,10.1305892652,-11.4359677035\H,0,-6.
 9400008721,9.8651378055,-9.7172252309\H,0,-6.8699894793,10.3896556266,
 -11.3947611879\H,0,-6.1306592662,7.5908578632,-10.3772838017\H,0,-8.54
 89188034,8.5470795221,-11.9997817424\H,0,-8.2107197344,6.8754185524,-1
 1.5246336809\H,0,-8.5816325604,8.0898711323,-10.2877287421\H,0,-6.2173
 053693,8.6735341018,-13.2470201622\H,0,-4.7674543466,8.1234388933,-12.
 3882713299\H,0,-6.0363685556,6.9680788877,-12.8063896661\N,0,-4.908784
 0591,12.0000215822,-8.8007906418\C,0,-4.3429609903,13.2541056522,-8.33
 77557105\C,0,-3.3133680058,12.8917326626,-7.2372182811\O,0,-3.26648169
 56,11.7196771105,-6.8004514283\C,0,-5.4396166334,14.2474939325,-7.8827
 523715\C,0,-5.0082013404,15.7096217589,-7.9763998765\N,0,-6.0086848429
 ,16.6044871206,-8.1443948365\O,0,-3.8308225207,16.0694759299,-7.883729
 2071\H,0,-4.7286088373,11.2362886917,-8.1598442957\H,0,-3.8044310605,1
 3.7088138855,-9.1764981304\H,0,-6.3111054218,14.0746613767,-8.52168816
 03\H,0,-5.7546774883,14.0387621476,-6.8519565233\H,0,-5.7660564458,17.
 5820087999,-8.2382470008\H,0,-6.9596488154,16.3269122973,-8.336725647\
 N,0,-2.5064039058,13.8727645493,-6.843513127\C,0,-1.3910999705,13.7483
 579042,-5.8951153522\C,0,-0.6412689758,12.3980193386,-6.1115377537\O,0
 ,-0.6920232755,11.5218670106,-5.2020693814\C,0,-1.8150587647,14.021301
 5245,-4.4398453502\C,0,-0.707040559,14.6155454785,-3.541159108\C,0,0.3
 603266562,13.657108305,-2.9830232548\N,0,1.217237375,13.0278132928,-4.
 0009536417\C,0,2.152495517,13.6423085825,-4.7282422625\N,0,2.829330279
 3,14.6924207385,-4.2154169275\N,0,2.4244942128,13.2058563179,-5.964580
 5799\O,0,0.0276964346,12.3130251457,-7.1784556658\H,0,-2.7145001357,14
 .7977116035,-7.2384793441\H,0,-0.6836720678,14.522923898,-6.213384893\
 H,0,-2.2113472045,13.0959891975,-4.0093407332\H,0,-2.6328292585,14.750
 9478982,-4.4647644123\H,0,-0.2041540624,15.4371578876,-4.0710417338\H,
 0,-1.1861329561,15.0707225002,-2.6650491839\H,0,0.9812735758,14.181971
 8519,-2.2487564204\H,0,-0.1149636619,12.8275734521,-2.4538472245\H,0,0
 .7705689252,12.2062013335,-4.4297940275\H,0,3.4856638839,15.2110874271
 ,-4.7796382859\H,0,2.8680410961,14.8363334133,-3.2173188081\H,0,3.2350
 636236,13.5502214941,-6.4593518599\H,0,1.6841337059,12.7353106768,-6.5
 156692006\\Version=ES64L-G16RevC.01\HF=-1866.7446569\RMSD=9.545e-09\Di
 pole=2.5025237,1.582991,3.052497\Quadrupole=-184.4026914,327.050698,-1
 42.6480065,-43.6215405,57.4964677,-224.1034791\PG=C01 [X(C25H41N8O6)]\
 \@
 The archive entry for this job was punched.


 WOE UNTO THEM THAT CALL EVIL GOOD, AND GOOD EVIL      
 Job cpu time:       0 days  0 hours  5 minutes  7.6 seconds.
 Elapsed time:       0 days  0 hours  1 minutes 17.6 seconds.
 File lengths (MBytes):  RWF=    344 Int=      0 D2E=      0 Chk=     48 Scr=     16
 Normal termination of Gaussian 16 at Sat Jun 11 20:56:42 2022.
