 Entering Gaussian System, Link 0=/opt/software/Gaussian/g16-AVX-C.01/g16/g16
 Input=charge-conf-669.com
 Output=charge-conf-669.log
 Initial command:
 /opt/software/Gaussian/g16-AVX-C.01/g16/l1.exe "/mnt/gs18/scratch/users/kengmith/Gau-6648.inp" -scrdir="/mnt/gs18/scratch/users/kengmith/"
 Entering Link 1 = /opt/software/Gaussian/g16-AVX-C.01/g16/l1.exe PID=      6678.
  
 Copyright (c) 1988-2019, Gaussian, Inc.  All Rights Reserved.
  
 This is part of the Gaussian(R) 16 program.  It is based on
 the Gaussian(R) 09 system (copyright 2009, Gaussian, Inc.),
 the Gaussian(R) 03 system (copyright 2003, Gaussian, Inc.),
 the Gaussian(R) 98 system (copyright 1998, Gaussian, Inc.),
 the Gaussian(R) 94 system (copyright 1995, Gaussian, Inc.),
 the Gaussian 92(TM) system (copyright 1992, Gaussian, Inc.),
 the Gaussian 90(TM) system (copyright 1990, Gaussian, Inc.),
 the Gaussian 88(TM) system (copyright 1988, Gaussian, Inc.),
 the Gaussian 86(TM) system (copyright 1986, Carnegie Mellon
 University), and the Gaussian 82(TM) system (copyright 1983,
 Carnegie Mellon University). Gaussian is a federally registered
 trademark of Gaussian, Inc.
  
 This software contains proprietary and confidential information,
 including trade secrets, belonging to Gaussian, Inc.
  
 This software is provided under written license and may be
 used, copied, transmitted, or stored only in accord with that
 written license.
  
 The following legend is applicable only to US Government
 contracts under FAR:
  
                    RESTRICTED RIGHTS LEGEND
  
 Use, reproduction and disclosure by the US Government is
 subject to restrictions as set forth in subparagraphs (a)
 and (c) of the Commercial Computer Software - Restricted
 Rights clause in FAR 52.227-19.
  
 Gaussian, Inc.
 340 Quinnipiac St., Bldg. 40, Wallingford CT 06492
  
  
 ---------------------------------------------------------------
 Warning -- This program may not be used in any manner that
 competes with the business of Gaussian, Inc. or will provide
 assistance to any competitor of Gaussian, Inc.  The licensee
 of this program is prohibited from giving any competitor of
 Gaussian, Inc. access to this program.  By using this program,
 the user acknowledges that Gaussian, Inc. is engaged in the
 business of creating and licensing software in the field of
 computational chemistry and represents and warrants to the
 licensee that it is not a competitor of Gaussian, Inc. and that
 it will not use this program in any manner prohibited above.
 ---------------------------------------------------------------
  

 Cite this work as:
 Gaussian 16, Revision C.01,
 M. J. Frisch, G. W. Trucks, H. B. Schlegel, G. E. Scuseria, 
 M. A. Robb, J. R. Cheeseman, G. Scalmani, V. Barone, 
 G. A. Petersson, H. Nakatsuji, X. Li, M. Caricato, A. V. Marenich, 
 J. Bloino, B. G. Janesko, R. Gomperts, B. Mennucci, H. P. Hratchian, 
 J. V. Ortiz, A. F. Izmaylov, J. L. Sonnenberg, D. Williams-Young, 
 F. Ding, F. Lipparini, F. Egidi, J. Goings, B. Peng, A. Petrone, 
 T. Henderson, D. Ranasinghe, V. G. Zakrzewski, J. Gao, N. Rega, 
 G. Zheng, W. Liang, M. Hada, M. Ehara, K. Toyota, R. Fukuda, 
 J. Hasegawa, M. Ishida, T. Nakajima, Y. Honda, O. Kitao, H. Nakai, 
 T. Vreven, K. Throssell, J. A. Montgomery, Jr., J. E. Peralta, 
 F. Ogliaro, M. J. Bearpark, J. J. Heyd, E. N. Brothers, K. N. Kudin, 
 V. N. Staroverov, T. A. Keith, R. Kobayashi, J. Normand, 
 K. Raghavachari, A. P. Rendell, J. C. Burant, S. S. Iyengar, 
 J. Tomasi, M. Cossi, J. M. Millam, M. Klene, C. Adamo, R. Cammi, 
 J. W. Ochterski, R. L. Martin, K. Morokuma, O. Farkas, 
 J. B. Foresman, and D. J. Fox, Gaussian, Inc., Wallingford CT, 2019.
 
 ******************************************
 Gaussian 16:  ES64L-G16RevC.01  3-Jul-2019
                11-Jun-2022 
 ******************************************
 %mem=8gb
 %nproc=4
 Will use up to    4 processors via shared memory.
 %chk=conf-669.chk
 ----------------------------------------------------------------------
 # B3LYP/6-31G* empiricaldispersion=gd3 guess=read geom=check nosymm in
 tegral(ultrafinegrid)
 ----------------------------------------------------------------------
 1/29=2,38=1,172=1/1;
 2/12=2,15=1,40=1/2;
 3/5=1,6=6,7=1,11=2,14=-4,25=1,30=1,74=-5,75=-5,116=-2,124=31/1,2,3;
 4/5=1/1;
 5/5=2,38=6/2;
 6/7=2,8=2,9=2,10=2,28=1/1;
 99/5=1,9=1/99;
 ------------------------------------------------------
 Candidate Structure: Conf:669 Charge calc in gas phase
 ------------------------------------------------------
 Structure from the checkpoint file:  "conf-669.chk"
 Charge =  1 Multiplicity = 1
 Redundant internal coordinates found in file.  (old form).
 N,0,-2.0774312232,13.5672014655,-6.9965601879
 C,0,-2.2990856163,13.7832834591,-8.462163941
 C,0,-3.7915842133,13.4450094646,-8.6671078198
 O,0,-4.5651823412,13.6230079766,-7.7281090101
 C,0,-1.2722112055,12.9870617007,-9.2838622762
 C,0,0.1442475497,13.2724992585,-8.8296379682
 C,0,0.788045647,14.4590461512,-9.2059678782
 C,0,0.8070784536,12.3786645951,-7.9778687295
 C,0,2.0733900883,14.7458773356,-8.7456863629
 C,0,2.0963569993,12.66271368,-7.5217661634
 C,0,2.7300469943,13.8466789801,-7.9022254242
 H,0,-2.9121686099,13.8986088128,-6.4922814772
 H,0,-2.1686288631,14.8566634925,-8.6415898293
 H,0,-1.3874355823,13.2729607023,-10.3364752815
 H,0,-1.4980617178,11.9215994935,-9.189786831
 H,0,0.2864808319,15.1562103847,-9.8743333644
 H,0,0.3086785969,11.4560509994,-7.6875622898
 H,0,2.5644933016,15.6648918098,-9.0519261558
 H,0,2.6046319314,11.9609196181,-6.8682592482
 H,0,3.7335331718,14.0656169665,-7.5494041037
 H,0,-1.9810816168,12.5568835805,-6.7258744201
 H,0,-1.239609524,14.0310606784,-6.6413495614
 N,0,-4.1720868602,12.9399519736,-9.8592900977
 C,0,-5.5346878733,12.4163869843,-10.0561658436
 C,0,-5.8935587283,11.4060150429,-8.9457231764
 O,0,-7.0325397057,11.311274801,-8.5154576596
 C,0,-5.6423886565,11.8072459314,-11.4639631539
 C,0,-7.0026592566,11.1622487651,-11.7962630155
 C,0,-8.1713220341,12.1420379315,-11.6179393059
 C,0,-6.9609226148,10.5995260346,-13.2240737477
 H,0,-3.4892581422,12.7875425023,-10.5887870388
 H,0,-6.2449360342,13.236682343,-9.9337971772
 H,0,-5.435778359,12.6027195924,-12.1947045907
 H,0,-4.8516643954,11.0507193237,-11.5781759924
 H,0,-7.156742475,10.3254077473,-11.1017255018
 H,0,-8.0119615329,13.055848044,-12.2057917389
 H,0,-9.1058917239,11.6866018213,-11.9628049503
 H,0,-8.3061088892,12.4154379646,-10.5674979971
 H,0,-6.8309926227,11.4044732434,-13.9588095346
 H,0,-6.1373333798,9.8871894529,-13.3561917232
 H,0,-7.8951739029,10.0806785608,-13.4633653964
 N,0,-4.8590112239,10.6250639909,-8.5071000706
 C,0,-4.8797562738,10.1118302984,-7.1507585887
 C,0,-3.4503104787,10.3178543849,-6.574244156
 O,0,-2.5594302964,10.8253692555,-7.2927691322
 C,0,-5.4025444803,8.6522283026,-7.108407621
 C,0,-6.0995551242,8.3029375719,-5.7968503265
 N,0,-7.1575191853,7.4673777029,-5.8916101989
 O,0,-5.711512461,8.7331360632,-4.706000976
 H,0,-3.9215699801,10.86591384,-8.8082067106
 H,0,-5.5686802817,10.7315296535,-6.5633883703
 H,0,-6.0947068425,8.5398760128,-7.9471362939
 H,0,-4.583548414,7.9389267436,-7.2661577065
 H,0,-7.659626385,7.234691291,-5.0445900244
 H,0,-7.5663454547,7.2074224474,-6.7766925136
 N,0,-3.2994261411,9.9352581609,-5.308788576
 C,0,-2.078753935,9.9298561549,-4.4957716815
 C,0,-1.5987572725,11.3215564629,-4.0071115852
 O,0,-1.3362896828,12.2114491539,-4.9112611001
 C,0,-0.9194178791,9.1784045619,-5.1888211417
 C,0,0.3263343031,8.9994067221,-4.281145098
 C,0,1.5422207284,9.8387381677,-4.7063525271
 N,0,1.309547788,11.2861516728,-4.6182509391
 C,0,1.5003435299,12.0543176908,-3.5359719518
 N,0,2.3939637057,11.7239631069,-2.5884432492
 N,0,0.8427138524,13.22535071,-3.4777588408
 O,0,-1.3550231392,11.433066846,-2.8012907362
 H,0,-4.1456216701,9.5459701784,-4.8688632307
 H,0,-2.3501691983,9.381984817,-3.5909247331
 H,0,-0.6649324953,9.7085241332,-6.1127027485
 H,0,-1.2989521923,8.1973885234,-5.4946892797
 H,0,0.0764546077,9.2452091222,-3.2424783453
 H,0,0.6449854947,7.9509349817,-4.2939325944
 H,0,2.4218739732,9.5705526324,-4.1133137686
 H,0,1.8062560474,9.6272100508,-5.7483444817
 H,0,0.5199818266,11.6198312897,-5.1797778631
 H,0,2.4177451013,12.2214290144,-1.7110953251
 H,0,2.9339277044,10.8751431237,-2.6459538896
 H,0,0.8689109876,13.7269496304,-2.599441663
 H,0,-0.0963570786,13.1746530686,-3.9163726457
 Recover connectivity data from disk.
                           ----------------------------
                           !    Current Parameters    !
                           ! (Angstroms and Degrees)  !
 --------------------------                            --------------------------
 ! Name  Definition              Value                                          !
 --------------------------------------------------------------------------------
 ! R1    R(1,2)                  1.4979                                         !
 ! R2    R(1,12)                 1.03                                           !
 ! R3    R(1,21)                 1.0504                                         !
 ! R4    R(1,22)                 1.0214                                         !
 ! R5    R(2,3)                  1.544                                          !
 ! R6    R(2,5)                  1.5374                                         !
 ! R7    R(2,13)                 1.0961                                         !
 ! R8    R(3,4)                  1.2296                                         !
 ! R9    R(3,23)                 1.3495                                         !
 ! R10   R(5,6)                  1.5146                                         !
 ! R11   R(5,14)                 1.0968                                         !
 ! R12   R(5,15)                 1.0932                                         !
 ! R13   R(6,7)                  1.4014                                         !
 ! R14   R(6,8)                  1.4014                                         !
 ! R15   R(7,9)                  1.3951                                         !
 ! R16   R(7,16)                 1.0883                                         !
 ! R17   R(8,10)                 1.3968                                         !
 ! R18   R(8,17)                 1.0881                                         !
 ! R19   R(9,11)                 1.3968                                         !
 ! R20   R(9,18)                 1.0861                                         !
 ! R21   R(10,11)                1.3957                                         !
 ! R22   R(10,19)                1.0853                                         !
 ! R23   R(11,20)                1.086                                          !
 ! R24   R(23,24)                1.4729                                         !
 ! R25   R(23,31)                1.0108                                         !
 ! R26   R(24,25)                1.5436                                         !
 ! R27   R(24,27)                1.5377                                         !
 ! R28   R(24,32)                1.0919                                         !
 ! R29   R(25,26)                1.2212                                         !
 ! R30   R(25,42)                1.3684                                         !
 ! R31   R(27,28)                1.5417                                         !
 ! R32   R(27,33)                1.0997                                         !
 ! R33   R(27,34)                1.1003                                         !
 ! R34   R(28,29)                1.5354                                         !
 ! R35   R(28,30)                1.5353                                         !
 ! R36   R(28,35)                1.0984                                         !
 ! R37   R(29,36)                1.0982                                         !
 ! R38   R(29,37)                1.0953                                         !
 ! R39   R(29,38)                1.0938                                         !
 ! R40   R(30,39)                1.0976                                         !
 ! R41   R(30,40)                1.0969                                         !
 ! R42   R(30,41)                1.0951                                         !
 ! R43   R(42,43)                1.4503                                         !
 ! R44   R(42,50)                1.0136                                         !
 ! R45   R(43,44)                1.555                                          !
 ! R46   R(43,46)                1.551                                          !
 ! R47   R(43,51)                1.0971                                         !
 ! R48   R(44,45)                1.252                                          !
 ! R49   R(44,56)                1.3306                                         !
 ! R50   R(46,47)                1.5258                                         !
 ! R51   R(46,52)                1.0932                                         !
 ! R52   R(46,53)                1.0975                                         !
 ! R53   R(47,48)                1.3515                                         !
 ! R54   R(47,49)                1.2352                                         !
 ! R55   R(48,54)                1.0118                                         !
 ! R56   R(48,55)                1.009                                          !
 ! R57   R(56,57)                1.4667                                         !
 ! R58   R(56,68)                1.0301                                         !
 ! R59   R(57,58)                1.5511                                         !
 ! R60   R(57,60)                1.5457                                         !
 ! R61   R(57,69)                1.0921                                         !
 ! R62   R(58,59)                1.2955                                         !
 ! R63   R(58,67)                1.2353                                         !
 ! R64   R(60,61)                1.5517                                         !
 ! R65   R(60,70)                1.0951                                         !
 ! R66   R(60,71)                1.0954                                         !
 ! R67   R(61,62)                1.5374                                         !
 ! R68   R(61,72)                1.0962                                         !
 ! R69   R(61,73)                1.0959                                         !
 ! R70   R(62,63)                1.4686                                         !
 ! R71   R(62,74)                1.0943                                         !
 ! R72   R(62,75)                1.0955                                         !
 ! R73   R(63,64)                1.3408                                         !
 ! R74   R(63,76)                1.0247                                         !
 ! R75   R(64,65)                1.3437                                         !
 ! R76   R(64,66)                1.3443                                         !
 ! R77   R(65,77)                1.0088                                         !
 ! R78   R(65,78)                1.0077                                         !
 ! R79   R(66,79)                1.0118                                         !
 ! R80   R(66,80)                1.0377                                         !
 ! A1    A(2,1,12)             108.2212                                         !
 ! A2    A(2,1,21)             113.8576                                         !
 ! A3    A(2,1,22)             113.336                                          !
 ! A4    A(12,1,21)            104.9307                                         !
 ! A5    A(12,1,22)            110.3878                                         !
 ! A6    A(21,1,22)            105.7805                                         !
 ! A7    A(1,2,3)              103.9633                                         !
 ! A8    A(1,2,5)              110.45                                           !
 ! A9    A(1,2,13)             106.4884                                         !
 ! A10   A(3,2,5)              117.4666                                         !
 ! A11   A(3,2,13)             107.9313                                         !
 ! A12   A(5,2,13)             109.8884                                         !
 ! A13   A(2,3,4)              118.3648                                         !
 ! A14   A(2,3,23)             118.1515                                         !
 ! A15   A(4,3,23)             123.4653                                         !
 ! A16   A(2,5,6)              111.5151                                         !
 ! A17   A(2,5,14)             107.9246                                         !
 ! A18   A(2,5,15)             108.7098                                         !
 ! A19   A(6,5,14)             109.6895                                         !
 ! A20   A(6,5,15)             110.5527                                         !
 ! A21   A(14,5,15)            108.3568                                         !
 ! A22   A(5,6,7)              120.5729                                         !
 ! A23   A(5,6,8)              120.292                                          !
 ! A24   A(7,6,8)              119.076                                          !
 ! A25   A(6,7,9)              120.5795                                         !
 ! A26   A(6,7,16)             119.7088                                         !
 ! A27   A(9,7,16)             119.7061                                         !
 ! A28   A(6,8,10)             120.3553                                         !
 ! A29   A(6,8,17)             119.1014                                         !
 ! A30   A(10,8,17)            120.5389                                         !
 ! A31   A(7,9,11)             119.9995                                         !
 ! A32   A(7,9,18)             119.8388                                         !
 ! A33   A(11,9,18)            120.1594                                         !
 ! A34   A(8,10,11)            120.1705                                         !
 ! A35   A(8,10,19)            119.8281                                         !
 ! A36   A(11,10,19)           120.0013                                         !
 ! A37   A(9,11,10)            119.8165                                         !
 ! A38   A(9,11,20)            120.0514                                         !
 ! A39   A(10,11,20)           120.1307                                         !
 ! A40   A(3,23,24)            120.7935                                         !
 ! A41   A(3,23,31)            120.2347                                         !
 ! A42   A(24,23,31)           118.3517                                         !
 ! A43   A(23,24,25)           110.5841                                         !
 ! A44   A(23,24,27)           109.1456                                         !
 ! A45   A(23,24,32)           108.6458                                         !
 ! A46   A(25,24,27)           112.5215                                         !
 ! A47   A(25,24,32)           105.063                                          !
 ! A48   A(27,24,32)           110.7709                                         !
 ! A49   A(24,25,26)           121.4038                                         !
 ! A50   A(24,25,42)           115.3643                                         !
 ! A51   A(26,25,42)           123.2231                                         !
 ! A52   A(24,27,28)           115.1421                                         !
 ! A53   A(24,27,33)           107.9769                                         !
 ! A54   A(24,27,34)           108.4859                                         !
 ! A55   A(28,27,33)           108.9753                                         !
 ! A56   A(28,27,34)           108.9083                                         !
 ! A57   A(33,27,34)           107.0587                                         !
 ! A58   A(27,28,29)           112.3065                                         !
 ! A59   A(27,28,30)           109.2577                                         !
 ! A60   A(27,28,35)           107.8325                                         !
 ! A61   A(29,28,30)           111.2595                                         !
 ! A62   A(29,28,35)           107.8162                                         !
 ! A63   A(30,28,35)           108.2179                                         !
 ! A64   A(28,29,36)           110.9999                                         !
 ! A65   A(28,29,37)           110.3357                                         !
 ! A66   A(28,29,38)           111.3975                                         !
 ! A67   A(36,29,37)           107.5334                                         !
 ! A68   A(36,29,38)           108.9035                                         !
 ! A69   A(37,29,38)           107.5274                                         !
 ! A70   A(28,30,39)           110.9145                                         !
 ! A71   A(28,30,40)           111.7439                                         !
 ! A72   A(28,30,41)           110.7124                                         !
 ! A73   A(39,30,40)           107.864                                          !
 ! A74   A(39,30,41)           107.5888                                         !
 ! A75   A(40,30,41)           107.8511                                         !
 ! A76   A(25,42,43)           119.3995                                         !
 ! A77   A(25,42,50)           117.9283                                         !
 ! A78   A(43,42,50)           112.0312                                         !
 ! A79   A(42,43,44)           106.6593                                         !
 ! A80   A(42,43,46)           111.3078                                         !
 ! A81   A(42,43,51)           108.0459                                         !
 ! A82   A(44,43,46)           115.1131                                         !
 ! A83   A(44,43,51)           107.6925                                         !
 ! A84   A(46,43,51)           107.7755                                         !
 ! A85   A(43,44,45)           119.6719                                         !
 ! A86   A(43,44,56)           114.7544                                         !
 ! A87   A(45,44,56)           125.5678                                         !
 ! A88   A(43,46,47)           113.1345                                         !
 ! A89   A(43,46,52)           106.8085                                         !
 ! A90   A(43,46,53)           110.8665                                         !
 ! A91   A(47,46,52)           110.2871                                         !
 ! A92   A(47,46,53)           108.4016                                         !
 ! A93   A(52,46,53)           107.1819                                         !
 ! A94   A(46,47,48)           116.0325                                         !
 ! A95   A(46,47,49)           122.4062                                         !
 ! A96   A(48,47,49)           121.5475                                         !
 ! A97   A(47,48,54)           118.1628                                         !
 ! A98   A(47,48,55)           122.5463                                         !
 ! A99   A(54,48,55)           118.2955                                         !
 ! A100  A(44,56,57)           128.5083                                         !
 ! A101  A(44,56,68)           114.9399                                         !
 ! A102  A(57,56,68)           116.4592                                         !
 ! A103  A(56,57,58)           115.3965                                         !
 ! A104  A(56,57,60)           112.1788                                         !
 ! A105  A(56,57,69)           104.7323                                         !
 ! A106  A(58,57,60)           110.2032                                         !
 ! A107  A(58,57,69)           105.4266                                         !
 ! A108  A(60,57,69)           108.3024                                         !
 ! A109  A(57,58,59)           117.3315                                         !
 ! A110  A(57,58,67)           116.7169                                         !
 ! A111  A(59,58,67)           125.4019                                         !
 ! A112  A(57,60,61)           113.3262                                         !
 ! A113  A(57,60,70)           108.4951                                         !
 ! A114  A(57,60,71)           107.5004                                         !
 ! A115  A(61,60,70)           111.2695                                         !
 ! A116  A(61,60,71)           109.7658                                         !
 ! A117  A(70,60,71)           106.1681                                         !
 ! A118  A(60,61,62)           114.2152                                         !
 ! A119  A(60,61,72)           110.2047                                         !
 ! A120  A(60,61,73)           109.6925                                         !
 ! A121  A(62,61,72)           108.6577                                         !
 ! A122  A(62,61,73)           106.8056                                         !
 ! A123  A(72,61,73)           106.9693                                         !
 ! A124  A(61,62,63)           113.3383                                         !
 ! A125  A(61,62,74)           110.6138                                         !
 ! A126  A(61,62,75)           110.3803                                         !
 ! A127  A(63,62,74)           109.6569                                         !
 ! A128  A(63,62,75)           106.5905                                         !
 ! A129  A(74,62,75)           105.9263                                         !
 ! A130  A(62,63,64)           126.1927                                         !
 ! A131  A(62,63,76)           114.2123                                         !
 ! A132  A(64,63,76)           111.4322                                         !
 ! A133  A(63,64,65)           121.5321                                         !
 ! A134  A(63,64,66)           117.6714                                         !
 ! A135  A(65,64,66)           120.595                                          !
 ! A136  A(64,65,77)           120.5105                                         !
 ! A137  A(64,65,78)           121.5493                                         !
 ! A138  A(77,65,78)           116.8964                                         !
 ! A139  A(64,66,79)           117.1791                                         !
 ! A140  A(64,66,80)           112.4476                                         !
 ! A141  A(79,66,80)           114.4924                                         !
 ! D1    D(12,1,2,3)           -38.3044                                         !
 ! D2    D(12,1,2,5)          -165.1717                                         !
 ! D3    D(12,1,2,13)           75.5525                                         !
 ! D4    D(21,1,2,3)            77.9388                                         !
 ! D5    D(21,1,2,5)           -48.9284                                         !
 ! D6    D(21,1,2,13)         -168.2043                                         !
 ! D7    D(22,1,2,3)          -161.0873                                         !
 ! D8    D(22,1,2,5)            72.0455                                         !
 ! D9    D(22,1,2,13)          -47.2303                                         !
 ! D10   D(1,2,3,4)             28.8643                                         !
 ! D11   D(1,2,3,23)          -149.6307                                         !
 ! D12   D(5,2,3,4)            151.2096                                         !
 ! D13   D(5,2,3,23)           -27.2854                                         !
 ! D14   D(13,2,3,4)           -83.9569                                         !
 ! D15   D(13,2,3,23)           97.5481                                         !
 ! D16   D(1,2,5,6)            -52.326                                          !
 ! D17   D(1,2,5,14)          -172.8665                                         !
 ! D18   D(1,2,5,15)            69.8098                                         !
 ! D19   D(3,2,5,6)           -171.2787                                         !
 ! D20   D(3,2,5,14)            68.1808                                         !
 ! D21   D(3,2,5,15)           -49.1428                                         !
 ! D22   D(13,2,5,6)            64.8692                                         !
 ! D23   D(13,2,5,14)          -55.6714                                         !
 ! D24   D(13,2,5,15)         -172.995                                          !
 ! D25   D(2,3,23,24)          171.11                                           !
 ! D26   D(2,3,23,31)            0.2857                                         !
 ! D27   D(4,3,23,24)           -7.3024                                         !
 ! D28   D(4,3,23,31)         -178.1267                                         !
 ! D29   D(2,5,6,7)            -77.4044                                         !
 ! D30   D(2,5,6,8)             99.7767                                         !
 ! D31   D(14,5,6,7)            42.0958                                         !
 ! D32   D(14,5,6,8)          -140.7231                                         !
 ! D33   D(15,5,6,7)           161.5283                                         !
 ! D34   D(15,5,6,8)           -21.2906                                         !
 ! D35   D(5,6,7,9)            177.5203                                         !
 ! D36   D(5,6,7,16)            -3.3452                                         !
 ! D37   D(8,6,7,9)              0.3053                                         !
 ! D38   D(8,6,7,16)           179.4398                                         !
 ! D39   D(5,6,8,10)          -177.8199                                         !
 ! D40   D(5,6,8,17)             2.9395                                         !
 ! D41   D(7,6,8,10)            -0.5968                                         !
 ! D42   D(7,6,8,17)          -179.8375                                         !
 ! D43   D(6,7,9,11)             0.0084                                         !
 ! D44   D(6,7,9,18)           179.4632                                         !
 ! D45   D(16,7,9,11)         -179.1261                                         !
 ! D46   D(16,7,9,18)            0.3286                                         !
 ! D47   D(6,8,10,11)            0.577                                          !
 ! D48   D(6,8,10,19)         -179.5472                                         !
 ! D49   D(17,8,10,11)         179.8066                                         !
 ! D50   D(17,8,10,19)          -0.3176                                         !
 ! D51   D(7,9,11,10)           -0.0347                                         !
 ! D52   D(7,9,11,20)          179.5421                                         !
 ! D53   D(18,9,11,10)        -179.4877                                         !
 ! D54   D(18,9,11,20)           0.0891                                         !
 ! D55   D(8,10,11,9)           -0.2568                                         !
 ! D56   D(8,10,11,20)        -179.8333                                         !
 ! D57   D(19,10,11,9)         179.8676                                         !
 ! D58   D(19,10,11,20)          0.2911                                         !
 ! D59   D(3,23,24,25)         -51.1005                                         !
 ! D60   D(3,23,24,27)        -175.3982                                         !
 ! D61   D(3,23,24,32)          63.7155                                         !
 ! D62   D(31,23,24,25)        119.8929                                         !
 ! D63   D(31,23,24,27)         -4.4048                                         !
 ! D64   D(31,23,24,32)       -125.2911                                         !
 ! D65   D(23,24,25,26)        145.7002                                         !
 ! D66   D(23,24,25,42)        -35.3475                                         !
 ! D67   D(27,24,25,26)        -91.9566                                         !
 ! D68   D(27,24,25,42)         86.9956                                         !
 ! D69   D(32,24,25,26)         28.6517                                         !
 ! D70   D(32,24,25,42)       -152.3961                                         !
 ! D71   D(23,24,27,28)        177.5618                                         !
 ! D72   D(23,24,27,33)        -60.4386                                         !
 ! D73   D(23,24,27,34)         55.2618                                         !
 ! D74   D(25,24,27,28)         54.4106                                         !
 ! D75   D(25,24,27,33)        176.4102                                         !
 ! D76   D(25,24,27,34)        -67.8895                                         !
 ! D77   D(32,24,27,28)        -62.8582                                         !
 ! D78   D(32,24,27,33)         59.1414                                         !
 ! D79   D(32,24,27,34)        174.8418                                         !
 ! D80   D(24,25,42,43)        152.364                                          !
 ! D81   D(24,25,42,50)         10.5499                                         !
 ! D82   D(26,25,42,43)        -28.705                                          !
 ! D83   D(26,25,42,50)       -170.5191                                         !
 ! D84   D(24,27,28,29)         56.1047                                         !
 ! D85   D(24,27,28,30)       -179.9443                                         !
 ! D86   D(24,27,28,35)        -62.5403                                         !
 ! D87   D(33,27,28,29)        -65.3553                                         !
 ! D88   D(33,27,28,30)         58.5956                                         !
 ! D89   D(33,27,28,35)        175.9997                                         !
 ! D90   D(34,27,28,29)        178.1777                                         !
 ! D91   D(34,27,28,30)        -57.8714                                         !
 ! D92   D(34,27,28,35)         59.5327                                         !
 ! D93   D(27,28,29,36)         54.8864                                         !
 ! D94   D(27,28,29,37)        173.9913                                         !
 ! D95   D(27,28,29,38)        -66.656                                          !
 ! D96   D(30,28,29,36)        -67.9436                                         !
 ! D97   D(30,28,29,37)         51.1613                                         !
 ! D98   D(30,28,29,38)        170.514                                          !
 ! D99   D(35,28,29,36)        173.5409                                         !
 ! D100  D(35,28,29,37)        -67.3541                                         !
 ! D101  D(35,28,29,38)         51.9985                                         !
 ! D102  D(27,28,30,39)        -64.1335                                         !
 ! D103  D(27,28,30,40)         56.2621                                         !
 ! D104  D(27,28,30,41)        176.503                                          !
 ! D105  D(29,28,30,39)         60.4318                                         !
 ! D106  D(29,28,30,40)       -179.1726                                         !
 ! D107  D(29,28,30,41)        -58.9317                                         !
 ! D108  D(35,28,30,39)        178.7056                                         !
 ! D109  D(35,28,30,40)        -60.8988                                         !
 ! D110  D(35,28,30,41)         59.3421                                         !
 ! D111  D(25,42,43,44)       -135.71                                           !
 ! D112  D(25,42,43,46)         97.9752                                         !
 ! D113  D(25,42,43,51)        -20.1708                                         !
 ! D114  D(50,42,43,44)          8.1868                                         !
 ! D115  D(50,42,43,46)       -118.128                                          !
 ! D116  D(50,42,43,51)        123.726                                          !
 ! D117  D(42,43,44,45)         -1.1352                                         !
 ! D118  D(42,43,44,56)        178.0286                                         !
 ! D119  D(46,43,44,45)        122.8621                                         !
 ! D120  D(46,43,44,56)        -57.974                                          !
 ! D121  D(51,43,44,45)       -116.9116                                         !
 ! D122  D(51,43,44,56)         62.2522                                         !
 ! D123  D(42,43,46,47)       -150.9106                                         !
 ! D124  D(42,43,46,52)        -29.3812                                         !
 ! D125  D(42,43,46,53)         87.0678                                         !
 ! D126  D(44,43,46,47)         87.5789                                         !
 ! D127  D(44,43,46,52)       -150.8918                                         !
 ! D128  D(44,43,46,53)        -34.4428                                         !
 ! D129  D(51,43,46,47)        -32.6018                                         !
 ! D130  D(51,43,46,52)         88.9275                                         !
 ! D131  D(51,43,46,53)       -154.6234                                         !
 ! D132  D(43,44,56,57)        176.6269                                         !
 ! D133  D(43,44,56,68)          0.2868                                         !
 ! D134  D(45,44,56,57)         -4.2662                                         !
 ! D135  D(45,44,56,68)        179.3937                                         !
 ! D136  D(43,46,47,48)        144.3414                                         !
 ! D137  D(43,46,47,49)        -36.9914                                         !
 ! D138  D(52,46,47,48)         24.7907                                         !
 ! D139  D(52,46,47,49)       -156.542                                          !
 ! D140  D(53,46,47,48)        -92.2673                                         !
 ! D141  D(53,46,47,49)         86.3999                                         !
 ! D142  D(46,47,48,54)       -178.324                                          !
 ! D143  D(46,47,48,55)         -9.9417                                         !
 ! D144  D(49,47,48,54)          2.9963                                         !
 ! D145  D(49,47,48,55)        171.3786                                         !
 ! D146  D(44,56,57,58)         74.3818                                         !
 ! D147  D(44,56,57,60)        -52.9465                                         !
 ! D148  D(44,56,57,69)       -170.1946                                         !
 ! D149  D(68,56,57,58)       -109.3251                                         !
 ! D150  D(68,56,57,60)        123.3465                                         !
 ! D151  D(68,56,57,69)          6.0984                                         !
 ! D152  D(56,57,58,59)        -58.6344                                         !
 ! D153  D(56,57,58,67)        129.4024                                         !
 ! D154  D(60,57,58,59)         69.6807                                         !
 ! D155  D(60,57,58,67)       -102.2825                                         !
 ! D156  D(69,57,58,59)       -173.6608                                         !
 ! D157  D(69,57,58,67)         14.376                                          !
 ! D158  D(56,57,60,61)       -172.6761                                         !
 ! D159  D(56,57,60,70)         63.2129                                         !
 ! D160  D(56,57,60,71)        -51.2021                                         !
 ! D161  D(58,57,60,61)         57.2685                                         !
 ! D162  D(58,57,60,70)        -66.8425                                         !
 ! D163  D(58,57,60,71)        178.7426                                         !
 ! D164  D(69,57,60,61)        -57.5827                                         !
 ! D165  D(69,57,60,70)        178.3062                                         !
 ! D166  D(69,57,60,71)         63.8913                                         !
 ! D167  D(57,60,61,62)       -110.2146                                         !
 ! D168  D(57,60,61,72)         12.4208                                         !
 ! D169  D(57,60,61,73)        129.9391                                         !
 ! D170  D(70,60,61,62)         12.3716                                         !
 ! D171  D(70,60,61,72)        135.007                                          !
 ! D172  D(70,60,61,73)       -107.4747                                         !
 ! D173  D(71,60,61,62)        129.5911                                         !
 ! D174  D(71,60,61,72)       -107.7735                                         !
 ! D175  D(71,60,61,73)          9.7448                                         !
 ! D176  D(60,61,62,63)         63.9095                                         !
 ! D177  D(60,61,62,74)       -172.4681                                         !
 ! D178  D(60,61,62,75)        -55.5645                                         !
 ! D179  D(72,61,62,63)        -59.5646                                         !
 ! D180  D(72,61,62,74)         64.0578                                         !
 ! D181  D(72,61,62,75)       -179.0386                                         !
 ! D182  D(73,61,62,63)       -174.6376                                         !
 ! D183  D(73,61,62,74)        -51.0152                                         !
 ! D184  D(73,61,62,75)         65.8884                                         !
 ! D185  D(61,62,63,64)         87.5351                                         !
 ! D186  D(61,62,63,76)        -58.1004                                         !
 ! D187  D(74,62,63,64)        -36.6097                                         !
 ! D188  D(74,62,63,76)        177.7547                                         !
 ! D189  D(75,62,63,64)       -150.8435                                         !
 ! D190  D(75,62,63,76)         63.5209                                         !
 ! D191  D(62,63,64,65)         26.7639                                         !
 ! D192  D(62,63,64,66)       -158.3649                                         !
 ! D193  D(76,63,64,65)        173.1879                                         !
 ! D194  D(76,63,64,66)        -11.941                                          !
 ! D195  D(63,64,65,77)       -169.6169                                         !
 ! D196  D(63,64,65,78)         -1.6645                                         !
 ! D197  D(66,64,65,77)         15.6603                                         !
 ! D198  D(66,64,65,78)       -176.3872                                         !
 ! D199  D(63,64,66,79)        170.1688                                         !
 ! D200  D(63,64,66,80)         34.4131                                         !
 ! D201  D(65,64,66,79)        -14.9096                                         !
 ! D202  D(65,64,66,80)       -150.6654                                         !
 --------------------------------------------------------------------------------
 Symmetry turned off by external request.
 Stoichiometry    C25H41N8O6(1+)
 Framework group  C1[X(C25H41N8O6)]
 Deg. of freedom   234
 Full point group                 C1      NOp   1
                          Input orientation:                          
 ---------------------------------------------------------------------
 Center     Atomic      Atomic             Coordinates (Angstroms)
 Number     Number       Type             X           Y           Z
 ---------------------------------------------------------------------
      1          7           0       -2.077431   13.567201   -6.996560
      2          6           0       -2.299086   13.783283   -8.462164
      3          6           0       -3.791584   13.445009   -8.667108
      4          8           0       -4.565182   13.623008   -7.728109
      5          6           0       -1.272211   12.987062   -9.283862
      6          6           0        0.144248   13.272499   -8.829638
      7          6           0        0.788046   14.459046   -9.205968
      8          6           0        0.807078   12.378665   -7.977869
      9          6           0        2.073390   14.745877   -8.745686
     10          6           0        2.096357   12.662714   -7.521766
     11          6           0        2.730047   13.846679   -7.902225
     12          1           0       -2.912169   13.898609   -6.492281
     13          1           0       -2.168629   14.856663   -8.641590
     14          1           0       -1.387436   13.272961  -10.336475
     15          1           0       -1.498062   11.921599   -9.189787
     16          1           0        0.286481   15.156210   -9.874333
     17          1           0        0.308679   11.456051   -7.687562
     18          1           0        2.564493   15.664892   -9.051926
     19          1           0        2.604632   11.960920   -6.868259
     20          1           0        3.733533   14.065617   -7.549404
     21          1           0       -1.981082   12.556884   -6.725874
     22          1           0       -1.239610   14.031061   -6.641350
     23          7           0       -4.172087   12.939952   -9.859290
     24          6           0       -5.534688   12.416387  -10.056166
     25          6           0       -5.893559   11.406015   -8.945723
     26          8           0       -7.032540   11.311275   -8.515458
     27          6           0       -5.642389   11.807246  -11.463963
     28          6           0       -7.002659   11.162249  -11.796263
     29          6           0       -8.171322   12.142038  -11.617939
     30          6           0       -6.960923   10.599526  -13.224074
     31          1           0       -3.489258   12.787543  -10.588787
     32          1           0       -6.244936   13.236682   -9.933797
     33          1           0       -5.435778   12.602720  -12.194705
     34          1           0       -4.851664   11.050719  -11.578176
     35          1           0       -7.156742   10.325408  -11.101726
     36          1           0       -8.011962   13.055848  -12.205792
     37          1           0       -9.105892   11.686602  -11.962805
     38          1           0       -8.306109   12.415438  -10.567498
     39          1           0       -6.830993   11.404473  -13.958810
     40          1           0       -6.137333    9.887189  -13.356192
     41          1           0       -7.895174   10.080679  -13.463365
     42          7           0       -4.859011   10.625064   -8.507100
     43          6           0       -4.879756   10.111830   -7.150759
     44          6           0       -3.450310   10.317854   -6.574244
     45          8           0       -2.559430   10.825369   -7.292769
     46          6           0       -5.402544    8.652228   -7.108408
     47          6           0       -6.099555    8.302938   -5.796850
     48          7           0       -7.157519    7.467378   -5.891610
     49          8           0       -5.711512    8.733136   -4.706001
     50          1           0       -3.921570   10.865914   -8.808207
     51          1           0       -5.568680   10.731530   -6.563388
     52          1           0       -6.094707    8.539876   -7.947136
     53          1           0       -4.583548    7.938927   -7.266158
     54          1           0       -7.659626    7.234691   -5.044590
     55          1           0       -7.566345    7.207422   -6.776693
     56          7           0       -3.299426    9.935258   -5.308789
     57          6           0       -2.078754    9.929856   -4.495772
     58          6           0       -1.598757   11.321556   -4.007112
     59          8           0       -1.336290   12.211449   -4.911261
     60          6           0       -0.919418    9.178405   -5.188821
     61          6           0        0.326334    8.999407   -4.281145
     62          6           0        1.542221    9.838738   -4.706353
     63          7           0        1.309548   11.286152   -4.618251
     64          6           0        1.500344   12.054318   -3.535972
     65          7           0        2.393964   11.723963   -2.588443
     66          7           0        0.842714   13.225351   -3.477759
     67          8           0       -1.355023   11.433067   -2.801291
     68          1           0       -4.145622    9.545970   -4.868863
     69          1           0       -2.350169    9.381985   -3.590925
     70          1           0       -0.664932    9.708524   -6.112703
     71          1           0       -1.298952    8.197389   -5.494689
     72          1           0        0.076455    9.245209   -3.242478
     73          1           0        0.644985    7.950935   -4.293933
     74          1           0        2.421874    9.570553   -4.113314
     75          1           0        1.806256    9.627210   -5.748344
     76          1           0        0.519982   11.619831   -5.179778
     77          1           0        2.417745   12.221429   -1.711095
     78          1           0        2.933928   10.875143   -2.645954
     79          1           0        0.868911   13.726950   -2.599442
     80          1           0       -0.096357   13.174653   -3.916373
 ---------------------------------------------------------------------
 Rotational constants (GHZ):           0.1270934           0.0639413           0.0473561
 Standard basis: 6-31G(d) (6D, 7F)
   667 basis functions,  1256 primitive gaussians,   667 cartesian basis functions
   147 alpha electrons      147 beta electrons
       nuclear repulsion energy      4941.8145127750 Hartrees.
 NAtoms=   80 NActive=   80 NUniq=   80 SFac= 1.00D+00 NAtFMM=   60 NAOKFM=T Big=T
 Integral buffers will be    131072 words long.
 Raffenetti 2 integral format.
 Two-electron integral symmetry is turned off.
 Nuclear repulsion after empirical dispersion term =     4941.6978122289 Hartrees.
 One-electron integrals computed using PRISM.
 NBasis=   667 RedAO= T EigKep=  4.50D-04  NBF=   667
 NBsUse=   667 1.00D-06 EigRej= -1.00D+00 NBFU=   667
 Initial guess from the checkpoint file:  "conf-669.chk"
 B after Tr=     0.000000    0.000000    0.000000
         Rot=    1.000000    0.000000    0.000000    0.000000 Ang=   0.00 deg.
 Requested convergence on RMS density matrix=1.00D-08 within 128 cycles.
 Requested convergence on MAX density matrix=1.00D-06.
 Requested convergence on             energy=1.00D-06.
 No special actions if energy rises.
 SCF Done:  E(RB3LYP) =  -1866.74297401     A.U. after    2 cycles
            NFock=  2  Conv=0.78D-08     -V/T= 2.0094

 **********************************************************************

            Population analysis using the SCF Density.

 **********************************************************************

 Alpha  occ. eigenvalues --  -19.23643 -19.22261 -19.21152 -19.19851 -19.18945
 Alpha  occ. eigenvalues --  -19.17423 -14.53949 -14.49775 -14.48011 -14.48009
 Alpha  occ. eigenvalues --  -14.46558 -14.44889 -14.44695 -14.43568 -10.44815
 Alpha  occ. eigenvalues --  -10.40995 -10.38818 -10.38645 -10.37392 -10.36921
 Alpha  occ. eigenvalues --  -10.35823 -10.34193 -10.32744 -10.32583 -10.31629
 Alpha  occ. eigenvalues --  -10.31018 -10.30440 -10.29232 -10.29181 -10.29140
 Alpha  occ. eigenvalues --  -10.28985 -10.28872 -10.28715 -10.28681 -10.28031
 Alpha  occ. eigenvalues --  -10.27853 -10.26274 -10.23941 -10.23280  -1.16185
 Alpha  occ. eigenvalues --   -1.13657  -1.13459  -1.12683  -1.11745  -1.11159
 Alpha  occ. eigenvalues --   -1.09249  -1.04309  -1.03264  -1.02201  -1.01605
 Alpha  occ. eigenvalues --   -1.01112  -1.00696  -0.99622  -0.96025  -0.91125
 Alpha  occ. eigenvalues --   -0.89556  -0.89106  -0.87031  -0.85058  -0.84502
 Alpha  occ. eigenvalues --   -0.83811  -0.82353  -0.78517  -0.77524  -0.76517
 Alpha  occ. eigenvalues --   -0.75267  -0.74690  -0.73311  -0.71116  -0.70748
 Alpha  occ. eigenvalues --   -0.70582  -0.70164  -0.69385  -0.68808  -0.68403
 Alpha  occ. eigenvalues --   -0.67262  -0.66538  -0.66428  -0.65706  -0.64179
 Alpha  occ. eigenvalues --   -0.63432  -0.63215  -0.62269  -0.62031  -0.61053
 Alpha  occ. eigenvalues --   -0.60682  -0.60015  -0.59383  -0.58473  -0.58165
 Alpha  occ. eigenvalues --   -0.57854  -0.56972  -0.56077  -0.56034  -0.55493
 Alpha  occ. eigenvalues --   -0.55427  -0.54485  -0.53894  -0.53721  -0.53574
 Alpha  occ. eigenvalues --   -0.53066  -0.52584  -0.52178  -0.51957  -0.51906
 Alpha  occ. eigenvalues --   -0.51221  -0.50805  -0.50603  -0.50206  -0.50032
 Alpha  occ. eigenvalues --   -0.49793  -0.49392  -0.48746  -0.48170  -0.47605
 Alpha  occ. eigenvalues --   -0.47238  -0.46635  -0.46210  -0.46141  -0.45910
 Alpha  occ. eigenvalues --   -0.45568  -0.44722  -0.44659  -0.44474  -0.44318
 Alpha  occ. eigenvalues --   -0.44059  -0.43894  -0.43356  -0.43010  -0.40304
 Alpha  occ. eigenvalues --   -0.40226  -0.39684  -0.39439  -0.38151  -0.37796
 Alpha  occ. eigenvalues --   -0.37460  -0.37249  -0.36533  -0.36056  -0.35149
 Alpha  occ. eigenvalues --   -0.35107  -0.34641  -0.34181  -0.34081  -0.33038
 Alpha  occ. eigenvalues --   -0.32689  -0.30639
 Alpha virt. eigenvalues --   -0.11127  -0.10417  -0.09960  -0.09556  -0.07979
 Alpha virt. eigenvalues --   -0.06798  -0.06249  -0.05954  -0.04516  -0.04043
 Alpha virt. eigenvalues --   -0.02857  -0.02539  -0.01850  -0.00639  -0.00031
 Alpha virt. eigenvalues --    0.00977   0.01163   0.01411   0.01629   0.02107
 Alpha virt. eigenvalues --    0.02580   0.03016   0.03167   0.03790   0.04144
 Alpha virt. eigenvalues --    0.04562   0.04675   0.05231   0.05238   0.05447
 Alpha virt. eigenvalues --    0.05907   0.06546   0.06726   0.06826   0.07203
 Alpha virt. eigenvalues --    0.07598   0.07945   0.08140   0.08622   0.08912
 Alpha virt. eigenvalues --    0.09563   0.09975   0.10146   0.10651   0.10743
 Alpha virt. eigenvalues --    0.11171   0.11495   0.11669   0.11903   0.12388
 Alpha virt. eigenvalues --    0.12996   0.13374   0.13660   0.13740   0.14387
 Alpha virt. eigenvalues --    0.14584   0.14986   0.15745   0.15990   0.16096
 Alpha virt. eigenvalues --    0.16580   0.17091   0.17266   0.17967   0.18290
 Alpha virt. eigenvalues --    0.18487   0.18875   0.19144   0.20510   0.20690
 Alpha virt. eigenvalues --    0.21991   0.22754   0.23547   0.23950   0.24831
 Alpha virt. eigenvalues --    0.25322   0.26073   0.26659   0.27447   0.27834
 Alpha virt. eigenvalues --    0.29228   0.29918   0.30992   0.31691   0.33209
 Alpha virt. eigenvalues --    0.34488   0.35154   0.36046   0.38858   0.39719
 Alpha virt. eigenvalues --    0.40355   0.40796   0.41078   0.41505   0.42085
 Alpha virt. eigenvalues --    0.42891   0.43407   0.43548   0.43986   0.44498
 Alpha virt. eigenvalues --    0.44585   0.45082   0.45162   0.45530   0.45682
 Alpha virt. eigenvalues --    0.46032   0.46519   0.46988   0.47174   0.47433
 Alpha virt. eigenvalues --    0.47832   0.48529   0.48749   0.49390   0.49908
 Alpha virt. eigenvalues --    0.50220   0.50565   0.50914   0.51560   0.51644
 Alpha virt. eigenvalues --    0.52105   0.52314   0.52735   0.53004   0.53576
 Alpha virt. eigenvalues --    0.53920   0.54700   0.54868   0.55113   0.55843
 Alpha virt. eigenvalues --    0.56192   0.56501   0.56740   0.57131   0.57445
 Alpha virt. eigenvalues --    0.57728   0.58422   0.58531   0.58812   0.58995
 Alpha virt. eigenvalues --    0.59681   0.60911   0.61098   0.61755   0.61884
 Alpha virt. eigenvalues --    0.63013   0.63074   0.63124   0.64519   0.64780
 Alpha virt. eigenvalues --    0.65165   0.65608   0.65963   0.66877   0.67525
 Alpha virt. eigenvalues --    0.67922   0.69037   0.69898   0.70388   0.70775
 Alpha virt. eigenvalues --    0.70963   0.71519   0.71743   0.72146   0.72791
 Alpha virt. eigenvalues --    0.73109   0.73278   0.73688   0.73830   0.74818
 Alpha virt. eigenvalues --    0.75204   0.75576   0.75965   0.76443   0.76858
 Alpha virt. eigenvalues --    0.77374   0.77570   0.77883   0.77975   0.78420
 Alpha virt. eigenvalues --    0.78577   0.78918   0.79288   0.79420   0.79863
 Alpha virt. eigenvalues --    0.80208   0.80479   0.80549   0.81609   0.81850
 Alpha virt. eigenvalues --    0.82227   0.82464   0.82805   0.83560   0.83757
 Alpha virt. eigenvalues --    0.84186   0.84558   0.84713   0.85211   0.85638
 Alpha virt. eigenvalues --    0.85723   0.86455   0.86855   0.87048   0.87461
 Alpha virt. eigenvalues --    0.87659   0.88503   0.88861   0.89437   0.89778
 Alpha virt. eigenvalues --    0.90357   0.91150   0.91671   0.91972   0.92322
 Alpha virt. eigenvalues --    0.92715   0.93198   0.93480   0.93884   0.94598
 Alpha virt. eigenvalues --    0.95682   0.95738   0.97767   0.98326   0.99200
 Alpha virt. eigenvalues --    0.99402   0.99996   1.01178   1.01729   1.03074
 Alpha virt. eigenvalues --    1.03571   1.03929   1.04426   1.04930   1.06624
 Alpha virt. eigenvalues --    1.07231   1.07766   1.07919   1.09135   1.09450
 Alpha virt. eigenvalues --    1.10539   1.10772   1.12180   1.12656   1.13872
 Alpha virt. eigenvalues --    1.14004   1.14841   1.15366   1.16252   1.16608
 Alpha virt. eigenvalues --    1.17303   1.17928   1.18848   1.19344   1.19891
 Alpha virt. eigenvalues --    1.21676   1.21771   1.23662   1.23910   1.24851
 Alpha virt. eigenvalues --    1.26232   1.26549   1.27642   1.29226   1.30046
 Alpha virt. eigenvalues --    1.30840   1.31401   1.32280   1.32519   1.33727
 Alpha virt. eigenvalues --    1.34111   1.34563   1.35083   1.35929   1.36045
 Alpha virt. eigenvalues --    1.36920   1.37639   1.38680   1.38769   1.39137
 Alpha virt. eigenvalues --    1.40392   1.40521   1.40988   1.41601   1.42257
 Alpha virt. eigenvalues --    1.42679   1.44521   1.45463   1.46080   1.47756
 Alpha virt. eigenvalues --    1.48488   1.48940   1.49500   1.51454   1.52121
 Alpha virt. eigenvalues --    1.52972   1.53656   1.54727   1.56175   1.57447
 Alpha virt. eigenvalues --    1.57900   1.58417   1.59534   1.60245   1.61573
 Alpha virt. eigenvalues --    1.61927   1.63028   1.64696   1.65367   1.65885
 Alpha virt. eigenvalues --    1.66467   1.66515   1.67674   1.68677   1.69016
 Alpha virt. eigenvalues --    1.69156   1.70200   1.70667   1.70771   1.71249
 Alpha virt. eigenvalues --    1.71383   1.71873   1.72478   1.73074   1.74369
 Alpha virt. eigenvalues --    1.74797   1.75488   1.75719   1.76017   1.76909
 Alpha virt. eigenvalues --    1.77553   1.77839   1.78234   1.78628   1.78935
 Alpha virt. eigenvalues --    1.79836   1.80389   1.80928   1.81207   1.82245
 Alpha virt. eigenvalues --    1.82992   1.83549   1.84104   1.84338   1.85026
 Alpha virt. eigenvalues --    1.85652   1.86852   1.87751   1.87953   1.88245
 Alpha virt. eigenvalues --    1.88686   1.89627   1.90156   1.90388   1.90952
 Alpha virt. eigenvalues --    1.91402   1.92453   1.92817   1.93104   1.93651
 Alpha virt. eigenvalues --    1.94345   1.94995   1.96029   1.96338   1.96436
 Alpha virt. eigenvalues --    1.96757   1.97865   1.98258   1.98388   1.99278
 Alpha virt. eigenvalues --    2.00104   2.02002   2.03115   2.03473   2.03658
 Alpha virt. eigenvalues --    2.04420   2.04795   2.04994   2.05697   2.06352
 Alpha virt. eigenvalues --    2.06950   2.08408   2.09244   2.09481   2.10371
 Alpha virt. eigenvalues --    2.11446   2.11805   2.12809   2.12924   2.14858
 Alpha virt. eigenvalues --    2.15094   2.15398   2.15937   2.18366   2.18441
 Alpha virt. eigenvalues --    2.18611   2.19405   2.19952   2.21051   2.21371
 Alpha virt. eigenvalues --    2.21922   2.22172   2.23104   2.24456   2.25494
 Alpha virt. eigenvalues --    2.26327   2.26384   2.27708   2.29303   2.29564
 Alpha virt. eigenvalues --    2.30240   2.31847   2.33026   2.33806   2.34652
 Alpha virt. eigenvalues --    2.35059   2.35933   2.37027   2.37286   2.39132
 Alpha virt. eigenvalues --    2.39537   2.40890   2.41145   2.42565   2.43360
 Alpha virt. eigenvalues --    2.44150   2.44400   2.45350   2.47156   2.47371
 Alpha virt. eigenvalues --    2.48262   2.48871   2.48920   2.50607   2.50956
 Alpha virt. eigenvalues --    2.51558   2.52359   2.52921   2.53292   2.53936
 Alpha virt. eigenvalues --    2.55879   2.56401   2.56743   2.57673   2.58780
 Alpha virt. eigenvalues --    2.59049   2.61577   2.62570   2.63411   2.63931
 Alpha virt. eigenvalues --    2.64475   2.65243   2.65592   2.65933   2.68311
 Alpha virt. eigenvalues --    2.68346   2.69420   2.71033   2.74511   2.75024
 Alpha virt. eigenvalues --    2.77214   2.77290   2.78945   2.83347   2.86598
 Alpha virt. eigenvalues --    2.88399   2.89487   2.91735   2.92652   2.93039
 Alpha virt. eigenvalues --    2.93942   2.95084   2.95579   2.96377   2.97774
 Alpha virt. eigenvalues --    2.98578   3.05470   3.07310   3.08957   3.12152
 Alpha virt. eigenvalues --    3.30965   3.69232   3.72297   3.78521   3.81199
 Alpha virt. eigenvalues --    3.89688   3.90869   3.94473   3.97160   3.99639
 Alpha virt. eigenvalues --    4.00917   4.02698   4.04163   4.06168   4.06913
 Alpha virt. eigenvalues --    4.08662   4.10449   4.12206   4.15313   4.16515
 Alpha virt. eigenvalues --    4.19050   4.21090   4.22577   4.23514   4.24002
 Alpha virt. eigenvalues --    4.25418   4.30992   4.31536   4.35120   4.37471
 Alpha virt. eigenvalues --    4.41407   4.43986   4.46379   4.50698   4.53082
 Alpha virt. eigenvalues --    4.55360   4.58668   4.60779   4.62983   4.65974
          Condensed to atoms (all electrons):
 Mulliken charges:
               1
     1  N   -0.769815
     2  C   -0.091495
     3  C    0.655397
     4  O   -0.521898
     5  C   -0.400291
     6  C    0.127149
     7  C   -0.185962
     8  C   -0.213065
     9  C   -0.125791
    10  C   -0.128260
    11  C   -0.125913
    12  H    0.410847
    13  H    0.210696
    14  H    0.171688
    15  H    0.207719
    16  H    0.140129
    17  H    0.159553
    18  H    0.159249
    19  H    0.146034
    20  H    0.154461
    21  H    0.479276
    22  H    0.397256
    23  N   -0.654435
    24  C   -0.014944
    25  C    0.618274
    26  O   -0.511726
    27  C   -0.308501
    28  C   -0.076870
    29  C   -0.462859
    30  C   -0.446159
    31  H    0.349342
    32  H    0.206976
    33  H    0.152481
    34  H    0.136506
    35  H    0.145039
    36  H    0.138265
    37  H    0.156262
    38  H    0.177355
    39  H    0.147153
    40  H    0.140432
    41  H    0.159083
    42  N   -0.612492
    43  C   -0.050236
    44  C    0.605852
    45  O   -0.614299
    46  C   -0.373267
    47  C    0.632097
    48  N   -0.735361
    49  O   -0.528611
    50  H    0.342667
    51  H    0.215297
    52  H    0.187127
    53  H    0.187198
    54  H    0.363259
    55  H    0.357520
    56  N   -0.626430
    57  C   -0.018916
    58  C    0.589892
    59  O   -0.677961
    60  C   -0.314624
    61  C   -0.277273
    62  C   -0.183787
    63  N   -0.601212
    64  C    0.786441
    65  N   -0.760477
    66  N   -0.744736
    67  O   -0.537013
    68  H    0.410305
    69  H    0.174908
    70  H    0.172777
    71  H    0.159192
    72  H    0.185269
    73  H    0.163999
    74  H    0.153593
    75  H    0.181294
    76  H    0.387273
    77  H    0.377172
    78  H    0.376862
    79  H    0.350120
    80  H    0.387942
 Sum of Mulliken charges =   1.00000
 Mulliken charges with hydrogens summed into heavy atoms:
               1
     1  N    0.517564
     2  C    0.119200
     3  C    0.655397
     4  O   -0.521898
     5  C   -0.020884
     6  C    0.127149
     7  C   -0.045833
     8  C   -0.053512
     9  C    0.033459
    10  C    0.017774
    11  C    0.028548
    23  N   -0.305094
    24  C    0.192032
    25  C    0.618274
    26  O   -0.511726
    27  C   -0.019514
    28  C    0.068170
    29  C    0.009023
    30  C    0.000509
    42  N   -0.269825
    43  C    0.165061
    44  C    0.605852
    45  O   -0.614299
    46  C    0.001059
    47  C    0.632097
    48  N   -0.014582
    49  O   -0.528611
    56  N   -0.216125
    57  C    0.155992
    58  C    0.589892
    59  O   -0.677961
    60  C    0.017345
    61  C    0.071995
    62  C    0.151099
    63  N   -0.213939
    64  C    0.786441
    65  N   -0.006443
    66  N   -0.006674
    67  O   -0.537013
 Electronic spatial extent (au):  <R**2>=         221720.9665
 Charge=              1.0000 electrons
 Dipole moment (field-independent basis, Debye):
    X=             -2.3694    Y=             55.0280    Z=            -33.2265  Tot=             64.3249
 Quadrupole moment (field-independent basis, Debye-Ang):
   XX=           -166.1440   YY=            453.0058   ZZ=             55.9544
   XY=              4.8412   XZ=             69.0495   YZ=           -390.3357
 Traceless Quadrupole moment (field-independent basis, Debye-Ang):
   XX=           -280.4161   YY=            338.7337   ZZ=            -58.3176
   XY=              4.8412   XZ=             69.0495   YZ=           -390.3357
 Octapole moment (field-independent basis, Debye-Ang**2):
  XXX=           1475.3453  YYY=           1075.6380  ZZZ=           2272.1302  XYY=            839.8000
  XXY=          -2195.7553  XXZ=           1173.5633  XZZ=           -238.7667  YZZ=            836.0404
  YYZ=          -3271.5281  XYZ=            592.8598
 Hexadecapole moment (field-independent basis, Debye-Ang**3):
 XXXX=         -20898.5751 YYYY=         -63393.7225 ZZZZ=         -55114.0792 XXXY=          17867.4384
 XXXZ=         -13340.9471 YYYX=          22613.3590 YYYZ=          -7457.9483 ZZZX=          -6519.7462
 ZZZY=          24527.8511 XXYY=         -31827.6792 XXZZ=         -13006.7486 YYZZ=           -101.5725
 XXYZ=          15603.9935 YYXZ=            369.8375 ZZXY=          -2046.8128
 N-N= 4.941697812229D+03 E-N=-1.420295319204D+04  KE= 1.849290200132D+03
 Unable to Open any file for archive entry.
 1\1\GINC-QML-002\SP\RB3LYP\6-31G(d)\C25H41N8O6(1+)\KENGMITH\11-Jun-202
 2\0\\# B3LYP/6-31G* empiricaldispersion=gd3 guess=read geom=check nosy
 mm integral(ultrafinegrid)\\Candidate Structure: Conf:669 Charge calc 
 in gas phase\\1,1\N,0,-2.0774312232,13.5672014655,-6.9965601879\C,0,-2
 .2990856163,13.7832834591,-8.462163941\C,0,-3.7915842133,13.4450094646
 ,-8.6671078198\O,0,-4.5651823412,13.6230079766,-7.7281090101\C,0,-1.27
 22112055,12.9870617007,-9.2838622762\C,0,0.1442475497,13.2724992585,-8
 .8296379682\C,0,0.788045647,14.4590461512,-9.2059678782\C,0,0.80707845
 36,12.3786645951,-7.9778687295\C,0,2.0733900883,14.7458773356,-8.74568
 63629\C,0,2.0963569993,12.66271368,-7.5217661634\C,0,2.7300469943,13.8
 466789801,-7.9022254242\H,0,-2.9121686099,13.8986088128,-6.4922814772\
 H,0,-2.1686288631,14.8566634925,-8.6415898293\H,0,-1.3874355823,13.272
 9607023,-10.3364752815\H,0,-1.4980617178,11.9215994935,-9.189786831\H,
 0,0.2864808319,15.1562103847,-9.8743333644\H,0,0.3086785969,11.4560509
 994,-7.6875622898\H,0,2.5644933016,15.6648918098,-9.0519261558\H,0,2.6
 046319314,11.9609196181,-6.8682592482\H,0,3.7335331718,14.0656169665,-
 7.5494041037\H,0,-1.9810816168,12.5568835805,-6.7258744201\H,0,-1.2396
 09524,14.0310606784,-6.6413495614\N,0,-4.1720868602,12.9399519736,-9.8
 592900977\C,0,-5.5346878733,12.4163869843,-10.0561658436\C,0,-5.893558
 7283,11.4060150429,-8.9457231764\O,0,-7.0325397057,11.311274801,-8.515
 4576596\C,0,-5.6423886565,11.8072459314,-11.4639631539\C,0,-7.00265925
 66,11.1622487651,-11.7962630155\C,0,-8.1713220341,12.1420379315,-11.61
 79393059\C,0,-6.9609226148,10.5995260346,-13.2240737477\H,0,-3.4892581
 422,12.7875425023,-10.5887870388\H,0,-6.2449360342,13.236682343,-9.933
 7971772\H,0,-5.435778359,12.6027195924,-12.1947045907\H,0,-4.851664395
 4,11.0507193237,-11.5781759924\H,0,-7.156742475,10.3254077473,-11.1017
 255018\H,0,-8.0119615329,13.055848044,-12.2057917389\H,0,-9.1058917239
 ,11.6866018213,-11.9628049503\H,0,-8.3061088892,12.4154379646,-10.5674
 979971\H,0,-6.8309926227,11.4044732434,-13.9588095346\H,0,-6.137333379
 8,9.8871894529,-13.3561917232\H,0,-7.8951739029,10.0806785608,-13.4633
 653964\N,0,-4.8590112239,10.6250639909,-8.5071000706\C,0,-4.8797562738
 ,10.1118302984,-7.1507585887\C,0,-3.4503104787,10.3178543849,-6.574244
 156\O,0,-2.5594302964,10.8253692555,-7.2927691322\C,0,-5.4025444803,8.
 6522283026,-7.108407621\C,0,-6.0995551242,8.3029375719,-5.7968503265\N
 ,0,-7.1575191853,7.4673777029,-5.8916101989\O,0,-5.711512461,8.7331360
 632,-4.706000976\H,0,-3.9215699801,10.86591384,-8.8082067106\H,0,-5.56
 86802817,10.7315296535,-6.5633883703\H,0,-6.0947068425,8.5398760128,-7
 .9471362939\H,0,-4.583548414,7.9389267436,-7.2661577065\H,0,-7.6596263
 85,7.234691291,-5.0445900244\H,0,-7.5663454547,7.2074224474,-6.7766925
 136\N,0,-3.2994261411,9.9352581609,-5.308788576\C,0,-2.078753935,9.929
 8561549,-4.4957716815\C,0,-1.5987572725,11.3215564629,-4.0071115852\O,
 0,-1.3362896828,12.2114491539,-4.9112611001\C,0,-0.9194178791,9.178404
 5619,-5.1888211417\C,0,0.3263343031,8.9994067221,-4.281145098\C,0,1.54
 22207284,9.8387381677,-4.7063525271\N,0,1.309547788,11.2861516728,-4.6
 182509391\C,0,1.5003435299,12.0543176908,-3.5359719518\N,0,2.393963705
 7,11.7239631069,-2.5884432492\N,0,0.8427138524,13.22535071,-3.47775884
 08\O,0,-1.3550231392,11.433066846,-2.8012907362\H,0,-4.1456216701,9.54
 59701784,-4.8688632307\H,0,-2.3501691983,9.381984817,-3.5909247331\H,0
 ,-0.6649324953,9.7085241332,-6.1127027485\H,0,-1.2989521923,8.19738852
 34,-5.4946892797\H,0,0.0764546077,9.2452091222,-3.2424783453\H,0,0.644
 9854947,7.9509349817,-4.2939325944\H,0,2.4218739732,9.5705526324,-4.11
 33137686\H,0,1.8062560474,9.6272100508,-5.7483444817\H,0,0.5199818266,
 11.6198312897,-5.1797778631\H,0,2.4177451013,12.2214290144,-1.71109532
 51\H,0,2.9339277044,10.8751431237,-2.6459538896\H,0,0.8689109876,13.72
 69496304,-2.599441663\H,0,-0.0963570786,13.1746530686,-3.9163726457\\V
 ersion=ES64L-G16RevC.01\HF=-1866.742974\RMSD=7.785e-09\Dipole=3.942441
 6,-0.0287454,0.4667257\Quadrupole=-208.4824969,251.8402361,-43.3577392
 ,3.5992788,51.3366455,-290.2050333\PG=C01 [X(C25H41N8O6)]\\@
 The archive entry for this job was punched.


 MAN IS THE MEASURE OF ALL THINGS.
  -- PROTAGORAS (5TH CENTURY B.C.)
 Job cpu time:       0 days  0 hours  5 minutes 26.7 seconds.
 Elapsed time:       0 days  0 hours  1 minutes 22.3 seconds.
 File lengths (MBytes):  RWF=    344 Int=      0 D2E=      0 Chk=     48 Scr=     16
 Normal termination of Gaussian 16 at Sat Jun 11 20:56:47 2022.
