 Entering Gaussian System, Link 0=/opt/software/Gaussian/g16-AVX2-C.01/g16/g16
 Input=charge-conf-883.com
 Output=charge-conf-883.log
 Initial command:
 /opt/software/Gaussian/g16-AVX2-C.01/g16/l1.exe "/mnt/gs18/scratch/users/kengmith/Gau-1490.inp" -scrdir="/mnt/gs18/scratch/users/kengmith/"
 Entering Link 1 = /opt/software/Gaussian/g16-AVX2-C.01/g16/l1.exe PID=      1501.
  
 Copyright (c) 1988-2019, Gaussian, Inc.  All Rights Reserved.
  
 This is part of the Gaussian(R) 16 program.  It is based on
 the Gaussian(R) 09 system (copyright 2009, Gaussian, Inc.),
 the Gaussian(R) 03 system (copyright 2003, Gaussian, Inc.),
 the Gaussian(R) 98 system (copyright 1998, Gaussian, Inc.),
 the Gaussian(R) 94 system (copyright 1995, Gaussian, Inc.),
 the Gaussian 92(TM) system (copyright 1992, Gaussian, Inc.),
 the Gaussian 90(TM) system (copyright 1990, Gaussian, Inc.),
 the Gaussian 88(TM) system (copyright 1988, Gaussian, Inc.),
 the Gaussian 86(TM) system (copyright 1986, Carnegie Mellon
 University), and the Gaussian 82(TM) system (copyright 1983,
 Carnegie Mellon University). Gaussian is a federally registered
 trademark of Gaussian, Inc.
  
 This software contains proprietary and confidential information,
 including trade secrets, belonging to Gaussian, Inc.
  
 This software is provided under written license and may be
 used, copied, transmitted, or stored only in accord with that
 written license.
  
 The following legend is applicable only to US Government
 contracts under FAR:
  
                    RESTRICTED RIGHTS LEGEND
  
 Use, reproduction and disclosure by the US Government is
 subject to restrictions as set forth in subparagraphs (a)
 and (c) of the Commercial Computer Software - Restricted
 Rights clause in FAR 52.227-19.
  
 Gaussian, Inc.
 340 Quinnipiac St., Bldg. 40, Wallingford CT 06492
  
  
 ---------------------------------------------------------------
 Warning -- This program may not be used in any manner that
 competes with the business of Gaussian, Inc. or will provide
 assistance to any competitor of Gaussian, Inc.  The licensee
 of this program is prohibited from giving any competitor of
 Gaussian, Inc. access to this program.  By using this program,
 the user acknowledges that Gaussian, Inc. is engaged in the
 business of creating and licensing software in the field of
 computational chemistry and represents and warrants to the
 licensee that it is not a competitor of Gaussian, Inc. and that
 it will not use this program in any manner prohibited above.
 ---------------------------------------------------------------
  

 Cite this work as:
 Gaussian 16, Revision C.01,
 M. J. Frisch, G. W. Trucks, H. B. Schlegel, G. E. Scuseria, 
 M. A. Robb, J. R. Cheeseman, G. Scalmani, V. Barone, 
 G. A. Petersson, H. Nakatsuji, X. Li, M. Caricato, A. V. Marenich, 
 J. Bloino, B. G. Janesko, R. Gomperts, B. Mennucci, H. P. Hratchian, 
 J. V. Ortiz, A. F. Izmaylov, J. L. Sonnenberg, D. Williams-Young, 
 F. Ding, F. Lipparini, F. Egidi, J. Goings, B. Peng, A. Petrone, 
 T. Henderson, D. Ranasinghe, V. G. Zakrzewski, J. Gao, N. Rega, 
 G. Zheng, W. Liang, M. Hada, M. Ehara, K. Toyota, R. Fukuda, 
 J. Hasegawa, M. Ishida, T. Nakajima, Y. Honda, O. Kitao, H. Nakai, 
 T. Vreven, K. Throssell, J. A. Montgomery, Jr., J. E. Peralta, 
 F. Ogliaro, M. J. Bearpark, J. J. Heyd, E. N. Brothers, K. N. Kudin, 
 V. N. Staroverov, T. A. Keith, R. Kobayashi, J. Normand, 
 K. Raghavachari, A. P. Rendell, J. C. Burant, S. S. Iyengar, 
 J. Tomasi, M. Cossi, J. M. Millam, M. Klene, C. Adamo, R. Cammi, 
 J. W. Ochterski, R. L. Martin, K. Morokuma, O. Farkas, 
 J. B. Foresman, and D. J. Fox, Gaussian, Inc., Wallingford CT, 2019.
 
 ******************************************
 Gaussian 16:  ES64L-G16RevC.01  3-Jul-2019
                11-Jun-2022 
 ******************************************
 %mem=8gb
 %nproc=4
 Will use up to    4 processors via shared memory.
 %chk=conf-883.chk
 ----------------------------------------------------------------------
 # B3LYP/6-31G* empiricaldispersion=gd3 guess=read geom=check nosymm in
 tegral(ultrafinegrid)
 ----------------------------------------------------------------------
 1/29=2,38=1,172=1/1;
 2/12=2,15=1,40=1/2;
 3/5=1,6=6,7=1,11=2,14=-4,25=1,30=1,74=-5,75=-5,116=-2,124=31/1,2,3;
 4/5=1/1;
 5/5=2,38=6/2;
 6/7=2,8=2,9=2,10=2,28=1/1;
 99/5=1,9=1/99;
 ------------------------------------------------------
 Candidate Structure: Conf:883 Charge calc in gas phase
 ------------------------------------------------------
 Structure from the checkpoint file:  "conf-883.chk"
 Charge =  1 Multiplicity = 1
 Redundant internal coordinates found in file.  (old form).
 N,0,-0.6859086415,11.9822424861,-6.4817695713
 C,0,-1.0910324837,12.7004742788,-5.2335125508
 C,0,-1.7214245116,11.5782248629,-4.3713679034
 O,0,-1.2016595906,10.4675915952,-4.3937112783
 C,0,-1.996105823,13.8915051449,-5.59976398
 C,0,-1.3718060116,14.7983152946,-6.6411562862
 C,0,-0.4637083015,15.7995156875,-6.2713425979
 C,0,-1.6645274739,14.6099335113,-7.9989766124
 C,0,0.1360124856,16.6047870168,-7.2398689991
 C,0,-1.0655127662,15.416940909,-8.9680230567
 C,0,-0.1666148892,16.4158782486,-8.5910466327
 H,0,-0.1596903326,12.540244108,-7.1621031749
 H,0,-0.1768503741,13.0483546499,-4.741916273
 H,0,-2.1971206536,14.457412703,-4.6822476605
 H,0,-2.9491700806,13.5019400362,-5.9739756773
 H,0,-0.2346529302,15.9588151339,-5.2196982557
 H,0,-2.3476327477,13.8187910297,-8.2963381572
 H,0,0.8299350536,17.3845558991,-6.9395725354
 H,0,-1.3132522609,15.2659804807,-10.0145574415
 H,0,0.2907575382,17.0527130107,-9.3433439031
 H,0,-0.1728853277,11.1117114281,-6.2913723579
 H,0,-1.5499808888,11.6752014808,-6.9860571974
 N,0,-2.8672847806,11.8438718203,-3.7011065286
 C,0,-3.6328812489,10.7557872399,-3.0721854894
 C,0,-3.9668163763,9.6481683921,-4.0964791807
 O,0,-4.0262903086,8.4732141235,-3.7668063536
 C,0,-4.8945796422,11.3411994481,-2.4155267009
 C,0,-5.831995545,10.3106925812,-1.7554247795
 C,0,-5.1106348856,9.457516824,-0.7022228946
 C,0,-7.0394166154,11.039741092,-1.1489849447
 H,0,-3.2671776407,12.7717579979,-3.7107817958
 H,0,-2.9995767394,10.2684059781,-2.3281580383
 H,0,-4.573437346,12.0693826079,-1.6566452411
 H,0,-5.4584067954,11.89850271,-3.1786450759
 H,0,-6.197733283,9.6357978433,-2.5410205643
 H,0,-4.3561854524,8.8120815204,-1.1608643963
 H,0,-4.6254530897,10.0910320493,0.052267052
 H,0,-5.8252476176,8.8115025023,-0.1807429723
 H,0,-6.7254748159,11.7114442745,-0.3397073234
 H,0,-7.5696085558,11.6405893193,-1.8980872186
 H,0,-7.7525759302,10.3237807662,-0.726807334
 N,0,-4.2247652548,10.0781976737,-5.3696144105
 C,0,-4.0205948083,9.1751098945,-6.4887599388
 C,0,-3.3536279925,10.0061920393,-7.6094637243
 O,0,-3.1326902661,11.2309781671,-7.4297601935
 C,0,-5.3325545155,8.450854013,-6.8809923333
 C,0,-5.0964676119,7.0957149908,-7.5423936861
 N,0,-6.0098082141,6.1379369467,-7.2655142497
 O,0,-4.1500725682,6.8830968207,-8.3063799531
 H,0,-4.0132591633,11.0416332017,-5.6010747998
 H,0,-3.2955437842,8.4108825728,-6.1810270562
 H,0,-5.9081397302,8.3264185957,-5.95984016
 H,0,-5.9334369869,9.070155961,-7.5589746579
 H,0,-5.8696026854,5.2171551414,-7.6606862981
 H,0,-6.7083751881,6.2471014001,-6.5455897539
 N,0,-2.9945948033,9.3541480569,-8.7068786516
 C,0,-2.1661559968,9.946604281,-9.7660314956
 C,0,-0.9300720302,10.6488522265,-9.0960845005
 O,0,-0.6965977458,11.8814967977,-9.3896792942
 C,0,-3.0089953663,10.8050116013,-10.7294688614
 C,0,-2.371432816,10.9781314869,-12.1369109741
 C,0,-2.1810637131,12.4383678768,-12.5765549317
 N,0,-1.2235620122,13.0904902092,-11.671892661
 C,0,0.0173902641,13.4598531157,-11.9877184985
 N,0,0.3193021068,13.9824416105,-13.1943284672
 N,0,0.9778077654,13.3262695273,-11.0617699622
 O,0,-0.2997621799,9.9773856058,-8.2733474496
 H,0,-3.2250016874,8.3518880877,-8.7343225143
 H,0,-1.7608409139,9.0886506324,-10.3129158263
 H,0,-3.2022863804,11.7709278297,-10.2496516955
 H,0,-3.9846164598,10.32103614,-10.8383569153
 H,0,-1.3897403585,10.4881191564,-12.1733553962
 H,0,-2.9913963505,10.4789362732,-12.889681073
 H,0,-1.8098165271,12.478687821,-13.605829397
 H,0,-3.1308159362,12.9831268268,-12.5427713591
 H,0,-1.2607864897,12.7045500558,-10.6987717404
 H,0,1.2743402912,14.0299303449,-13.5167406748
 H,0,-0.4099251875,14.2270507007,-13.8466663729
 H,0,1.8148972543,13.889578852,-11.0880401745
 H,0,0.7341548625,12.7985852493,-10.2135146251
 Recover connectivity data from disk.
                           ----------------------------
                           !    Current Parameters    !
                           ! (Angstroms and Degrees)  !
 --------------------------                            --------------------------
 ! Name  Definition              Value                                          !
 --------------------------------------------------------------------------------
 ! R1    R(1,2)                  1.496                                          !
 ! R2    R(1,12)                 1.0252                                         !
 ! R3    R(1,21)                 1.0282                                         !
 ! R4    R(1,22)                 1.0465                                         !
 ! R5    R(2,3)                  1.5492                                         !
 ! R6    R(2,5)                  1.5401                                         !
 ! R7    R(2,13)                 1.0947                                         !
 ! R8    R(3,4)                  1.2264                                         !
 ! R9    R(3,23)                 1.3538                                         !
 ! R10   R(5,6)                  1.5154                                         !
 ! R11   R(5,14)                 1.0966                                         !
 ! R12   R(5,15)                 1.0955                                         !
 ! R13   R(6,7)                  1.4014                                         !
 ! R14   R(6,8)                  1.4017                                         !
 ! R15   R(7,9)                  1.3951                                         !
 ! R16   R(7,16)                 1.088                                          !
 ! R17   R(8,10)                 1.3961                                         !
 ! R18   R(8,17)                 1.0867                                         !
 ! R19   R(9,11)                 1.3975                                         !
 ! R20   R(9,18)                 1.0862                                         !
 ! R21   R(10,11)                1.3957                                         !
 ! R22   R(10,19)                1.086                                          !
 ! R23   R(11,20)                1.0866                                         !
 ! R24   R(23,24)                1.4716                                         !
 ! R25   R(23,31)                1.0104                                         !
 ! R26   R(24,25)                1.5452                                         !
 ! R27   R(24,27)                1.5381                                         !
 ! R28   R(24,32)                1.0919                                         !
 ! R29   R(25,26)                1.2218                                         !
 ! R30   R(25,42)                1.3683                                         !
 ! R31   R(27,28)                1.5416                                         !
 ! R32   R(27,33)                1.0997                                         !
 ! R33   R(27,34)                1.1004                                         !
 ! R34   R(28,29)                1.5354                                         !
 ! R35   R(28,30)                1.5353                                         !
 ! R36   R(28,35)                1.0984                                         !
 ! R37   R(29,36)                1.0937                                         !
 ! R38   R(29,37)                1.0982                                         !
 ! R39   R(29,38)                1.0954                                         !
 ! R40   R(30,39)                1.0976                                         !
 ! R41   R(30,40)                1.0969                                         !
 ! R42   R(30,41)                1.0952                                         !
 ! R43   R(42,43)                1.4525                                         !
 ! R44   R(42,50)                1.0132                                         !
 ! R45   R(43,44)                1.5465                                         !
 ! R46   R(43,46)                1.5491                                         !
 ! R47   R(43,51)                1.0975                                         !
 ! R48   R(44,45)                1.2575                                         !
 ! R49   R(44,56)                1.326                                          !
 ! R50   R(46,47)                1.5263                                         !
 ! R51   R(46,52)                1.0933                                         !
 ! R52   R(46,53)                1.0974                                         !
 ! R53   R(47,48)                1.3521                                         !
 ! R54   R(47,49)                1.2347                                         !
 ! R55   R(48,54)                1.0118                                         !
 ! R56   R(48,55)                1.0091                                         !
 ! R57   R(56,57)                1.4694                                         !
 ! R58   R(56,68)                1.0288                                         !
 ! R59   R(57,58)                1.5716                                         !
 ! R60   R(57,60)                1.5413                                         !
 ! R61   R(57,69)                1.0952                                         !
 ! R62   R(58,59)                1.2885                                         !
 ! R63   R(58,67)                1.2349                                         !
 ! R64   R(60,61)                1.5548                                         !
 ! R65   R(60,70)                1.0957                                         !
 ! R66   R(60,71)                1.0945                                         !
 ! R67   R(61,62)                1.5368                                         !
 ! R68   R(61,72)                1.0978                                         !
 ! R69   R(61,73)                1.0955                                         !
 ! R70   R(62,63)                1.4699                                         !
 ! R71   R(62,74)                1.0949                                         !
 ! R72   R(62,75)                1.0954                                         !
 ! R73   R(63,64)                1.3327                                         !
 ! R74   R(63,76)                1.0475                                         !
 ! R75   R(64,65)                1.3491                                         !
 ! R76   R(64,66)                1.3408                                         !
 ! R77   R(65,77)                1.0091                                         !
 ! R78   R(65,78)                1.0085                                         !
 ! R79   R(66,79)                1.0093                                         !
 ! R80   R(66,80)                1.0283                                         !
 ! A1    A(2,1,12)             115.5547                                         !
 ! A2    A(2,1,21)             112.7721                                         !
 ! A3    A(2,1,22)             108.6223                                         !
 ! A4    A(12,1,21)            109.1218                                         !
 ! A5    A(12,1,22)            105.2899                                         !
 ! A6    A(21,1,22)            104.6425                                         !
 ! A7    A(1,2,3)              103.1055                                         !
 ! A8    A(1,2,5)              109.39                                           !
 ! A9    A(1,2,13)             107.5242                                         !
 ! A10   A(3,2,5)              116.9635                                         !
 ! A11   A(3,2,13)             108.6686                                         !
 ! A12   A(5,2,13)             110.5972                                         !
 ! A13   A(2,3,4)              118.2554                                         !
 ! A14   A(2,3,23)             118.5404                                         !
 ! A15   A(4,3,23)             123.0529                                         !
 ! A16   A(2,5,6)              112.5869                                         !
 ! A17   A(2,5,14)             107.9297                                         !
 ! A18   A(2,5,15)             108.5114                                         !
 ! A19   A(6,5,14)             109.9797                                         !
 ! A20   A(6,5,15)             109.6606                                         !
 ! A21   A(14,5,15)            108.0501                                         !
 ! A22   A(5,6,7)              120.872                                          !
 ! A23   A(5,6,8)              119.9481                                         !
 ! A24   A(7,6,8)              119.1416                                         !
 ! A25   A(6,7,9)              120.5152                                         !
 ! A26   A(6,7,16)             119.7422                                         !
 ! A27   A(9,7,16)             119.7376                                         !
 ! A28   A(6,8,10)             120.3364                                         !
 ! A29   A(6,8,17)             119.6148                                         !
 ! A30   A(10,8,17)            120.0392                                         !
 ! A31   A(7,9,11)             120.0087                                         !
 ! A32   A(7,9,18)             119.8087                                         !
 ! A33   A(11,9,18)            120.1795                                         !
 ! A34   A(8,10,11)            120.1703                                         !
 ! A35   A(8,10,19)            119.3834                                         !
 ! A36   A(11,10,19)           120.4436                                         !
 ! A37   A(9,11,10)            119.8259                                         !
 ! A38   A(9,11,20)            119.9355                                         !
 ! A39   A(10,11,20)           120.2359                                         !
 ! A40   A(3,23,24)            120.4535                                         !
 ! A41   A(3,23,31)            120.6919                                         !
 ! A42   A(24,23,31)           118.5014                                         !
 ! A43   A(23,24,25)           111.0477                                         !
 ! A44   A(23,24,27)           109.135                                          !
 ! A45   A(23,24,32)           108.6333                                         !
 ! A46   A(25,24,27)           112.2446                                         !
 ! A47   A(25,24,32)           104.8979                                         !
 ! A48   A(27,24,32)           110.7785                                         !
 ! A49   A(24,25,26)           121.4                                            !
 ! A50   A(24,25,42)           115.6102                                         !
 ! A51   A(26,25,42)           122.9638                                         !
 ! A52   A(24,27,28)           115.2898                                         !
 ! A53   A(24,27,33)           107.8843                                         !
 ! A54   A(24,27,34)           108.4815                                         !
 ! A55   A(28,27,33)           108.9497                                         !
 ! A56   A(28,27,34)           108.9013                                         !
 ! A57   A(33,27,34)           107.0287                                         !
 ! A58   A(27,28,29)           112.3015                                         !
 ! A59   A(27,28,30)           109.2648                                         !
 ! A60   A(27,28,35)           107.8766                                         !
 ! A61   A(29,28,30)           111.2475                                         !
 ! A62   A(29,28,35)           107.7956                                         !
 ! A63   A(30,28,35)           108.2054                                         !
 ! A64   A(28,29,36)           111.3684                                         !
 ! A65   A(28,29,37)           110.9947                                         !
 ! A66   A(28,29,38)           110.3499                                         !
 ! A67   A(36,29,37)           108.8922                                         !
 ! A68   A(36,29,38)           107.5549                                         !
 ! A69   A(37,29,38)           107.5393                                         !
 ! A70   A(28,30,39)           110.9102                                         !
 ! A71   A(28,30,40)           111.7449                                         !
 ! A72   A(28,30,41)           110.7289                                         !
 ! A73   A(39,30,40)           107.852                                          !
 ! A74   A(39,30,41)           107.584                                          !
 ! A75   A(40,30,41)           107.8541                                         !
 ! A76   A(25,42,43)           119.6695                                         !
 ! A77   A(25,42,50)           118.1674                                         !
 ! A78   A(43,42,50)           112.6973                                         !
 ! A79   A(42,43,44)           106.5507                                         !
 ! A80   A(42,43,46)           111.5146                                         !
 ! A81   A(42,43,51)           108.0456                                         !
 ! A82   A(44,43,46)           115.6605                                         !
 ! A83   A(44,43,51)           107.0077                                         !
 ! A84   A(46,43,51)           107.7555                                         !
 ! A85   A(43,44,45)           119.7132                                         !
 ! A86   A(43,44,56)           116.889                                          !
 ! A87   A(45,44,56)           123.3425                                         !
 ! A88   A(43,46,47)           113.1931                                         !
 ! A89   A(43,46,52)           106.6042                                         !
 ! A90   A(43,46,53)           110.8746                                         !
 ! A91   A(47,46,52)           110.2114                                         !
 ! A92   A(47,46,53)           108.5439                                         !
 ! A93   A(52,46,53)           107.2473                                         !
 ! A94   A(46,47,48)           115.83                                           !
 ! A95   A(46,47,49)           122.6547                                         !
 ! A96   A(48,47,49)           121.4989                                         !
 ! A97   A(47,48,54)           118.1041                                         !
 ! A98   A(47,48,55)           122.4869                                         !
 ! A99   A(54,48,55)           118.2327                                         !
 ! A100  A(44,56,57)           123.4303                                         !
 ! A101  A(44,56,68)           116.1351                                         !
 ! A102  A(57,56,68)           119.99                                           !
 ! A103  A(56,57,58)           108.4411                                         !
 ! A104  A(56,57,60)           111.5201                                         !
 ! A105  A(56,57,69)           104.6392                                         !
 ! A106  A(58,57,60)           116.5971                                         !
 ! A107  A(58,57,69)           105.7734                                         !
 ! A108  A(60,57,69)           109.0593                                         !
 ! A109  A(57,58,59)           118.2207                                         !
 ! A110  A(57,58,67)           116.2624                                         !
 ! A111  A(59,58,67)           125.4152                                         !
 ! A112  A(57,60,61)           113.8054                                         !
 ! A113  A(57,60,70)           108.2832                                         !
 ! A114  A(57,60,71)           107.66                                           !
 ! A115  A(61,60,70)           111.7519                                         !
 ! A116  A(61,60,71)           108.9477                                         !
 ! A117  A(70,60,71)           106.0293                                         !
 ! A118  A(60,61,62)           114.5544                                         !
 ! A119  A(60,61,72)           110.3068                                         !
 ! A120  A(60,61,73)           109.829                                          !
 ! A121  A(62,61,72)           107.6889                                         !
 ! A122  A(62,61,73)           107.8475                                         !
 ! A123  A(72,61,73)           106.2511                                         !
 ! A124  A(61,62,63)           109.0368                                         !
 ! A125  A(61,62,74)           110.2374                                         !
 ! A126  A(61,62,75)           110.8733                                         !
 ! A127  A(63,62,74)           109.9599                                         !
 ! A128  A(63,62,75)           108.9766                                         !
 ! A129  A(74,62,75)           107.7374                                         !
 ! A130  A(62,63,64)           125.7095                                         !
 ! A131  A(62,63,76)           112.6532                                         !
 ! A132  A(64,63,76)           110.8147                                         !
 ! A133  A(63,64,65)           121.8483                                         !
 ! A134  A(63,64,66)           118.4067                                         !
 ! A135  A(65,64,66)           119.7326                                         !
 ! A136  A(64,65,77)           121.0489                                         !
 ! A137  A(64,65,78)           120.7056                                         !
 ! A138  A(77,65,78)           117.7903                                         !
 ! A139  A(64,66,79)           121.3665                                         !
 ! A140  A(64,66,80)           116.8145                                         !
 ! A141  A(79,66,80)           120.2913                                         !
 ! D1    D(12,1,2,3)          -174.4629                                         !
 ! D2    D(12,1,2,5)            60.4037                                         !
 ! D3    D(12,1,2,13)          -59.7443                                         !
 ! D4    D(21,1,2,3)           -47.985                                          !
 ! D5    D(21,1,2,5)          -173.1183                                         !
 ! D6    D(21,1,2,13)           66.7336                                         !
 ! D7    D(22,1,2,3)            67.5308                                         !
 ! D8    D(22,1,2,5)           -57.6025                                         !
 ! D9    D(22,1,2,13)         -177.7506                                         !
 ! D10   D(1,2,3,4)             38.4291                                         !
 ! D11   D(1,2,3,23)          -137.2379                                         !
 ! D12   D(5,2,3,4)            158.4877                                         !
 ! D13   D(5,2,3,23)           -17.1794                                         !
 ! D14   D(13,2,3,4)           -75.4614                                         !
 ! D15   D(13,2,3,23)          108.8716                                         !
 ! D16   D(1,2,5,6)            -52.915                                          !
 ! D17   D(1,2,5,14)          -174.4865                                         !
 ! D18   D(1,2,5,15)            68.6564                                         !
 ! D19   D(3,2,5,6)           -169.5783                                         !
 ! D20   D(3,2,5,14)            68.8502                                         !
 ! D21   D(3,2,5,15)           -48.0069                                         !
 ! D22   D(13,2,5,6)            65.3328                                         !
 ! D23   D(13,2,5,14)          -56.2386                                         !
 ! D24   D(13,2,5,15)         -173.0958                                         !
 ! D25   D(2,3,23,24)          168.8419                                         !
 ! D26   D(2,3,23,31)           -4.2323                                         !
 ! D27   D(4,3,23,24)           -6.604                                          !
 ! D28   D(4,3,23,31)         -179.6783                                         !
 ! D29   D(2,5,6,7)            -83.6144                                         !
 ! D30   D(2,5,6,8)             94.1154                                         !
 ! D31   D(14,5,6,7)            36.7846                                         !
 ! D32   D(14,5,6,8)          -145.4856                                         !
 ! D33   D(15,5,6,7)           155.4696                                         !
 ! D34   D(15,5,6,8)           -26.8006                                         !
 ! D35   D(5,6,7,9)            178.1391                                         !
 ! D36   D(5,6,7,16)            -2.6781                                         !
 ! D37   D(8,6,7,9)              0.3912                                         !
 ! D38   D(8,6,7,16)           179.574                                          !
 ! D39   D(5,6,8,10)          -178.2369                                         !
 ! D40   D(5,6,8,17)             0.6371                                         !
 ! D41   D(7,6,8,10)            -0.4678                                         !
 ! D42   D(7,6,8,17)           178.4062                                         !
 ! D43   D(6,7,9,11)            -0.0347                                         !
 ! D44   D(6,7,9,18)           179.3319                                         !
 ! D45   D(16,7,9,11)         -179.2176                                         !
 ! D46   D(16,7,9,18)            0.1491                                         !
 ! D47   D(6,8,10,11)            0.1889                                         !
 ! D48   D(6,8,10,19)         -179.2128                                         !
 ! D49   D(17,8,10,11)        -178.6804                                         !
 ! D50   D(17,8,10,19)           1.9179                                         !
 ! D51   D(7,9,11,10)           -0.2493                                         !
 ! D52   D(7,9,11,20)          179.1613                                         !
 ! D53   D(18,9,11,10)        -179.6136                                         !
 ! D54   D(18,9,11,20)          -0.2029                                         !
 ! D55   D(8,10,11,9)            0.1725                                         !
 ! D56   D(8,10,11,20)        -179.2363                                         !
 ! D57   D(19,10,11,9)         179.5678                                         !
 ! D58   D(19,10,11,20)          0.159                                          !
 ! D59   D(3,23,24,25)         -54.4323                                         !
 ! D60   D(3,23,24,27)        -178.6865                                         !
 ! D61   D(3,23,24,32)          60.4319                                         !
 ! D62   D(31,23,24,25)        118.7914                                         !
 ! D63   D(31,23,24,27)         -5.4627                                         !
 ! D64   D(31,23,24,32)       -126.3443                                         !
 ! D65   D(23,24,25,26)        146.5393                                         !
 ! D66   D(23,24,25,42)        -35.2624                                         !
 ! D67   D(27,24,25,26)        -90.9905                                         !
 ! D68   D(27,24,25,42)         87.2078                                         !
 ! D69   D(32,24,25,26)         29.369                                          !
 ! D70   D(32,24,25,42)       -152.4327                                         !
 ! D71   D(23,24,27,28)        177.8369                                         !
 ! D72   D(23,24,27,33)        -60.1671                                         !
 ! D73   D(23,24,27,34)         55.4469                                         !
 ! D74   D(25,24,27,28)         54.2896                                         !
 ! D75   D(25,24,27,33)        176.2856                                         !
 ! D76   D(25,24,27,34)        -68.1004                                         !
 ! D77   D(32,24,27,28)        -62.6006                                         !
 ! D78   D(32,24,27,33)         59.3954                                         !
 ! D79   D(32,24,27,34)        175.0095                                         !
 ! D80   D(24,25,42,43)        155.3483                                         !
 ! D81   D(24,25,42,50)         11.3707                                         !
 ! D82   D(26,25,42,43)        -26.4847                                         !
 ! D83   D(26,25,42,50)       -170.4622                                         !
 ! D84   D(24,27,28,29)         56.1354                                         !
 ! D85   D(24,27,28,30)       -179.9274                                         !
 ! D86   D(24,27,28,35)        -62.5096                                         !
 ! D87   D(33,27,28,29)        -65.2864                                         !
 ! D88   D(33,27,28,30)         58.6509                                         !
 ! D89   D(33,27,28,35)        176.0687                                         !
 ! D90   D(34,27,28,29)        178.3005                                         !
 ! D91   D(34,27,28,30)        -57.7622                                         !
 ! D92   D(34,27,28,35)         59.6555                                         !
 ! D93   D(27,28,29,36)        -66.5543                                         !
 ! D94   D(27,28,29,37)         54.95                                           !
 ! D95   D(27,28,29,38)        174.0681                                         !
 ! D96   D(30,28,29,36)        170.619                                          !
 ! D97   D(30,28,29,37)        -67.8767                                         !
 ! D98   D(30,28,29,38)         51.2414                                         !
 ! D99   D(35,28,29,36)         52.1384                                         !
 ! D100  D(35,28,29,37)        173.6427                                         !
 ! D101  D(35,28,29,38)        -67.2392                                         !
 ! D102  D(27,28,30,39)        -64.1088                                         !
 ! D103  D(27,28,30,40)         56.2691                                         !
 ! D104  D(27,28,30,41)        176.5257                                         !
 ! D105  D(29,28,30,39)         60.4468                                         !
 ! D106  D(29,28,30,40)       -179.1752                                         !
 ! D107  D(29,28,30,41)        -58.9187                                         !
 ! D108  D(35,28,30,39)        178.6807                                         !
 ! D109  D(35,28,30,40)        -60.9413                                         !
 ! D110  D(35,28,30,41)         59.3153                                         !
 ! D111  D(25,42,43,44)       -138.1953                                         !
 ! D112  D(25,42,43,46)         94.7385                                         !
 ! D113  D(25,42,43,51)        -23.5027                                         !
 ! D114  D(50,42,43,44)          7.6121                                         !
 ! D115  D(50,42,43,46)       -119.4541                                         !
 ! D116  D(50,42,43,51)        122.3047                                         !
 ! D117  D(42,43,44,45)         -1.6116                                         !
 ! D118  D(42,43,44,56)        175.7751                                         !
 ! D119  D(46,43,44,45)        122.945                                          !
 ! D120  D(46,43,44,56)        -59.6684                                         !
 ! D121  D(51,43,44,45)       -117.0057                                         !
 ! D122  D(51,43,44,56)         60.381                                          !
 ! D123  D(42,43,46,47)       -153.1906                                         !
 ! D124  D(42,43,46,52)        -31.8598                                         !
 ! D125  D(42,43,46,53)         84.554                                          !
 ! D126  D(44,43,46,47)         84.8657                                         !
 ! D127  D(44,43,46,52)       -153.8034                                         !
 ! D128  D(44,43,46,53)        -37.3896                                         !
 ! D129  D(51,43,46,47)        -34.7756                                         !
 ! D130  D(51,43,46,52)         86.5552                                         !
 ! D131  D(51,43,46,53)       -157.0309                                         !
 ! D132  D(43,44,56,57)       -170.0109                                         !
 ! D133  D(43,44,56,68)          2.318                                          !
 ! D134  D(45,44,56,57)          7.2721                                         !
 ! D135  D(45,44,56,68)        179.601                                          !
 ! D136  D(43,46,47,48)        145.2565                                         !
 ! D137  D(43,46,47,49)        -36.203                                          !
 ! D138  D(52,46,47,48)         25.9803                                         !
 ! D139  D(52,46,47,49)       -155.4792                                         !
 ! D140  D(53,46,47,48)        -91.1974                                         !
 ! D141  D(53,46,47,49)         87.3431                                         !
 ! D142  D(46,47,48,54)       -177.9603                                         !
 ! D143  D(46,47,48,55)        -10.5838                                         !
 ! D144  D(49,47,48,54)          3.4808                                         !
 ! D145  D(49,47,48,55)        170.8573                                         !
 ! D146  D(44,56,57,58)         47.6016                                         !
 ! D147  D(44,56,57,60)        -82.1008                                         !
 ! D148  D(44,56,57,69)        160.1376                                         !
 ! D149  D(68,56,57,58)       -124.4452                                         !
 ! D150  D(68,56,57,60)        105.8524                                         !
 ! D151  D(68,56,57,69)        -11.9092                                         !
 ! D152  D(56,57,58,59)       -126.958                                          !
 ! D153  D(56,57,58,67)         49.5749                                         !
 ! D154  D(60,57,58,59)         -0.1306                                         !
 ! D155  D(60,57,58,67)        176.4023                                         !
 ! D156  D(69,57,58,59)        121.263                                          !
 ! D157  D(69,57,58,67)        -62.204                                          !
 ! D158  D(56,57,60,61)       -156.4962                                         !
 ! D159  D(56,57,60,70)         78.59                                           !
 ! D160  D(56,57,60,71)        -35.6387                                         !
 ! D161  D(58,57,60,61)         78.2141                                         !
 ! D162  D(58,57,60,70)        -46.6996                                         !
 ! D163  D(58,57,60,71)       -160.9283                                         !
 ! D164  D(69,57,60,61)        -41.4306                                         !
 ! D165  D(69,57,60,70)       -166.3443                                         !
 ! D166  D(69,57,60,71)         79.427                                          !
 ! D167  D(57,60,61,62)       -124.6003                                         !
 ! D168  D(57,60,61,72)         -2.9145                                         !
 ! D169  D(57,60,61,73)        113.87                                           !
 ! D170  D(70,60,61,62)         -1.5622                                         !
 ! D171  D(70,60,61,72)        120.1236                                         !
 ! D172  D(70,60,61,73)       -123.0919                                         !
 ! D173  D(71,60,61,62)        115.2653                                         !
 ! D174  D(71,60,61,72)       -123.0489                                         !
 ! D175  D(71,60,61,73)         -6.2644                                         !
 ! D176  D(60,61,62,63)         64.0559                                         !
 ! D177  D(60,61,62,74)       -175.1417                                         !
 ! D178  D(60,61,62,75)        -55.9265                                         !
 ! D179  D(72,61,62,63)        -59.0505                                         !
 ! D180  D(72,61,62,74)         61.7519                                         !
 ! D181  D(72,61,62,75)       -179.0329                                         !
 ! D182  D(73,61,62,63)       -173.3353                                         !
 ! D183  D(73,61,62,74)        -52.5329                                         !
 ! D184  D(73,61,62,75)         66.6822                                         !
 ! D185  D(61,62,63,64)        109.4898                                         !
 ! D186  D(61,62,63,76)        -31.2439                                         !
 ! D187  D(74,62,63,64)        -11.4824                                         !
 ! D188  D(74,62,63,76)       -152.2162                                         !
 ! D189  D(75,62,63,64)       -129.3635                                         !
 ! D190  D(75,62,63,76)         89.9027                                         !
 ! D191  D(62,63,64,65)         38.3638                                         !
 ! D192  D(62,63,64,66)       -142.9221                                         !
 ! D193  D(76,63,64,65)        179.6904                                         !
 ! D194  D(76,63,64,66)         -1.5955                                         !
 ! D195  D(63,64,65,77)       -163.5205                                         !
 ! D196  D(63,64,65,78)          8.5666                                         !
 ! D197  D(66,64,65,77)         17.7821                                         !
 ! D198  D(66,64,65,78)       -170.1308                                         !
 ! D199  D(63,64,66,79)       -155.8814                                         !
 ! D200  D(63,64,66,80)         10.0547                                         !
 ! D201  D(65,64,66,79)         22.8606                                         !
 ! D202  D(65,64,66,80)       -171.2033                                         !
 --------------------------------------------------------------------------------
 Symmetry turned off by external request.
 Stoichiometry    C25H41N8O6(1+)
 Framework group  C1[X(C25H41N8O6)]
 Deg. of freedom   234
 Full point group                 C1      NOp   1
                          Input orientation:                          
 ---------------------------------------------------------------------
 Center     Atomic      Atomic             Coordinates (Angstroms)
 Number     Number       Type             X           Y           Z
 ---------------------------------------------------------------------
      1          7           0       -0.685909   11.982242   -6.481770
      2          6           0       -1.091032   12.700474   -5.233513
      3          6           0       -1.721425   11.578225   -4.371368
      4          8           0       -1.201660   10.467592   -4.393711
      5          6           0       -1.996106   13.891505   -5.599764
      6          6           0       -1.371806   14.798315   -6.641156
      7          6           0       -0.463708   15.799516   -6.271343
      8          6           0       -1.664527   14.609934   -7.998977
      9          6           0        0.136012   16.604787   -7.239869
     10          6           0       -1.065513   15.416941   -8.968023
     11          6           0       -0.166615   16.415878   -8.591047
     12          1           0       -0.159690   12.540244   -7.162103
     13          1           0       -0.176850   13.048355   -4.741916
     14          1           0       -2.197121   14.457413   -4.682248
     15          1           0       -2.949170   13.501940   -5.973976
     16          1           0       -0.234653   15.958815   -5.219698
     17          1           0       -2.347633   13.818791   -8.296338
     18          1           0        0.829935   17.384556   -6.939573
     19          1           0       -1.313252   15.265980  -10.014557
     20          1           0        0.290758   17.052713   -9.343344
     21          1           0       -0.172885   11.111711   -6.291372
     22          1           0       -1.549981   11.675201   -6.986057
     23          7           0       -2.867285   11.843872   -3.701107
     24          6           0       -3.632881   10.755787   -3.072185
     25          6           0       -3.966816    9.648168   -4.096479
     26          8           0       -4.026290    8.473214   -3.766806
     27          6           0       -4.894580   11.341199   -2.415527
     28          6           0       -5.831996   10.310693   -1.755425
     29          6           0       -5.110635    9.457517   -0.702223
     30          6           0       -7.039417   11.039741   -1.148985
     31          1           0       -3.267178   12.771758   -3.710782
     32          1           0       -2.999577   10.268406   -2.328158
     33          1           0       -4.573437   12.069383   -1.656645
     34          1           0       -5.458407   11.898503   -3.178645
     35          1           0       -6.197733    9.635798   -2.541021
     36          1           0       -4.356185    8.812082   -1.160864
     37          1           0       -4.625453   10.091032    0.052267
     38          1           0       -5.825248    8.811503   -0.180743
     39          1           0       -6.725475   11.711444   -0.339707
     40          1           0       -7.569609   11.640589   -1.898087
     41          1           0       -7.752576   10.323781   -0.726807
     42          7           0       -4.224765   10.078198   -5.369614
     43          6           0       -4.020595    9.175110   -6.488760
     44          6           0       -3.353628   10.006192   -7.609464
     45          8           0       -3.132690   11.230978   -7.429760
     46          6           0       -5.332555    8.450854   -6.880992
     47          6           0       -5.096468    7.095715   -7.542394
     48          7           0       -6.009808    6.137937   -7.265514
     49          8           0       -4.150073    6.883097   -8.306380
     50          1           0       -4.013259   11.041633   -5.601075
     51          1           0       -3.295544    8.410883   -6.181027
     52          1           0       -5.908140    8.326419   -5.959840
     53          1           0       -5.933437    9.070156   -7.558975
     54          1           0       -5.869603    5.217155   -7.660686
     55          1           0       -6.708375    6.247101   -6.545590
     56          7           0       -2.994595    9.354148   -8.706879
     57          6           0       -2.166156    9.946604   -9.766031
     58          6           0       -0.930072   10.648852   -9.096085
     59          8           0       -0.696598   11.881497   -9.389679
     60          6           0       -3.008995   10.805012  -10.729469
     61          6           0       -2.371433   10.978131  -12.136911
     62          6           0       -2.181064   12.438368  -12.576555
     63          7           0       -1.223562   13.090490  -11.671893
     64          6           0        0.017390   13.459853  -11.987718
     65          7           0        0.319302   13.982442  -13.194328
     66          7           0        0.977808   13.326270  -11.061770
     67          8           0       -0.299762    9.977386   -8.273347
     68          1           0       -3.225002    8.351888   -8.734323
     69          1           0       -1.760841    9.088651  -10.312916
     70          1           0       -3.202286   11.770928  -10.249652
     71          1           0       -3.984616   10.321036  -10.838357
     72          1           0       -1.389740   10.488119  -12.173355
     73          1           0       -2.991396   10.478936  -12.889681
     74          1           0       -1.809817   12.478688  -13.605829
     75          1           0       -3.130816   12.983127  -12.542771
     76          1           0       -1.260786   12.704550  -10.698772
     77          1           0        1.274340   14.029930  -13.516741
     78          1           0       -0.409925   14.227051  -13.846666
     79          1           0        1.814897   13.889579  -11.088040
     80          1           0        0.734155   12.798585  -10.213515
 ---------------------------------------------------------------------
 Rotational constants (GHZ):           0.1289278           0.0622982           0.0463689
 Standard basis: 6-31G(d) (6D, 7F)
   667 basis functions,  1256 primitive gaussians,   667 cartesian basis functions
   147 alpha electrons      147 beta electrons
       nuclear repulsion energy      4924.8472223766 Hartrees.
 NAtoms=   80 NActive=   80 NUniq=   80 SFac= 1.00D+00 NAtFMM=   60 NAOKFM=T Big=T
 Integral buffers will be    131072 words long.
 Raffenetti 2 integral format.
 Two-electron integral symmetry is turned off.
 Nuclear repulsion after empirical dispersion term =     4924.7317178531 Hartrees.
 One-electron integrals computed using PRISM.
 NBasis=   667 RedAO= T EigKep=  4.54D-04  NBF=   667
 NBsUse=   667 1.00D-06 EigRej= -1.00D+00 NBFU=   667
 Initial guess from the checkpoint file:  "conf-883.chk"
 B after Tr=     0.000000    0.000000    0.000000
         Rot=    1.000000    0.000000    0.000000    0.000000 Ang=   0.00 deg.
 Requested convergence on RMS density matrix=1.00D-08 within 128 cycles.
 Requested convergence on MAX density matrix=1.00D-06.
 Requested convergence on             energy=1.00D-06.
 No special actions if energy rises.
 SCF Done:  E(RB3LYP) =  -1866.74844522     A.U. after    1 cycles
            NFock=  1  Conv=0.65D-08     -V/T= 2.0094

 **********************************************************************

            Population analysis using the SCF Density.

 **********************************************************************

 Alpha  occ. eigenvalues --  -19.22676 -19.22494 -19.21034 -19.19572 -19.19498
 Alpha  occ. eigenvalues --  -19.17417 -14.52256 -14.50090 -14.48195 -14.47221
 Alpha  occ. eigenvalues --  -14.47161 -14.44811 -14.44740 -14.43460 -10.45193
 Alpha  occ. eigenvalues --  -10.40007 -10.38963 -10.38545 -10.36596 -10.36463
 Alpha  occ. eigenvalues --  -10.36446 -10.33791 -10.32765 -10.32066 -10.31559
 Alpha  occ. eigenvalues --  -10.31180 -10.29778 -10.29098 -10.29056 -10.28604
 Alpha  occ. eigenvalues --  -10.28421 -10.28375 -10.28346 -10.28316 -10.27947
 Alpha  occ. eigenvalues --  -10.27422 -10.25925 -10.23659 -10.22937  -1.15166
 Alpha  occ. eigenvalues --   -1.14050  -1.13777  -1.12591  -1.11724  -1.11314
 Alpha  occ. eigenvalues --   -1.07934  -1.03622  -1.03441  -1.02488  -1.01828
 Alpha  occ. eigenvalues --   -1.01543  -1.00435  -0.99485  -0.95359  -0.90380
 Alpha  occ. eigenvalues --   -0.89528  -0.88630  -0.86985  -0.84440  -0.83869
 Alpha  occ. eigenvalues --   -0.83707  -0.81837  -0.78424  -0.76765  -0.76490
 Alpha  occ. eigenvalues --   -0.75319  -0.74378  -0.72954  -0.70700  -0.70613
 Alpha  occ. eigenvalues --   -0.70396  -0.69926  -0.68822  -0.68234  -0.67589
 Alpha  occ. eigenvalues --   -0.67463  -0.67223  -0.66052  -0.65649  -0.64127
 Alpha  occ. eigenvalues --   -0.63012  -0.62873  -0.62555  -0.62473  -0.61612
 Alpha  occ. eigenvalues --   -0.60496  -0.60159  -0.59152  -0.58709  -0.58089
 Alpha  occ. eigenvalues --   -0.56939  -0.56605  -0.56131  -0.55585  -0.55299
 Alpha  occ. eigenvalues --   -0.54953  -0.54345  -0.53627  -0.53426  -0.53002
 Alpha  occ. eigenvalues --   -0.52648  -0.52274  -0.51774  -0.51438  -0.51180
 Alpha  occ. eigenvalues --   -0.51000  -0.50307  -0.50181  -0.50024  -0.49721
 Alpha  occ. eigenvalues --   -0.49506  -0.49054  -0.48437  -0.48229  -0.47632
 Alpha  occ. eigenvalues --   -0.47463  -0.46837  -0.46290  -0.45736  -0.45322
 Alpha  occ. eigenvalues --   -0.45144  -0.44691  -0.44398  -0.44321  -0.43987
 Alpha  occ. eigenvalues --   -0.43858  -0.43615  -0.43459  -0.42752  -0.40579
 Alpha  occ. eigenvalues --   -0.39911  -0.39312  -0.39084  -0.37865  -0.37450
 Alpha  occ. eigenvalues --   -0.36950  -0.36660  -0.36483  -0.35909  -0.34985
 Alpha  occ. eigenvalues --   -0.34751  -0.34197  -0.34153  -0.33855  -0.33292
 Alpha  occ. eigenvalues --   -0.32514  -0.31569
 Alpha virt. eigenvalues --   -0.10295  -0.10146  -0.09725  -0.09368  -0.08532
 Alpha virt. eigenvalues --   -0.06648  -0.05844  -0.05771  -0.04484  -0.02769
 Alpha virt. eigenvalues --   -0.01989  -0.01114  -0.00422  -0.00346   0.00303
 Alpha virt. eigenvalues --    0.00626   0.00976   0.01704   0.02116   0.02340
 Alpha virt. eigenvalues --    0.02828   0.03025   0.03223   0.03647   0.04538
 Alpha virt. eigenvalues --    0.04670   0.05123   0.05265   0.05575   0.05755
 Alpha virt. eigenvalues --    0.06213   0.06596   0.06710   0.07015   0.07545
 Alpha virt. eigenvalues --    0.07710   0.08149   0.08345   0.08794   0.08867
 Alpha virt. eigenvalues --    0.09510   0.09703   0.10038   0.10586   0.10759
 Alpha virt. eigenvalues --    0.11002   0.11303   0.11584   0.12048   0.12420
 Alpha virt. eigenvalues --    0.12809   0.13170   0.13406   0.13868   0.14338
 Alpha virt. eigenvalues --    0.14623   0.15316   0.15541   0.16047   0.16554
 Alpha virt. eigenvalues --    0.16739   0.17123   0.18028   0.18287   0.18643
 Alpha virt. eigenvalues --    0.18939   0.19075   0.19799   0.20307   0.21099
 Alpha virt. eigenvalues --    0.22323   0.22841   0.23895   0.24511   0.25016
 Alpha virt. eigenvalues --    0.25106   0.26578   0.26887   0.27598   0.27989
 Alpha virt. eigenvalues --    0.29135   0.29464   0.31654   0.31807   0.34071
 Alpha virt. eigenvalues --    0.34491   0.35614   0.36051   0.39329   0.39835
 Alpha virt. eigenvalues --    0.40241   0.41168   0.41284   0.42363   0.42552
 Alpha virt. eigenvalues --    0.42981   0.43346   0.43779   0.44247   0.44378
 Alpha virt. eigenvalues --    0.45053   0.45137   0.45466   0.45906   0.46254
 Alpha virt. eigenvalues --    0.46344   0.46445   0.47217   0.47496   0.47737
 Alpha virt. eigenvalues --    0.48535   0.49315   0.49544   0.49858   0.50310
 Alpha virt. eigenvalues --    0.50590   0.50857   0.51243   0.51511   0.51758
 Alpha virt. eigenvalues --    0.52152   0.52532   0.52765   0.53192   0.53518
 Alpha virt. eigenvalues --    0.53858   0.54020   0.54802   0.55259   0.55726
 Alpha virt. eigenvalues --    0.56169   0.56650   0.56848   0.57204   0.57507
 Alpha virt. eigenvalues --    0.57887   0.58157   0.58758   0.59068   0.59599
 Alpha virt. eigenvalues --    0.60323   0.61095   0.61471   0.61785   0.62518
 Alpha virt. eigenvalues --    0.62624   0.63230   0.63558   0.64456   0.65041
 Alpha virt. eigenvalues --    0.65502   0.65744   0.65906   0.67007   0.67602
 Alpha virt. eigenvalues --    0.68387   0.69265   0.70101   0.70176   0.70554
 Alpha virt. eigenvalues --    0.71025   0.71357   0.71433   0.72185   0.72447
 Alpha virt. eigenvalues --    0.72799   0.73891   0.73934   0.74435   0.74614
 Alpha virt. eigenvalues --    0.75038   0.75093   0.75668   0.75890   0.76801
 Alpha virt. eigenvalues --    0.76907   0.77269   0.77455   0.77863   0.78234
 Alpha virt. eigenvalues --    0.78449   0.78511   0.79074   0.79379   0.79606
 Alpha virt. eigenvalues --    0.79883   0.80129   0.80432   0.81010   0.81225
 Alpha virt. eigenvalues --    0.82085   0.82386   0.83259   0.83416   0.83914
 Alpha virt. eigenvalues --    0.84213   0.84500   0.84686   0.85134   0.85380
 Alpha virt. eigenvalues --    0.86015   0.86210   0.86903   0.87277   0.87582
 Alpha virt. eigenvalues --    0.88187   0.88919   0.89359   0.89758   0.90061
 Alpha virt. eigenvalues --    0.90850   0.91024   0.92159   0.92272   0.92567
 Alpha virt. eigenvalues --    0.93163   0.93478   0.93652   0.94577   0.95659
 Alpha virt. eigenvalues --    0.96046   0.96810   0.97570   0.98968   0.99040
 Alpha virt. eigenvalues --    0.99707   1.00985   1.01587   1.02146   1.02867
 Alpha virt. eigenvalues --    1.04705   1.05156   1.05613   1.06013   1.06617
 Alpha virt. eigenvalues --    1.07071   1.08275   1.08860   1.08901   1.09682
 Alpha virt. eigenvalues --    1.10450   1.11643   1.12206   1.12863   1.14418
 Alpha virt. eigenvalues --    1.15186   1.15661   1.16124   1.16494   1.16938
 Alpha virt. eigenvalues --    1.17482   1.18409   1.19929   1.20501   1.21254
 Alpha virt. eigenvalues --    1.22170   1.22595   1.23473   1.23699   1.25166
 Alpha virt. eigenvalues --    1.25464   1.26797   1.27575   1.27971   1.28673
 Alpha virt. eigenvalues --    1.30622   1.31822   1.32975   1.33754   1.33871
 Alpha virt. eigenvalues --    1.34718   1.35096   1.35678   1.36261   1.37199
 Alpha virt. eigenvalues --    1.38098   1.38380   1.38931   1.39645   1.40030
 Alpha virt. eigenvalues --    1.40588   1.40905   1.41163   1.42146   1.42910
 Alpha virt. eigenvalues --    1.43378   1.44571   1.45526   1.46708   1.47803
 Alpha virt. eigenvalues --    1.48402   1.48969   1.49651   1.51228   1.51851
 Alpha virt. eigenvalues --    1.53068   1.54987   1.55781   1.57802   1.58015
 Alpha virt. eigenvalues --    1.59179   1.59744   1.60445   1.60799   1.61184
 Alpha virt. eigenvalues --    1.62772   1.63078   1.63738   1.64615   1.65980
 Alpha virt. eigenvalues --    1.66461   1.67377   1.67679   1.68046   1.68878
 Alpha virt. eigenvalues --    1.69100   1.69829   1.70514   1.71019   1.71542
 Alpha virt. eigenvalues --    1.71707   1.72880   1.73049   1.73139   1.73585
 Alpha virt. eigenvalues --    1.74187   1.74800   1.75641   1.76352   1.76534
 Alpha virt. eigenvalues --    1.77326   1.77430   1.78427   1.78888   1.79961
 Alpha virt. eigenvalues --    1.80329   1.80591   1.80932   1.81416   1.81609
 Alpha virt. eigenvalues --    1.83074   1.83393   1.83582   1.84141   1.84698
 Alpha virt. eigenvalues --    1.85575   1.86303   1.86989   1.87307   1.87855
 Alpha virt. eigenvalues --    1.88291   1.88422   1.89444   1.90149   1.91255
 Alpha virt. eigenvalues --    1.91417   1.92112   1.92825   1.93148   1.93533
 Alpha virt. eigenvalues --    1.93853   1.94905   1.95896   1.96386   1.96910
 Alpha virt. eigenvalues --    1.97095   1.97336   1.98547   1.98672   1.99483
 Alpha virt. eigenvalues --    2.01034   2.01894   2.02378   2.03475   2.04151
 Alpha virt. eigenvalues --    2.04472   2.05153   2.05268   2.05756   2.06088
 Alpha virt. eigenvalues --    2.06759   2.07138   2.08194   2.08877   2.09979
 Alpha virt. eigenvalues --    2.10818   2.11962   2.12392   2.12813   2.14733
 Alpha virt. eigenvalues --    2.15147   2.15638   2.16051   2.16091   2.18529
 Alpha virt. eigenvalues --    2.18920   2.19613   2.19985   2.21396   2.21757
 Alpha virt. eigenvalues --    2.21813   2.22936   2.23676   2.24463   2.26345
 Alpha virt. eigenvalues --    2.26805   2.27376   2.28285   2.29071   2.30528
 Alpha virt. eigenvalues --    2.31844   2.32487   2.32744   2.34317   2.35044
 Alpha virt. eigenvalues --    2.35779   2.37315   2.38178   2.38604   2.39215
 Alpha virt. eigenvalues --    2.40470   2.40921   2.42321   2.42554   2.44223
 Alpha virt. eigenvalues --    2.44745   2.45211   2.45530   2.46073   2.47393
 Alpha virt. eigenvalues --    2.48085   2.48719   2.49482   2.49781   2.50771
 Alpha virt. eigenvalues --    2.51204   2.52702   2.53269   2.53949   2.54315
 Alpha virt. eigenvalues --    2.56131   2.56599   2.57379   2.57910   2.59426
 Alpha virt. eigenvalues --    2.60548   2.62219   2.63276   2.63658   2.64103
 Alpha virt. eigenvalues --    2.64604   2.65616   2.65907   2.66017   2.66268
 Alpha virt. eigenvalues --    2.68089   2.68550   2.70034   2.74403   2.75544
 Alpha virt. eigenvalues --    2.77091   2.78833   2.80011   2.83833   2.86979
 Alpha virt. eigenvalues --    2.88590   2.89913   2.91257   2.93187   2.93458
 Alpha virt. eigenvalues --    2.95076   2.95369   2.95764   2.96294   2.97112
 Alpha virt. eigenvalues --    2.98645   3.05234   3.07617   3.09307   3.12451
 Alpha virt. eigenvalues --    3.31565   3.67677   3.72369   3.76255   3.87672
 Alpha virt. eigenvalues --    3.89090   3.93397   3.96184   3.97192   3.99298
 Alpha virt. eigenvalues --    4.00537   4.02391   4.03652   4.04643   4.06212
 Alpha virt. eigenvalues --    4.08194   4.10699   4.11223   4.14972   4.16111
 Alpha virt. eigenvalues --    4.20624   4.22169   4.22492   4.24219   4.25371
 Alpha virt. eigenvalues --    4.26398   4.29224   4.33098   4.33529   4.37570
 Alpha virt. eigenvalues --    4.39386   4.41726   4.45207   4.52512   4.53769
 Alpha virt. eigenvalues --    4.55754   4.58314   4.59911   4.62243   4.66064
          Condensed to atoms (all electrons):
 Mulliken charges:
               1
     1  N   -0.787561
     2  C   -0.082984
     3  C    0.632588
     4  O   -0.503811
     5  C   -0.403448
     6  C    0.126646
     7  C   -0.179560
     8  C   -0.191885
     9  C   -0.127760
    10  C   -0.138679
    11  C   -0.134163
    12  H    0.400338
    13  H    0.211272
    14  H    0.174990
    15  H    0.190050
    16  H    0.140229
    17  H    0.165296
    18  H    0.155057
    19  H    0.139696
    20  H    0.141740
    21  H    0.425158
    22  H    0.474115
    23  N   -0.654350
    24  C   -0.014667
    25  C    0.622522
    26  O   -0.513758
    27  C   -0.307295
    28  C   -0.076194
    29  C   -0.462316
    30  C   -0.445894
    31  H    0.348206
    32  H    0.207511
    33  H    0.152486
    34  H    0.134858
    35  H    0.143262
    36  H    0.178093
    37  H    0.138189
    38  H    0.154672
    39  H    0.146903
    40  H    0.139603
    41  H    0.157859
    42  N   -0.618417
    43  C   -0.049034
    44  C    0.613300
    45  O   -0.621546
    46  C   -0.373786
    47  C    0.631748
    48  N   -0.735132
    49  O   -0.530523
    50  H    0.344000
    51  H    0.222335
    52  H    0.189557
    53  H    0.187667
    54  H    0.362546
    55  H    0.357549
    56  N   -0.597645
    57  C   -0.039305
    58  C    0.582400
    59  O   -0.658523
    60  C   -0.286222
    61  C   -0.284029
    62  C   -0.171254
    63  N   -0.618361
    64  C    0.763887
    65  N   -0.753465
    66  N   -0.770305
    67  O   -0.549294
    68  H    0.407155
    69  H    0.174243
    70  H    0.167219
    71  H    0.160384
    72  H    0.160261
    73  H    0.170598
    74  H    0.155304
    75  H    0.182257
    76  H    0.430406
    77  H    0.374174
    78  H    0.377325
    79  H    0.358619
    80  H    0.406890
 Sum of Mulliken charges =   1.00000
 Mulliken charges with hydrogens summed into heavy atoms:
               1
     1  N    0.512051
     2  C    0.128288
     3  C    0.632588
     4  O   -0.503811
     5  C   -0.038408
     6  C    0.126646
     7  C   -0.039331
     8  C   -0.026589
     9  C    0.027297
    10  C    0.001017
    11  C    0.007577
    23  N   -0.306143
    24  C    0.192844
    25  C    0.622522
    26  O   -0.513758
    27  C   -0.019951
    28  C    0.067068
    29  C    0.008639
    30  C   -0.001529
    42  N   -0.274417
    43  C    0.173301
    44  C    0.613300
    45  O   -0.621546
    46  C    0.003438
    47  C    0.631748
    48  N   -0.015037
    49  O   -0.530523
    56  N   -0.190490
    57  C    0.134938
    58  C    0.582400
    59  O   -0.658523
    60  C    0.041382
    61  C    0.046830
    62  C    0.166307
    63  N   -0.187955
    64  C    0.763887
    65  N   -0.001966
    66  N   -0.004796
    67  O   -0.549294
 Electronic spatial extent (au):  <R**2>=         219128.1660
 Charge=              1.0000 electrons
 Dipole moment (field-independent basis, Debye):
    X=            -10.3636    Y=             63.1252    Z=            -44.7804  Tot=             78.0863
 Quadrupole moment (field-independent basis, Debye-Ang):
   XX=           -151.0099   YY=            630.0372   ZZ=            279.5868
   XY=            -80.8450   XZ=             57.0126   YZ=           -589.4479
 Traceless Quadrupole moment (field-independent basis, Debye-Ang):
   XX=           -403.8812   YY=            377.1658   ZZ=             26.7154
   XY=            -80.8450   XZ=             57.0126   YZ=           -589.4479
 Octapole moment (field-independent basis, Debye-Ang**2):
  XXX=           1344.3673  YYY=           3973.4378  ZZZ=          -1438.3173  XYY=            -52.3710
  XXY=          -1957.6508  XXZ=           1114.9663  XZZ=            206.4113  YZZ=           4139.9400
  YYZ=          -6399.4316  XYZ=            339.9692
 Hexadecapole moment (field-independent basis, Debye-Ang**3):
 XXXX=         -12438.8929 YYYY=         -24715.9888 ZZZZ=          -2631.6475 XXXY=          14695.4992
 XXXZ=          -7378.4455 YYYX=          13322.8828 YYYZ=         -53649.6492 ZZZX=          -6881.3160
 ZZZY=         -27628.0743 XXYY=         -27641.5479 XXZZ=         -12534.1200 YYZZ=          46556.0803
 XXYZ=          14691.0692 YYXZ=          -1993.3631 ZZXY=           4095.4888
 N-N= 4.924731717853D+03 E-N=-1.416965815817D+04  KE= 1.849286039109D+03
 Unable to Open any file for archive entry.
 1\1\GINC-LAC-261\SP\RB3LYP\6-31G(d)\C25H41N8O6(1+)\KENGMITH\11-Jun-202
 2\0\\# B3LYP/6-31G* empiricaldispersion=gd3 guess=read geom=check nosy
 mm integral(ultrafinegrid)\\Candidate Structure: Conf:883 Charge calc 
 in gas phase\\1,1\N,0,-0.6859086415,11.9822424861,-6.4817695713\C,0,-1
 .0910324837,12.7004742788,-5.2335125508\C,0,-1.7214245116,11.578224862
 9,-4.3713679034\O,0,-1.2016595906,10.4675915952,-4.3937112783\C,0,-1.9
 96105823,13.8915051449,-5.59976398\C,0,-1.3718060116,14.7983152946,-6.
 6411562862\C,0,-0.4637083015,15.7995156875,-6.2713425979\C,0,-1.664527
 4739,14.6099335113,-7.9989766124\C,0,0.1360124856,16.6047870168,-7.239
 8689991\C,0,-1.0655127662,15.416940909,-8.9680230567\C,0,-0.1666148892
 ,16.4158782486,-8.5910466327\H,0,-0.1596903326,12.540244108,-7.1621031
 749\H,0,-0.1768503741,13.0483546499,-4.741916273\H,0,-2.1971206536,14.
 457412703,-4.6822476605\H,0,-2.9491700806,13.5019400362,-5.9739756773\
 H,0,-0.2346529302,15.9588151339,-5.2196982557\H,0,-2.3476327477,13.818
 7910297,-8.2963381572\H,0,0.8299350536,17.3845558991,-6.9395725354\H,0
 ,-1.3132522609,15.2659804807,-10.0145574415\H,0,0.2907575382,17.052713
 0107,-9.3433439031\H,0,-0.1728853277,11.1117114281,-6.2913723579\H,0,-
 1.5499808888,11.6752014808,-6.9860571974\N,0,-2.8672847806,11.84387182
 03,-3.7011065286\C,0,-3.6328812489,10.7557872399,-3.0721854894\C,0,-3.
 9668163763,9.6481683921,-4.0964791807\O,0,-4.0262903086,8.4732141235,-
 3.7668063536\C,0,-4.8945796422,11.3411994481,-2.4155267009\C,0,-5.8319
 95545,10.3106925812,-1.7554247795\C,0,-5.1106348856,9.457516824,-0.702
 2228946\C,0,-7.0394166154,11.039741092,-1.1489849447\H,0,-3.2671776407
 ,12.7717579979,-3.7107817958\H,0,-2.9995767394,10.2684059781,-2.328158
 0383\H,0,-4.573437346,12.0693826079,-1.6566452411\H,0,-5.4584067954,11
 .89850271,-3.1786450759\H,0,-6.197733283,9.6357978433,-2.5410205643\H,
 0,-4.3561854524,8.8120815204,-1.1608643963\H,0,-4.6254530897,10.091032
 0493,0.052267052\H,0,-5.8252476176,8.8115025023,-0.1807429723\H,0,-6.7
 254748159,11.7114442745,-0.3397073234\H,0,-7.5696085558,11.6405893193,
 -1.8980872186\H,0,-7.7525759302,10.3237807662,-0.726807334\N,0,-4.2247
 652548,10.0781976737,-5.3696144105\C,0,-4.0205948083,9.1751098945,-6.4
 887599388\C,0,-3.3536279925,10.0061920393,-7.6094637243\O,0,-3.1326902
 661,11.2309781671,-7.4297601935\C,0,-5.3325545155,8.450854013,-6.88099
 23333\C,0,-5.0964676119,7.0957149908,-7.5423936861\N,0,-6.0098082141,6
 .1379369467,-7.2655142497\O,0,-4.1500725682,6.8830968207,-8.3063799531
 \H,0,-4.0132591633,11.0416332017,-5.6010747998\H,0,-3.2955437842,8.410
 8825728,-6.1810270562\H,0,-5.9081397302,8.3264185957,-5.95984016\H,0,-
 5.9334369869,9.070155961,-7.5589746579\H,0,-5.8696026854,5.2171551414,
 -7.6606862981\H,0,-6.7083751881,6.2471014001,-6.5455897539\N,0,-2.9945
 948033,9.3541480569,-8.7068786516\C,0,-2.1661559968,9.946604281,-9.766
 0314956\C,0,-0.9300720302,10.6488522265,-9.0960845005\O,0,-0.696597745
 8,11.8814967977,-9.3896792942\C,0,-3.0089953663,10.8050116013,-10.7294
 688614\C,0,-2.371432816,10.9781314869,-12.1369109741\C,0,-2.1810637131
 ,12.4383678768,-12.5765549317\N,0,-1.2235620122,13.0904902092,-11.6718
 92661\C,0,0.0173902641,13.4598531157,-11.9877184985\N,0,0.3193021068,1
 3.9824416105,-13.1943284672\N,0,0.9778077654,13.3262695273,-11.0617699
 622\O,0,-0.2997621799,9.9773856058,-8.2733474496\H,0,-3.2250016874,8.3
 518880877,-8.7343225143\H,0,-1.7608409139,9.0886506324,-10.3129158263\
 H,0,-3.2022863804,11.7709278297,-10.2496516955\H,0,-3.9846164598,10.32
 103614,-10.8383569153\H,0,-1.3897403585,10.4881191564,-12.1733553962\H
 ,0,-2.9913963505,10.4789362732,-12.889681073\H,0,-1.8098165271,12.4786
 87821,-13.605829397\H,0,-3.1308159362,12.9831268268,-12.5427713591\H,0
 ,-1.2607864897,12.7045500558,-10.6987717404\H,0,1.2743402912,14.029930
 3449,-13.5167406748\H,0,-0.4099251875,14.2270507007,-13.8466663729\H,0
 ,1.8148972543,13.889578852,-11.0880401745\H,0,0.7341548625,12.79858524
 93,-10.2135146251\\Version=ES64L-G16RevC.01\HF=-1866.7484452\RMSD=6.47
 4e-09\Dipole=0.7614187,3.3123833,-4.1547233\Quadrupole=-300.2758047,28
 0.4135418,19.862263,-60.1062435,42.3874424,-438.2400705\PG=C01 [X(C25H
 41N8O6)]\\@
 The archive entry for this job was punched.


 IF I HAVE SEEN FARTHER, IT IS BY STANDING ON THE
 SHOULDERS OF GIANTS. -- SIR ISAAC NEWTON
 Job cpu time:       0 days  0 hours  2 minutes 18.8 seconds.
 Elapsed time:       0 days  0 hours  0 minutes 35.3 seconds.
 File lengths (MBytes):  RWF=    344 Int=      0 D2E=      0 Chk=     48 Scr=     16
 Normal termination of Gaussian 16 at Sat Jun 11 20:55:59 2022.
