 Entering Gaussian System, Link 0=/opt/software/Gaussian/g16-AVX-C.01/g16/g16
 Input=charge-conf-472.com
 Output=charge-conf-472.log
 Initial command:
 /opt/software/Gaussian/g16-AVX-C.01/g16/l1.exe "/mnt/gs18/scratch/users/kengmith/Gau-6691.inp" -scrdir="/mnt/gs18/scratch/users/kengmith/"
 Entering Link 1 = /opt/software/Gaussian/g16-AVX-C.01/g16/l1.exe PID=      6702.
  
 Copyright (c) 1988-2019, Gaussian, Inc.  All Rights Reserved.
  
 This is part of the Gaussian(R) 16 program.  It is based on
 the Gaussian(R) 09 system (copyright 2009, Gaussian, Inc.),
 the Gaussian(R) 03 system (copyright 2003, Gaussian, Inc.),
 the Gaussian(R) 98 system (copyright 1998, Gaussian, Inc.),
 the Gaussian(R) 94 system (copyright 1995, Gaussian, Inc.),
 the Gaussian 92(TM) system (copyright 1992, Gaussian, Inc.),
 the Gaussian 90(TM) system (copyright 1990, Gaussian, Inc.),
 the Gaussian 88(TM) system (copyright 1988, Gaussian, Inc.),
 the Gaussian 86(TM) system (copyright 1986, Carnegie Mellon
 University), and the Gaussian 82(TM) system (copyright 1983,
 Carnegie Mellon University). Gaussian is a federally registered
 trademark of Gaussian, Inc.
  
 This software contains proprietary and confidential information,
 including trade secrets, belonging to Gaussian, Inc.
  
 This software is provided under written license and may be
 used, copied, transmitted, or stored only in accord with that
 written license.
  
 The following legend is applicable only to US Government
 contracts under FAR:
  
                    RESTRICTED RIGHTS LEGEND
  
 Use, reproduction and disclosure by the US Government is
 subject to restrictions as set forth in subparagraphs (a)
 and (c) of the Commercial Computer Software - Restricted
 Rights clause in FAR 52.227-19.
  
 Gaussian, Inc.
 340 Quinnipiac St., Bldg. 40, Wallingford CT 06492
  
  
 ---------------------------------------------------------------
 Warning -- This program may not be used in any manner that
 competes with the business of Gaussian, Inc. or will provide
 assistance to any competitor of Gaussian, Inc.  The licensee
 of this program is prohibited from giving any competitor of
 Gaussian, Inc. access to this program.  By using this program,
 the user acknowledges that Gaussian, Inc. is engaged in the
 business of creating and licensing software in the field of
 computational chemistry and represents and warrants to the
 licensee that it is not a competitor of Gaussian, Inc. and that
 it will not use this program in any manner prohibited above.
 ---------------------------------------------------------------
  

 Cite this work as:
 Gaussian 16, Revision C.01,
 M. J. Frisch, G. W. Trucks, H. B. Schlegel, G. E. Scuseria, 
 M. A. Robb, J. R. Cheeseman, G. Scalmani, V. Barone, 
 G. A. Petersson, H. Nakatsuji, X. Li, M. Caricato, A. V. Marenich, 
 J. Bloino, B. G. Janesko, R. Gomperts, B. Mennucci, H. P. Hratchian, 
 J. V. Ortiz, A. F. Izmaylov, J. L. Sonnenberg, D. Williams-Young, 
 F. Ding, F. Lipparini, F. Egidi, J. Goings, B. Peng, A. Petrone, 
 T. Henderson, D. Ranasinghe, V. G. Zakrzewski, J. Gao, N. Rega, 
 G. Zheng, W. Liang, M. Hada, M. Ehara, K. Toyota, R. Fukuda, 
 J. Hasegawa, M. Ishida, T. Nakajima, Y. Honda, O. Kitao, H. Nakai, 
 T. Vreven, K. Throssell, J. A. Montgomery, Jr., J. E. Peralta, 
 F. Ogliaro, M. J. Bearpark, J. J. Heyd, E. N. Brothers, K. N. Kudin, 
 V. N. Staroverov, T. A. Keith, R. Kobayashi, J. Normand, 
 K. Raghavachari, A. P. Rendell, J. C. Burant, S. S. Iyengar, 
 J. Tomasi, M. Cossi, J. M. Millam, M. Klene, C. Adamo, R. Cammi, 
 J. W. Ochterski, R. L. Martin, K. Morokuma, O. Farkas, 
 J. B. Foresman, and D. J. Fox, Gaussian, Inc., Wallingford CT, 2019.
 
 ******************************************
 Gaussian 16:  ES64L-G16RevC.01  3-Jul-2019
                11-Jun-2022 
 ******************************************
 %mem=8gb
 %nproc=4
 Will use up to    4 processors via shared memory.
 %chk=conf-472.chk
 ----------------------------------------------------------------------
 # B3LYP/6-31G* empiricaldispersion=gd3 guess=read geom=check nosymm in
 tegral(ultrafinegrid)
 ----------------------------------------------------------------------
 1/29=2,38=1,172=1/1;
 2/12=2,15=1,40=1/2;
 3/5=1,6=6,7=1,11=2,14=-4,25=1,30=1,74=-5,75=-5,116=-2,124=31/1,2,3;
 4/5=1/1;
 5/5=2,38=6/2;
 6/7=2,8=2,9=2,10=2,28=1/1;
 99/5=1,9=1/99;
 ------------------------------------------------------
 Candidate Structure: Conf:472 Charge calc in gas phase
 ------------------------------------------------------
 Structure from the checkpoint file:  "conf-472.chk"
 Charge =  1 Multiplicity = 1
 Redundant internal coordinates found in file.  (old form).
 N,0,-2.9310172734,9.3380525498,-6.8664754418
 C,0,-3.5311831737,8.9184256786,-8.1709107711
 C,0,-2.562692369,9.512874319,-9.2216550014
 O,0,-1.3650438822,9.5561325758,-8.9591435464
 C,0,-4.9983415479,9.3866267573,-8.2300674655
 C,0,-5.8096320062,8.8898998444,-7.0502949894
 C,0,-6.4557345042,7.6477378471,-7.1012550774
 C,0,-5.8732628558,9.6461889634,-5.8704505228
 C,0,-7.1578914086,7.1686336396,-5.9951787627
 C,0,-6.5686606146,9.1607028737,-4.7613616275
 C,0,-7.2144808467,7.9248055594,-4.8217768404
 H,0,-3.0179549325,10.3768568969,-6.7864442849
 H,0,-3.4775160033,7.8258554237,-8.2227919469
 H,0,-5.4354223734,9.0114321226,-9.1630611492
 H,0,-5.0107111454,10.481639141,-8.2654569561
 H,0,-6.4179214865,7.0566987934,-8.0141399812
 H,0,-5.362788892,10.6038612046,-5.8064575747
 H,0,-7.6626942372,6.208450927,-6.0504688249
 H,0,-6.6053528673,9.7540910242,-3.8523797035
 H,0,-7.7618662666,7.5519024441,-3.9608710274
 H,0,-3.390436167,8.954189557,-6.0347908278
 H,0,-1.9200166326,9.1570767821,-6.8208227364
 N,0,-3.0867893588,10.0153357347,-10.3640751868
 C,0,-2.2412939652,10.74892115,-11.3177427854
 C,0,-1.5378833345,11.9452033214,-10.6401288594
 O,0,-0.4208893111,12.2992252836,-10.981520558
 C,0,-3.0989990002,11.186633348,-12.5175669604
 C,0,-2.3613624647,12.0136711492,-13.5889975549
 C,0,-1.1297750281,11.2831328879,-14.1429724819
 C,0,-3.3429833725,12.3787457031,-14.7116865473
 H,0,-4.0808592746,9.9665716986,-10.5383704469
 H,0,-1.4306017072,10.0922987229,-11.6399694412
 H,0,-3.5106444881,10.2809334346,-12.9860850347
 H,0,-3.9520983458,11.7707122299,-12.1409939403
 H,0,-2.0161718,12.9442529423,-13.118790844
 H,0,-0.6917519326,11.849579294,-14.9719523878
 H,0,-0.3570457722,11.1682007779,-13.3775901514
 H,0,-1.4008091827,10.2905189567,-14.5267899911
 H,0,-2.8587773475,13.0185208384,-15.4571470663
 H,0,-3.699485421,11.4785248045,-15.2286144373
 H,0,-4.2194329855,12.9145251356,-14.3268600455
 N,0,-2.2761903761,12.5956725059,-9.6835635524
 C,0,-1.6058184022,13.3530720649,-8.641927139
 C,0,-2.1205296402,12.8006917616,-7.2883606504
 O,0,-3.0955532582,12.0165382699,-7.2740978717
 C,0,-1.8062771649,14.8776472242,-8.8211962056
 C,0,-0.6894568366,15.7124338426,-8.1973540989
 N,0,-0.492138911,16.9309787089,-8.7508617599
 O,0,-0.0175643395,15.3242834201,-7.2373161251
 H,0,-3.106672073,12.1232484475,-9.3452130221
 H,0,-0.5335646959,13.1422220304,-8.7156631576
 H,0,-1.8579479978,15.0696375443,-9.8974692653
 H,0,-2.7656833272,15.1998755186,-8.3954866425
 H,0,0.2535296354,17.5083428596,-8.3850412988
 H,0,-0.9519064098,17.2239359494,-9.6000426153
 N,0,-1.4508403466,13.1898235739,-6.2067717263
 C,0,-1.6864885245,12.7373117914,-4.8288577035
 C,0,-2.023346202,11.215208126,-4.8047965462
 O,0,-3.1869389402,10.8560310669,-4.4663173195
 C,0,-2.6920052637,13.627974976,-4.0756696934
 C,0,-2.4757713565,13.7035704601,-2.547179739
 C,0,-2.9765602177,12.5285996273,-1.6879713024
 N,0,-2.2956142086,11.2476073482,-1.9362894312
 C,0,-1.037136246,10.9505315853,-1.6057593454
 N,0,-0.4727367691,11.508641579,-0.5131654975
 N,0,-0.3406650888,10.0878266263,-2.3564977704
 O,0,-1.0625061275,10.4410175863,-5.0701254006
 H,0,-0.721850241,13.8937843636,-6.3721223681
 H,0,-0.7041326568,12.8211960095,-4.3497850674
 H,0,-3.7061926812,13.2884007649,-4.3096402975
 H,0,-2.5867252784,14.6474740333,-4.4647524946
 H,0,-1.4103203832,13.8706459778,-2.3335913004
 H,0,-3.0008306181,14.5913625389,-2.1724645902
 H,0,-2.9011641697,12.7884623725,-0.6263731543
 H,0,-4.0335062827,12.3365132049,-1.8879233823
 H,0,-2.6829925485,10.7540075301,-2.7515136866
 H,0,0.4992515451,11.349554613,-0.2938934617
 H,0,-1.0502793968,11.8974654011,0.217378705
 H,0,0.5455045513,9.7288727952,-2.0305090094
 H,0,-0.5600378233,9.9950614526,-3.3646912927
 Recover connectivity data from disk.
                           ----------------------------
                           !    Current Parameters    !
                           ! (Angstroms and Degrees)  !
 --------------------------                            --------------------------
 ! Name  Definition              Value                                          !
 --------------------------------------------------------------------------------
 ! R1    R(1,2)                  1.4959                                         !
 ! R2    R(1,12)                 1.0455                                         !
 ! R3    R(1,21)                 1.0248                                         !
 ! R4    R(1,22)                 1.0281                                         !
 ! R5    R(2,3)                  1.5477                                         !
 ! R6    R(2,5)                  1.5412                                         !
 ! R7    R(2,13)                 1.0951                                         !
 ! R8    R(3,4)                  1.2268                                         !
 ! R9    R(3,23)                 1.3536                                         !
 ! R10   R(5,6)                  1.5155                                         !
 ! R11   R(5,14)                 1.0965                                         !
 ! R12   R(5,15)                 1.0957                                         !
 ! R13   R(6,7)                  1.4011                                         !
 ! R14   R(6,8)                  1.4029                                         !
 ! R15   R(7,9)                  1.395                                          !
 ! R16   R(7,16)                 1.0882                                         !
 ! R17   R(8,10)                 1.3962                                         !
 ! R18   R(8,17)                 1.0871                                         !
 ! R19   R(9,11)                 1.3971                                         !
 ! R20   R(9,18)                 1.0862                                         !
 ! R21   R(10,11)                1.3958                                         !
 ! R22   R(10,19)                1.0861                                         !
 ! R23   R(11,20)                1.0862                                         !
 ! R24   R(23,24)                1.4705                                         !
 ! R25   R(23,31)                1.0104                                         !
 ! R26   R(24,25)                1.5444                                         !
 ! R27   R(24,27)                1.5384                                         !
 ! R28   R(24,32)                1.0919                                         !
 ! R29   R(25,26)                1.2205                                         !
 ! R30   R(25,42)                1.3723                                         !
 ! R31   R(27,28)                1.5414                                         !
 ! R32   R(27,33)                1.0997                                         !
 ! R33   R(27,34)                1.1003                                         !
 ! R34   R(28,29)                1.5354                                         !
 ! R35   R(28,30)                1.5353                                         !
 ! R36   R(28,35)                1.0983                                         !
 ! R37   R(29,36)                1.0954                                         !
 ! R38   R(29,37)                1.0937                                         !
 ! R39   R(29,38)                1.0982                                         !
 ! R40   R(30,39)                1.0952                                         !
 ! R41   R(30,40)                1.0976                                         !
 ! R42   R(30,41)                1.097                                          !
 ! R43   R(42,43)                1.4519                                         !
 ! R44   R(42,50)                1.0136                                         !
 ! R45   R(43,44)                1.5499                                         !
 ! R46   R(43,46)                1.5481                                         !
 ! R47   R(43,51)                1.0953                                         !
 ! R48   R(44,45)                1.2513                                         !
 ! R49   R(44,56)                1.3303                                         !
 ! R50   R(46,47)                1.5275                                         !
 ! R51   R(46,52)                1.0945                                         !
 ! R52   R(46,53)                1.098                                          !
 ! R53   R(47,48)                1.3528                                         !
 ! R54   R(47,49)                1.2344                                         !
 ! R55   R(48,54)                1.0115                                         !
 ! R56   R(48,55)                1.0091                                         !
 ! R57   R(56,57)                1.4693                                         !
 ! R58   R(56,68)                1.0268                                         !
 ! R59   R(57,58)                1.5591                                         !
 ! R60   R(57,60)                1.54                                           !
 ! R61   R(57,69)                1.0962                                         !
 ! R62   R(58,59)                1.2639                                         !
 ! R63   R(58,67)                1.2621                                         !
 ! R64   R(60,61)                1.5456                                         !
 ! R65   R(60,70)                1.0948                                         !
 ! R66   R(60,71)                1.0963                                         !
 ! R67   R(61,62)                1.5393                                         !
 ! R68   R(61,72)                1.0994                                         !
 ! R69   R(61,73)                1.0974                                         !
 ! R70   R(62,63)                1.4718                                         !
 ! R71   R(62,74)                1.0955                                         !
 ! R72   R(62,75)                1.0927                                         !
 ! R73   R(63,64)                1.3346                                         !
 ! R74   R(63,76)                1.0287                                         !
 ! R75   R(64,65)                1.3505                                         !
 ! R76   R(64,66)                1.339                                          !
 ! R77   R(65,77)                1.009                                          !
 ! R78   R(65,78)                1.0092                                         !
 ! R79   R(66,79)                1.0102                                         !
 ! R80   R(66,80)                1.0359                                         !
 ! A1    A(2,1,12)             108.1859                                         !
 ! A2    A(2,1,21)             115.0087                                         !
 ! A3    A(2,1,22)             112.5737                                         !
 ! A4    A(12,1,21)            105.8301                                         !
 ! A5    A(12,1,22)            104.6715                                         !
 ! A6    A(21,1,22)            109.8094                                         !
 ! A7    A(1,2,3)              103.4856                                         !
 ! A8    A(1,2,5)              109.2796                                         !
 ! A9    A(1,2,13)             107.5482                                         !
 ! A10   A(3,2,5)              116.9337                                         !
 ! A11   A(3,2,13)             108.6847                                         !
 ! A12   A(5,2,13)             110.3601                                         !
 ! A13   A(2,3,4)              118.6294                                         !
 ! A14   A(2,3,23)             118.2466                                         !
 ! A15   A(4,3,23)             123.0568                                         !
 ! A16   A(2,5,6)              112.3434                                         !
 ! A17   A(2,5,14)             107.9496                                         !
 ! A18   A(2,5,15)             108.3971                                         !
 ! A19   A(6,5,14)             109.6848                                         !
 ! A20   A(6,5,15)             110.2837                                         !
 ! A21   A(14,5,15)            108.0589                                         !
 ! A22   A(5,6,7)              120.6061                                         !
 ! A23   A(5,6,8)              120.1514                                         !
 ! A24   A(7,6,8)              119.1847                                         !
 ! A25   A(6,7,9)              120.5155                                         !
 ! A26   A(6,7,16)             119.7379                                         !
 ! A27   A(9,7,16)             119.7438                                         !
 ! A28   A(6,8,10)             120.2128                                         !
 ! A29   A(6,8,17)             120.2065                                         !
 ! A30   A(10,8,17)            119.5666                                         !
 ! A31   A(7,9,11)             120.0293                                         !
 ! A32   A(7,9,18)             119.8128                                         !
 ! A33   A(11,9,18)            120.1576                                         !
 ! A34   A(8,10,11)            120.2626                                         !
 ! A35   A(8,10,19)            119.4494                                         !
 ! A36   A(11,10,19)           120.2878                                         !
 ! A37   A(9,11,10)            119.7927                                         !
 ! A38   A(9,11,20)            120.0183                                         !
 ! A39   A(10,11,20)           120.1888                                         !
 ! A40   A(3,23,24)            120.6567                                         !
 ! A41   A(3,23,31)            120.5701                                         !
 ! A42   A(24,23,31)           118.546                                          !
 ! A43   A(23,24,25)           111.3306                                         !
 ! A44   A(23,24,27)           109.0964                                         !
 ! A45   A(23,24,32)           108.5588                                         !
 ! A46   A(25,24,27)           112.0696                                         !
 ! A47   A(25,24,32)           104.9004                                         !
 ! A48   A(27,24,32)           110.7862                                         !
 ! A49   A(24,25,26)           121.2527                                         !
 ! A50   A(24,25,42)           115.3383                                         !
 ! A51   A(26,25,42)           123.3585                                         !
 ! A52   A(24,27,28)           115.3375                                         !
 ! A53   A(24,27,33)           107.8572                                         !
 ! A54   A(24,27,34)           108.4432                                         !
 ! A55   A(28,27,33)           108.9588                                         !
 ! A56   A(28,27,34)           108.9105                                         !
 ! A57   A(33,27,34)           107.0242                                         !
 ! A58   A(27,28,29)           112.2939                                         !
 ! A59   A(27,28,30)           109.262                                          !
 ! A60   A(27,28,35)           107.9042                                         !
 ! A61   A(29,28,30)           111.2324                                         !
 ! A62   A(29,28,35)           107.7888                                         !
 ! A63   A(30,28,35)           108.212                                          !
 ! A64   A(28,29,36)           110.3503                                         !
 ! A65   A(28,29,37)           111.3612                                         !
 ! A66   A(28,29,38)           110.9891                                         !
 ! A67   A(36,29,37)           107.5432                                         !
 ! A68   A(36,29,38)           107.5529                                         !
 ! A69   A(37,29,38)           108.9034                                         !
 ! A70   A(28,30,39)           110.7293                                         !
 ! A71   A(28,30,40)           110.9176                                         !
 ! A72   A(28,30,41)           111.7428                                         !
 ! A73   A(39,30,40)           107.5867                                         !
 ! A74   A(39,30,41)           107.8609                                         !
 ! A75   A(40,30,41)           107.8365                                         !
 ! A76   A(25,42,43)           119.9297                                         !
 ! A77   A(25,42,50)           116.9088                                         !
 ! A78   A(43,42,50)           112.455                                          !
 ! A79   A(42,43,44)           106.696                                          !
 ! A80   A(42,43,46)           111.7688                                         !
 ! A81   A(42,43,51)           107.6553                                         !
 ! A82   A(44,43,46)           114.1487                                         !
 ! A83   A(44,43,51)           108.3788                                         !
 ! A84   A(46,43,51)           107.9719                                         !
 ! A85   A(43,44,45)           119.4764                                         !
 ! A86   A(43,44,56)           116.0154                                         !
 ! A87   A(45,44,56)           124.4923                                         !
 ! A88   A(43,46,47)           113.3423                                         !
 ! A89   A(43,46,52)           107.0217                                         !
 ! A90   A(43,46,53)           110.9323                                         !
 ! A91   A(47,46,52)           109.8926                                         !
 ! A92   A(47,46,53)           108.671                                          !
 ! A93   A(52,46,53)           106.7707                                         !
 ! A94   A(46,47,48)           115.5813                                         !
 ! A95   A(46,47,49)           122.9385                                         !
 ! A96   A(48,47,49)           121.4695                                         !
 ! A97   A(47,48,54)           118.2732                                         !
 ! A98   A(47,48,55)           122.6387                                         !
 ! A99   A(54,48,55)           118.3262                                         !
 ! A100  A(44,56,57)           126.2725                                         !
 ! A101  A(44,56,68)           115.2781                                         !
 ! A102  A(57,56,68)           118.4255                                         !
 ! A103  A(56,57,58)           110.474                                          !
 ! A104  A(56,57,60)           112.6593                                         !
 ! A105  A(56,57,69)           104.0376                                         !
 ! A106  A(58,57,60)           114.5823                                         !
 ! A107  A(58,57,69)           105.1644                                         !
 ! A108  A(60,57,69)           109.0947                                         !
 ! A109  A(57,58,59)           118.7158                                         !
 ! A110  A(57,58,67)           115.5381                                         !
 ! A111  A(59,58,67)           125.6499                                         !
 ! A112  A(57,60,61)           114.8735                                         !
 ! A113  A(57,60,70)           108.7197                                         !
 ! A114  A(57,60,71)           107.5511                                         !
 ! A115  A(61,60,70)           110.8621                                         !
 ! A116  A(61,60,71)           106.9818                                         !
 ! A117  A(70,60,71)           107.5509                                         !
 ! A118  A(60,61,62)           117.9792                                         !
 ! A119  A(60,61,72)           109.5814                                         !
 ! A120  A(60,61,73)           108.0784                                         !
 ! A121  A(62,61,72)           108.8344                                         !
 ! A122  A(62,61,73)           105.7391                                         !
 ! A123  A(72,61,73)           105.9262                                         !
 ! A124  A(61,62,63)           114.8119                                         !
 ! A125  A(61,62,74)           109.7204                                         !
 ! A126  A(61,62,75)           110.2868                                         !
 ! A127  A(63,62,74)           109.7607                                         !
 ! A128  A(63,62,75)           105.2862                                         !
 ! A129  A(74,62,75)           106.5938                                         !
 ! A130  A(62,63,64)           126.0289                                         !
 ! A131  A(62,63,76)           112.153                                          !
 ! A132  A(64,63,76)           116.3928                                         !
 ! A133  A(63,64,65)           120.1622                                         !
 ! A134  A(63,64,66)           119.6708                                         !
 ! A135  A(65,64,66)           120.1647                                         !
 ! A136  A(64,65,77)           120.8796                                         !
 ! A137  A(64,65,78)           120.3791                                         !
 ! A138  A(77,65,78)           117.0467                                         !
 ! A139  A(64,66,79)           120.2855                                         !
 ! A140  A(64,66,80)           119.5509                                         !
 ! A141  A(79,66,80)           117.9056                                         !
 ! D1    D(12,1,2,3)            67.7108                                         !
 ! D2    D(12,1,2,5)           -57.5544                                         !
 ! D3    D(12,1,2,13)         -177.3689                                         !
 ! D4    D(21,1,2,3)          -174.2497                                         !
 ! D5    D(21,1,2,5)            60.4851                                         !
 ! D6    D(21,1,2,13)          -59.3293                                         !
 ! D7    D(22,1,2,3)           -47.4577                                         !
 ! D8    D(22,1,2,5)          -172.7229                                         !
 ! D9    D(22,1,2,13)           67.4627                                         !
 ! D10   D(1,2,3,4)             34.9203                                         !
 ! D11   D(1,2,3,23)          -142.1901                                         !
 ! D12   D(5,2,3,4)            155.0985                                         !
 ! D13   D(5,2,3,23)           -22.0118                                         !
 ! D14   D(13,2,3,4)           -79.1846                                         !
 ! D15   D(13,2,3,23)          103.7051                                         !
 ! D16   D(1,2,5,6)            -55.2517                                         !
 ! D17   D(1,2,5,14)          -176.3138                                         !
 ! D18   D(1,2,5,15)            66.8688                                         !
 ! D19   D(3,2,5,6)           -172.3059                                         !
 ! D20   D(3,2,5,14)            66.6319                                         !
 ! D21   D(3,2,5,15)           -50.1855                                         !
 ! D22   D(13,2,5,6)            62.8162                                         !
 ! D23   D(13,2,5,14)          -58.2459                                         !
 ! D24   D(13,2,5,15)         -175.0634                                         !
 ! D25   D(2,3,23,24)          171.9572                                         !
 ! D26   D(2,3,23,31)           -2.4871                                         !
 ! D27   D(4,3,23,24)           -5.0164                                         !
 ! D28   D(4,3,23,31)         -179.4607                                         !
 ! D29   D(2,5,6,7)            -88.3809                                         !
 ! D30   D(2,5,6,8)             88.8339                                         !
 ! D31   D(14,5,6,7)            31.6799                                         !
 ! D32   D(14,5,6,8)          -151.1054                                         !
 ! D33   D(15,5,6,7)           150.5759                                         !
 ! D34   D(15,5,6,8)           -32.2093                                         !
 ! D35   D(5,6,7,9)            177.4447                                         !
 ! D36   D(5,6,7,16)            -3.1756                                         !
 ! D37   D(8,6,7,9)              0.2033                                         !
 ! D38   D(8,6,7,16)           179.583                                          !
 ! D39   D(5,6,8,10)          -177.0073                                         !
 ! D40   D(5,6,8,17)             1.6211                                         !
 ! D41   D(7,6,8,10)             0.2469                                         !
 ! D42   D(7,6,8,17)           178.8754                                         !
 ! D43   D(6,7,9,11)            -0.3834                                         !
 ! D44   D(6,7,9,18)           179.4059                                         !
 ! D45   D(16,7,9,11)         -179.763                                          !
 ! D46   D(16,7,9,18)            0.0263                                         !
 ! D47   D(6,8,10,11)           -0.5191                                         !
 ! D48   D(6,8,10,19)          179.6649                                         !
 ! D49   D(17,8,10,11)        -179.1563                                         !
 ! D50   D(17,8,10,19)           1.0277                                         !
 ! D51   D(7,9,11,10)            0.1115                                         !
 ! D52   D(7,9,11,20)          179.9561                                         !
 ! D53   D(18,9,11,10)        -179.6771                                         !
 ! D54   D(18,9,11,20)           0.1676                                         !
 ! D55   D(8,10,11,9)            0.3385                                         !
 ! D56   D(8,10,11,20)        -179.5059                                         !
 ! D57   D(19,10,11,9)        -179.847                                          !
 ! D58   D(19,10,11,20)          0.3086                                         !
 ! D59   D(3,23,24,25)         -56.3004                                         !
 ! D60   D(3,23,24,27)         179.502                                          !
 ! D61   D(3,23,24,32)          58.6793                                         !
 ! D62   D(31,23,24,25)        118.2545                                         !
 ! D63   D(31,23,24,27)         -5.9431                                         !
 ! D64   D(31,23,24,32)       -126.7659                                         !
 ! D65   D(23,24,25,26)        146.4414                                         !
 ! D66   D(23,24,25,42)        -36.0588                                         !
 ! D67   D(27,24,25,26)        -91.0579                                         !
 ! D68   D(27,24,25,42)         86.4419                                         !
 ! D69   D(32,24,25,26)         29.2168                                         !
 ! D70   D(32,24,25,42)       -153.2834                                         !
 ! D71   D(23,24,27,28)        178.009                                          !
 ! D72   D(23,24,27,33)        -59.9715                                         !
 ! D73   D(23,24,27,34)         55.6033                                         !
 ! D74   D(25,24,27,28)         54.2478                                         !
 ! D75   D(25,24,27,33)        176.2673                                         !
 ! D76   D(25,24,27,34)        -68.1579                                         !
 ! D77   D(32,24,27,28)        -62.54                                           !
 ! D78   D(32,24,27,33)         59.4795                                         !
 ! D79   D(32,24,27,34)        175.0543                                         !
 ! D80   D(24,25,42,43)        156.0158                                         !
 ! D81   D(24,25,42,50)         14.1621                                         !
 ! D82   D(26,25,42,43)        -26.5432                                         !
 ! D83   D(26,25,42,50)       -168.3969                                         !
 ! D84   D(24,27,28,29)         56.3373                                         !
 ! D85   D(24,27,28,30)       -179.7523                                         !
 ! D86   D(24,27,28,35)        -62.3127                                         !
 ! D87   D(33,27,28,29)        -65.0891                                         !
 ! D88   D(33,27,28,30)         58.8213                                         !
 ! D89   D(33,27,28,35)        176.261                                          !
 ! D90   D(34,27,28,29)        178.4929                                         !
 ! D91   D(34,27,28,30)        -57.5967                                         !
 ! D92   D(34,27,28,35)         59.843                                          !
 ! D93   D(27,28,29,36)        174.0903                                         !
 ! D94   D(27,28,29,37)        -66.5512                                         !
 ! D95   D(27,28,29,38)         54.9585                                         !
 ! D96   D(30,28,29,36)         51.2839                                         !
 ! D97   D(30,28,29,37)        170.6425                                         !
 ! D98   D(30,28,29,38)        -67.8479                                         !
 ! D99   D(35,28,29,36)        -67.1919                                         !
 ! D100  D(35,28,29,37)         52.1667                                         !
 ! D101  D(35,28,29,38)        173.6763                                         !
 ! D102  D(27,28,30,39)        176.5788                                         !
 ! D103  D(27,28,30,40)        -64.0474                                         !
 ! D104  D(27,28,30,41)         56.3147                                         !
 ! D105  D(29,28,30,39)        -58.8877                                         !
 ! D106  D(29,28,30,40)         60.4862                                         !
 ! D107  D(29,28,30,41)       -179.1518                                         !
 ! D108  D(35,28,30,39)         59.3332                                         !
 ! D109  D(35,28,30,40)        178.7071                                         !
 ! D110  D(35,28,30,41)        -60.9309                                         !
 ! D111  D(25,42,43,44)       -124.9173                                         !
 ! D112  D(25,42,43,46)        109.6542                                         !
 ! D113  D(25,42,43,51)         -8.7553                                         !
 ! D114  D(50,42,43,44)         18.5                                            !
 ! D115  D(50,42,43,46)       -106.9285                                         !
 ! D116  D(50,42,43,51)        134.662                                          !
 ! D117  D(42,43,44,45)        -10.5116                                         !
 ! D118  D(42,43,44,56)        168.1016                                         !
 ! D119  D(46,43,44,45)        113.4608                                         !
 ! D120  D(46,43,44,56)        -67.9259                                         !
 ! D121  D(51,43,44,45)       -126.1895                                         !
 ! D122  D(51,43,44,56)         52.4238                                         !
 ! D123  D(42,43,46,47)       -154.3587                                         !
 ! D124  D(42,43,46,52)        -33.0478                                         !
 ! D125  D(42,43,46,53)         83.068                                          !
 ! D126  D(44,43,46,47)         84.4388                                         !
 ! D127  D(44,43,46,52)       -154.2503                                         !
 ! D128  D(44,43,46,53)        -38.1345                                         !
 ! D129  D(51,43,46,47)        -36.1381                                         !
 ! D130  D(51,43,46,52)         85.1728                                         !
 ! D131  D(51,43,46,53)       -158.7114                                         !
 ! D132  D(43,44,56,57)       -175.7293                                         !
 ! D133  D(43,44,56,68)          6.0881                                         !
 ! D134  D(45,44,56,57)          2.806                                          !
 ! D135  D(45,44,56,68)       -175.3766                                         !
 ! D136  D(43,46,47,48)        154.0175                                         !
 ! D137  D(43,46,47,49)        -27.1528                                         !
 ! D138  D(52,46,47,48)         34.3337                                         !
 ! D139  D(52,46,47,49)       -146.8367                                         !
 ! D140  D(53,46,47,48)        -82.1647                                         !
 ! D141  D(53,46,47,49)         96.665                                          !
 ! D142  D(46,47,48,54)       -178.4187                                         !
 ! D143  D(46,47,48,55)         -8.5933                                         !
 ! D144  D(49,47,48,54)          2.7328                                         !
 ! D145  D(49,47,48,55)        172.5582                                         !
 ! D146  D(44,56,57,58)         38.7878                                         !
 ! D147  D(44,56,57,60)        -90.7854                                         !
 ! D148  D(44,56,57,69)        151.1942                                         !
 ! D149  D(68,56,57,58)       -143.0809                                         !
 ! D150  D(68,56,57,60)         87.3459                                         !
 ! D151  D(68,56,57,69)        -30.6745                                         !
 ! D152  D(56,57,58,59)       -112.7889                                         !
 ! D153  D(56,57,58,67)         70.5752                                         !
 ! D154  D(60,57,58,59)         15.7477                                         !
 ! D155  D(60,57,58,67)       -160.8881                                         !
 ! D156  D(69,57,58,59)        135.5296                                         !
 ! D157  D(69,57,58,67)        -41.1063                                         !
 ! D158  D(56,57,60,61)       -150.3903                                         !
 ! D159  D(56,57,60,70)         84.7505                                         !
 ! D160  D(56,57,60,71)        -31.4247                                         !
 ! D161  D(58,57,60,61)         82.1794                                         !
 ! D162  D(58,57,60,70)        -42.6798                                         !
 ! D163  D(58,57,60,71)       -158.855                                          !
 ! D164  D(69,57,60,61)        -35.3869                                         !
 ! D165  D(69,57,60,70)       -160.2461                                         !
 ! D166  D(69,57,60,71)         83.5787                                         !
 ! D167  D(57,60,61,62)        -78.9632                                         !
 ! D168  D(57,60,61,72)         46.2747                                         !
 ! D169  D(57,60,61,73)        161.2664                                         !
 ! D170  D(70,60,61,62)         44.7655                                         !
 ! D171  D(70,60,61,72)        170.0034                                         !
 ! D172  D(70,60,61,73)        -75.005                                          !
 ! D173  D(71,60,61,62)        161.7536                                         !
 ! D174  D(71,60,61,72)        -73.0085                                         !
 ! D175  D(71,60,61,73)         41.9832                                         !
 ! D176  D(60,61,62,63)         64.7792                                         !
 ! D177  D(60,61,62,74)       -171.0681                                         !
 ! D178  D(60,61,62,75)        -53.9425                                         !
 ! D179  D(72,61,62,63)        -60.8247                                         !
 ! D180  D(72,61,62,74)         63.328                                          !
 ! D181  D(72,61,62,75)       -179.5464                                         !
 ! D182  D(73,61,62,63)       -174.2371                                         !
 ! D183  D(73,61,62,74)        -50.0844                                         !
 ! D184  D(73,61,62,75)         67.0412                                         !
 ! D185  D(61,62,63,64)         70.4651                                         !
 ! D186  D(61,62,63,76)        -82.3566                                         !
 ! D187  D(74,62,63,64)        -53.6662                                         !
 ! D188  D(74,62,63,76)        153.5121                                         !
 ! D189  D(75,62,63,64)       -168.0452                                         !
 ! D190  D(75,62,63,76)         39.1331                                         !
 ! D191  D(62,63,64,65)         31.157                                          !
 ! D192  D(62,63,64,66)       -149.3983                                         !
 ! D193  D(76,63,64,65)       -177.0246                                         !
 ! D194  D(76,63,64,66)          2.4201                                         !
 ! D195  D(63,64,65,77)       -175.1137                                         !
 ! D196  D(63,64,65,78)         20.1561                                         !
 ! D197  D(66,64,65,77)          5.4444                                         !
 ! D198  D(66,64,65,78)       -159.2859                                         !
 ! D199  D(63,64,66,79)       -169.023                                          !
 ! D200  D(63,64,66,80)         28.3977                                         !
 ! D201  D(65,64,66,79)         10.4217                                         !
 ! D202  D(65,64,66,80)       -152.1577                                         !
 --------------------------------------------------------------------------------
 Symmetry turned off by external request.
 Stoichiometry    C25H41N8O6(1+)
 Framework group  C1[X(C25H41N8O6)]
 Deg. of freedom   234
 Full point group                 C1      NOp   1
                          Input orientation:                          
 ---------------------------------------------------------------------
 Center     Atomic      Atomic             Coordinates (Angstroms)
 Number     Number       Type             X           Y           Z
 ---------------------------------------------------------------------
      1          7           0       -2.931017    9.338053   -6.866475
      2          6           0       -3.531183    8.918426   -8.170911
      3          6           0       -2.562692    9.512874   -9.221655
      4          8           0       -1.365044    9.556133   -8.959144
      5          6           0       -4.998342    9.386627   -8.230067
      6          6           0       -5.809632    8.889900   -7.050295
      7          6           0       -6.455735    7.647738   -7.101255
      8          6           0       -5.873263    9.646189   -5.870451
      9          6           0       -7.157891    7.168634   -5.995179
     10          6           0       -6.568661    9.160703   -4.761362
     11          6           0       -7.214481    7.924806   -4.821777
     12          1           0       -3.017955   10.376857   -6.786444
     13          1           0       -3.477516    7.825855   -8.222792
     14          1           0       -5.435422    9.011432   -9.163061
     15          1           0       -5.010711   10.481639   -8.265457
     16          1           0       -6.417921    7.056699   -8.014140
     17          1           0       -5.362789   10.603861   -5.806458
     18          1           0       -7.662694    6.208451   -6.050469
     19          1           0       -6.605353    9.754091   -3.852380
     20          1           0       -7.761866    7.551902   -3.960871
     21          1           0       -3.390436    8.954190   -6.034791
     22          1           0       -1.920017    9.157077   -6.820823
     23          7           0       -3.086789   10.015336  -10.364075
     24          6           0       -2.241294   10.748921  -11.317743
     25          6           0       -1.537883   11.945203  -10.640129
     26          8           0       -0.420889   12.299225  -10.981521
     27          6           0       -3.098999   11.186633  -12.517567
     28          6           0       -2.361362   12.013671  -13.588998
     29          6           0       -1.129775   11.283133  -14.142972
     30          6           0       -3.342983   12.378746  -14.711687
     31          1           0       -4.080859    9.966572  -10.538370
     32          1           0       -1.430602   10.092299  -11.639969
     33          1           0       -3.510644   10.280933  -12.986085
     34          1           0       -3.952098   11.770712  -12.140994
     35          1           0       -2.016172   12.944253  -13.118791
     36          1           0       -0.691752   11.849579  -14.971952
     37          1           0       -0.357046   11.168201  -13.377590
     38          1           0       -1.400809   10.290519  -14.526790
     39          1           0       -2.858777   13.018521  -15.457147
     40          1           0       -3.699485   11.478525  -15.228614
     41          1           0       -4.219433   12.914525  -14.326860
     42          7           0       -2.276190   12.595673   -9.683564
     43          6           0       -1.605818   13.353072   -8.641927
     44          6           0       -2.120530   12.800692   -7.288361
     45          8           0       -3.095553   12.016538   -7.274098
     46          6           0       -1.806277   14.877647   -8.821196
     47          6           0       -0.689457   15.712434   -8.197354
     48          7           0       -0.492139   16.930979   -8.750862
     49          8           0       -0.017564   15.324283   -7.237316
     50          1           0       -3.106672   12.123248   -9.345213
     51          1           0       -0.533565   13.142222   -8.715663
     52          1           0       -1.857948   15.069638   -9.897469
     53          1           0       -2.765683   15.199876   -8.395487
     54          1           0        0.253530   17.508343   -8.385041
     55          1           0       -0.951906   17.223936   -9.600043
     56          7           0       -1.450840   13.189824   -6.206772
     57          6           0       -1.686489   12.737312   -4.828858
     58          6           0       -2.023346   11.215208   -4.804797
     59          8           0       -3.186939   10.856031   -4.466317
     60          6           0       -2.692005   13.627975   -4.075670
     61          6           0       -2.475771   13.703570   -2.547180
     62          6           0       -2.976560   12.528600   -1.687971
     63          7           0       -2.295614   11.247607   -1.936289
     64          6           0       -1.037136   10.950532   -1.605759
     65          7           0       -0.472737   11.508642   -0.513165
     66          7           0       -0.340665   10.087827   -2.356498
     67          8           0       -1.062506   10.441018   -5.070125
     68          1           0       -0.721850   13.893784   -6.372122
     69          1           0       -0.704133   12.821196   -4.349785
     70          1           0       -3.706193   13.288401   -4.309640
     71          1           0       -2.586725   14.647474   -4.464752
     72          1           0       -1.410320   13.870646   -2.333591
     73          1           0       -3.000831   14.591363   -2.172465
     74          1           0       -2.901164   12.788462   -0.626373
     75          1           0       -4.033506   12.336513   -1.887923
     76          1           0       -2.682993   10.754008   -2.751514
     77          1           0        0.499252   11.349555   -0.293893
     78          1           0       -1.050279   11.897465    0.217379
     79          1           0        0.545505    9.728873   -2.030509
     80          1           0       -0.560038    9.995061   -3.364691
 ---------------------------------------------------------------------
 Rotational constants (GHZ):           0.1082764           0.0651384           0.0465226
 Standard basis: 6-31G(d) (6D, 7F)
   667 basis functions,  1256 primitive gaussians,   667 cartesian basis functions
   147 alpha electrons      147 beta electrons
       nuclear repulsion energy      4883.7995893718 Hartrees.
 NAtoms=   80 NActive=   80 NUniq=   80 SFac= 1.00D+00 NAtFMM=   60 NAOKFM=T Big=T
 Integral buffers will be    131072 words long.
 Raffenetti 2 integral format.
 Two-electron integral symmetry is turned off.
 Nuclear repulsion after empirical dispersion term =     4883.6870198096 Hartrees.
 One-electron integrals computed using PRISM.
 NBasis=   667 RedAO= T EigKep=  4.64D-04  NBF=   667
 NBsUse=   667 1.00D-06 EigRej= -1.00D+00 NBFU=   667
 Initial guess from the checkpoint file:  "conf-472.chk"
 B after Tr=     0.000000    0.000000    0.000000
         Rot=    1.000000    0.000000    0.000000    0.000000 Ang=   0.00 deg.
 Requested convergence on RMS density matrix=1.00D-08 within 128 cycles.
 Requested convergence on MAX density matrix=1.00D-06.
 Requested convergence on             energy=1.00D-06.
 No special actions if energy rises.
 SCF Done:  E(RB3LYP) =  -1866.74545381     A.U. after    2 cycles
            NFock=  2  Conv=0.85D-08     -V/T= 2.0094

 **********************************************************************

            Population analysis using the SCF Density.

 **********************************************************************

 Alpha  occ. eigenvalues --  -19.22474 -19.22241 -19.21411 -19.19357 -19.18601
 Alpha  occ. eigenvalues --  -19.18462 -14.52054 -14.50117 -14.48104 -14.47740
 Alpha  occ. eigenvalues --  -14.46942 -14.45088 -14.45072 -14.43397 -10.45403
 Alpha  occ. eigenvalues --  -10.39740 -10.38930 -10.38924 -10.36747 -10.36476
 Alpha  occ. eigenvalues --  -10.36041 -10.33625 -10.32592 -10.31867 -10.31489
 Alpha  occ. eigenvalues --  -10.30522 -10.29351 -10.28925 -10.28705 -10.27459
 Alpha  occ. eigenvalues --  -10.27384 -10.27238 -10.27108 -10.27100 -10.27050
 Alpha  occ. eigenvalues --  -10.26953 -10.25752 -10.23516 -10.22799  -1.14909
 Alpha  occ. eigenvalues --   -1.14028  -1.13764  -1.12927  -1.11997  -1.11230
 Alpha  occ. eigenvalues --   -1.07718  -1.03565  -1.03213  -1.02678  -1.01911
 Alpha  occ. eigenvalues --   -1.01571  -1.00344  -0.99832  -0.94217  -0.89883
 Alpha  occ. eigenvalues --   -0.89320  -0.88225  -0.87029  -0.83945  -0.83642
 Alpha  occ. eigenvalues --   -0.82604  -0.81420  -0.78911  -0.76753  -0.76016
 Alpha  occ. eigenvalues --   -0.75004  -0.74229  -0.72783  -0.70969  -0.70163
 Alpha  occ. eigenvalues --   -0.69940  -0.69093  -0.68939  -0.67751  -0.67478
 Alpha  occ. eigenvalues --   -0.66940  -0.66673  -0.65966  -0.65485  -0.64155
 Alpha  occ. eigenvalues --   -0.63178  -0.63076  -0.62447  -0.62331  -0.61225
 Alpha  occ. eigenvalues --   -0.59879  -0.59337  -0.58947  -0.58475  -0.57731
 Alpha  occ. eigenvalues --   -0.56738  -0.56471  -0.55607  -0.55307  -0.54609
 Alpha  occ. eigenvalues --   -0.54368  -0.53988  -0.53617  -0.53507  -0.52891
 Alpha  occ. eigenvalues --   -0.52730  -0.52217  -0.51960  -0.51600  -0.50733
 Alpha  occ. eigenvalues --   -0.50336  -0.50149  -0.49922  -0.49491  -0.49380
 Alpha  occ. eigenvalues --   -0.49166  -0.48760  -0.48462  -0.47915  -0.47658
 Alpha  occ. eigenvalues --   -0.47000  -0.46665  -0.46096  -0.45582  -0.45308
 Alpha  occ. eigenvalues --   -0.45105  -0.44613  -0.44208  -0.44006  -0.43566
 Alpha  occ. eigenvalues --   -0.43238  -0.42750  -0.42624  -0.42230  -0.40779
 Alpha  occ. eigenvalues --   -0.39750  -0.39148  -0.38933  -0.37827  -0.37336
 Alpha  occ. eigenvalues --   -0.36794  -0.36345  -0.36266  -0.35885  -0.35307
 Alpha  occ. eigenvalues --   -0.34768  -0.33833  -0.33278  -0.32904  -0.32779
 Alpha  occ. eigenvalues --   -0.32343  -0.32111
 Alpha virt. eigenvalues --   -0.10294  -0.09351  -0.08781  -0.08536  -0.08067
 Alpha virt. eigenvalues --   -0.06982  -0.06569  -0.05700  -0.05580  -0.02738
 Alpha virt. eigenvalues --   -0.02464  -0.00786  -0.00247   0.00443   0.00531
 Alpha virt. eigenvalues --    0.01249   0.01395   0.01905   0.02280   0.02598
 Alpha virt. eigenvalues --    0.02832   0.03806   0.04235   0.04857   0.05223
 Alpha virt. eigenvalues --    0.05269   0.05777   0.05837   0.06180   0.06277
 Alpha virt. eigenvalues --    0.06673   0.06994   0.07220   0.07406   0.08038
 Alpha virt. eigenvalues --    0.08207   0.08396   0.08620   0.08842   0.09184
 Alpha virt. eigenvalues --    0.09417   0.10061   0.10499   0.10660   0.11184
 Alpha virt. eigenvalues --    0.11433   0.11935   0.12059   0.12407   0.12627
 Alpha virt. eigenvalues --    0.12882   0.13352   0.13440   0.14074   0.14164
 Alpha virt. eigenvalues --    0.14625   0.15043   0.15196   0.15817   0.16284
 Alpha virt. eigenvalues --    0.16914   0.16952   0.17255   0.18322   0.18460
 Alpha virt. eigenvalues --    0.18866   0.19358   0.19426   0.20432   0.21523
 Alpha virt. eigenvalues --    0.22889   0.23266   0.24363   0.24982   0.25175
 Alpha virt. eigenvalues --    0.25919   0.26806   0.27033   0.27478   0.27695
 Alpha virt. eigenvalues --    0.29082   0.30714   0.31074   0.31973   0.33750
 Alpha virt. eigenvalues --    0.34228   0.35157   0.36575   0.38015   0.39564
 Alpha virt. eigenvalues --    0.40429   0.41438   0.41824   0.42866   0.43117
 Alpha virt. eigenvalues --    0.43420   0.43512   0.44009   0.44197   0.44683
 Alpha virt. eigenvalues --    0.44857   0.45550   0.45562   0.45876   0.46394
 Alpha virt. eigenvalues --    0.46583   0.46926   0.47399   0.48240   0.48398
 Alpha virt. eigenvalues --    0.49201   0.49247   0.49873   0.49934   0.50388
 Alpha virt. eigenvalues --    0.50774   0.51225   0.51394   0.51699   0.52160
 Alpha virt. eigenvalues --    0.52553   0.52882   0.53233   0.53455   0.53842
 Alpha virt. eigenvalues --    0.53931   0.54519   0.55331   0.55558   0.55745
 Alpha virt. eigenvalues --    0.56470   0.56696   0.56811   0.57126   0.57638
 Alpha virt. eigenvalues --    0.58029   0.58307   0.58645   0.58995   0.59698
 Alpha virt. eigenvalues --    0.60056   0.61044   0.61122   0.61612   0.62420
 Alpha virt. eigenvalues --    0.63424   0.63774   0.64648   0.64937   0.65412
 Alpha virt. eigenvalues --    0.65498   0.65774   0.66102   0.66920   0.68221
 Alpha virt. eigenvalues --    0.68735   0.69111   0.69847   0.70236   0.70915
 Alpha virt. eigenvalues --    0.71283   0.71601   0.71948   0.72393   0.72843
 Alpha virt. eigenvalues --    0.73184   0.73542   0.74787   0.75166   0.75229
 Alpha virt. eigenvalues --    0.75826   0.76074   0.76396   0.76575   0.77363
 Alpha virt. eigenvalues --    0.77402   0.77802   0.78204   0.78378   0.78626
 Alpha virt. eigenvalues --    0.78915   0.79223   0.79694   0.80066   0.80358
 Alpha virt. eigenvalues --    0.80746   0.81264   0.81616   0.81960   0.82333
 Alpha virt. eigenvalues --    0.82727   0.83354   0.83632   0.84104   0.84287
 Alpha virt. eigenvalues --    0.84498   0.84977   0.85265   0.85754   0.86045
 Alpha virt. eigenvalues --    0.86266   0.86575   0.87015   0.87200   0.87442
 Alpha virt. eigenvalues --    0.87960   0.88965   0.89121   0.89896   0.90246
 Alpha virt. eigenvalues --    0.90378   0.90872   0.91636   0.91678   0.92685
 Alpha virt. eigenvalues --    0.93084   0.93718   0.94613   0.94845   0.95428
 Alpha virt. eigenvalues --    0.96371   0.96916   0.97512   0.98281   0.98908
 Alpha virt. eigenvalues --    1.00011   1.00512   1.01023   1.01978   1.02620
 Alpha virt. eigenvalues --    1.03167   1.04187   1.04716   1.05599   1.05858
 Alpha virt. eigenvalues --    1.07256   1.07486   1.08724   1.09267   1.09643
 Alpha virt. eigenvalues --    1.10628   1.11653   1.12043   1.12524   1.13664
 Alpha virt. eigenvalues --    1.14237   1.15163   1.16609   1.16822   1.17314
 Alpha virt. eigenvalues --    1.17624   1.17887   1.18673   1.19012   1.19856
 Alpha virt. eigenvalues --    1.21618   1.22302   1.22667   1.23258   1.23988
 Alpha virt. eigenvalues --    1.24905   1.26648   1.27769   1.28557   1.29326
 Alpha virt. eigenvalues --    1.30265   1.31728   1.32309   1.33119   1.34329
 Alpha virt. eigenvalues --    1.34847   1.35325   1.35682   1.36173   1.37346
 Alpha virt. eigenvalues --    1.38006   1.38689   1.39291   1.39940   1.40468
 Alpha virt. eigenvalues --    1.40962   1.41563   1.41931   1.42739   1.42928
 Alpha virt. eigenvalues --    1.43560   1.44889   1.45345   1.46232   1.47482
 Alpha virt. eigenvalues --    1.48568   1.49248   1.51142   1.51453   1.52520
 Alpha virt. eigenvalues --    1.53674   1.55418   1.55930   1.56766   1.56998
 Alpha virt. eigenvalues --    1.58260   1.58726   1.60368   1.60459   1.60934
 Alpha virt. eigenvalues --    1.62588   1.64247   1.64710   1.65470   1.66048
 Alpha virt. eigenvalues --    1.66403   1.66570   1.67512   1.67985   1.68785
 Alpha virt. eigenvalues --    1.69152   1.70122   1.70361   1.71019   1.71376
 Alpha virt. eigenvalues --    1.71845   1.72482   1.72677   1.73147   1.73500
 Alpha virt. eigenvalues --    1.74118   1.75630   1.75772   1.76108   1.76385
 Alpha virt. eigenvalues --    1.77710   1.78044   1.78483   1.79579   1.80571
 Alpha virt. eigenvalues --    1.80811   1.81262   1.81645   1.82083   1.82970
 Alpha virt. eigenvalues --    1.83554   1.84012   1.84626   1.84816   1.85123
 Alpha virt. eigenvalues --    1.85340   1.86308   1.86667   1.87917   1.88847
 Alpha virt. eigenvalues --    1.89014   1.89451   1.89811   1.90325   1.90887
 Alpha virt. eigenvalues --    1.91588   1.92325   1.93029   1.93492   1.93769
 Alpha virt. eigenvalues --    1.94385   1.94769   1.95751   1.96506   1.97011
 Alpha virt. eigenvalues --    1.97482   1.97894   1.98752   1.99299   1.99957
 Alpha virt. eigenvalues --    2.00604   2.01587   2.02161   2.02826   2.04944
 Alpha virt. eigenvalues --    2.05082   2.05282   2.05524   2.06406   2.07148
 Alpha virt. eigenvalues --    2.07378   2.08772   2.09670   2.10678   2.11116
 Alpha virt. eigenvalues --    2.11573   2.12455   2.13551   2.14182   2.14900
 Alpha virt. eigenvalues --    2.15514   2.15706   2.16424   2.18297   2.18539
 Alpha virt. eigenvalues --    2.18964   2.19709   2.20554   2.21255   2.21866
 Alpha virt. eigenvalues --    2.22847   2.23230   2.23949   2.24354   2.25248
 Alpha virt. eigenvalues --    2.26565   2.27575   2.27884   2.28829   2.30344
 Alpha virt. eigenvalues --    2.30935   2.31086   2.33116   2.33355   2.34892
 Alpha virt. eigenvalues --    2.35201   2.36756   2.37201   2.38140   2.39504
 Alpha virt. eigenvalues --    2.40270   2.40748   2.42318   2.43019   2.44623
 Alpha virt. eigenvalues --    2.45021   2.45732   2.46129   2.47232   2.47732
 Alpha virt. eigenvalues --    2.48632   2.48922   2.49555   2.50252   2.51179
 Alpha virt. eigenvalues --    2.51782   2.52819   2.52864   2.53490   2.54816
 Alpha virt. eigenvalues --    2.56636   2.57199   2.57946   2.58660   2.59506
 Alpha virt. eigenvalues --    2.60898   2.61910   2.62827   2.63377   2.63956
 Alpha virt. eigenvalues --    2.64754   2.66033   2.66593   2.66829   2.68344
 Alpha virt. eigenvalues --    2.68636   2.69030   2.70326   2.74957   2.75704
 Alpha virt. eigenvalues --    2.77189   2.79147   2.80158   2.84164   2.87376
 Alpha virt. eigenvalues --    2.88217   2.88956   2.92374   2.92725   2.94071
 Alpha virt. eigenvalues --    2.94957   2.95563   2.97070   2.97878   2.98380
 Alpha virt. eigenvalues --    2.98980   3.04845   3.07779   3.09368   3.11897
 Alpha virt. eigenvalues --    3.32706   3.69057   3.71930   3.78415   3.86618
 Alpha virt. eigenvalues --    3.87951   3.93027   3.93154   3.96844   3.98232
 Alpha virt. eigenvalues --    4.00805   4.01328   4.03823   4.04902   4.06538
 Alpha virt. eigenvalues --    4.09090   4.10616   4.12818   4.14835   4.16963
 Alpha virt. eigenvalues --    4.17794   4.22077   4.22775   4.24490   4.25896
 Alpha virt. eigenvalues --    4.27784   4.30349   4.33138   4.33537   4.37751
 Alpha virt. eigenvalues --    4.41835   4.45937   4.47179   4.50762   4.54186
 Alpha virt. eigenvalues --    4.56126   4.59119   4.62363   4.64452   4.67018
          Condensed to atoms (all electrons):
 Mulliken charges:
               1
     1  N   -0.786753
     2  C   -0.087276
     3  C    0.643105
     4  O   -0.511148
     5  C   -0.403254
     6  C    0.132917
     7  C   -0.179675
     8  C   -0.206432
     9  C   -0.127557
    10  C   -0.128064
    11  C   -0.125475
    12  H    0.482111
    13  H    0.211255
    14  H    0.168869
    15  H    0.193908
    16  H    0.134388
    17  H    0.173029
    18  H    0.152602
    19  H    0.142809
    20  H    0.149837
    21  H    0.404382
    22  H    0.419407
    23  N   -0.657428
    24  C   -0.015088
    25  C    0.617467
    26  O   -0.505639
    27  C   -0.306763
    28  C   -0.076761
    29  C   -0.461799
    30  C   -0.445882
    31  H    0.348098
    32  H    0.205789
    33  H    0.152215
    34  H    0.135158
    35  H    0.144848
    36  H    0.154559
    37  H    0.177623
    38  H    0.137511
    39  H    0.157546
    40  H    0.146700
    41  H    0.139328
    42  N   -0.610771
    43  C   -0.060607
    44  C    0.621491
    45  O   -0.609138
    46  C   -0.378253
    47  C    0.631489
    48  N   -0.736825
    49  O   -0.531694
    50  H    0.343338
    51  H    0.220089
    52  H    0.189786
    53  H    0.189957
    54  H    0.361896
    55  H    0.356173
    56  N   -0.615360
    57  C    0.009858
    58  C    0.540228
    59  O   -0.609568
    60  C   -0.268865
    61  C   -0.280990
    62  C   -0.161454
    63  N   -0.602878
    64  C    0.775399
    65  N   -0.757539
    66  N   -0.779330
    67  O   -0.601179
    68  H    0.400964
    69  H    0.147458
    70  H    0.175765
    71  H    0.150126
    72  H    0.147824
    73  H    0.165723
    74  H    0.155181
    75  H    0.193238
    76  H    0.397602
    77  H    0.372329
    78  H    0.378179
    79  H    0.358148
    80  H    0.421741
 Sum of Mulliken charges =   1.00000
 Mulliken charges with hydrogens summed into heavy atoms:
               1
     1  N    0.519147
     2  C    0.123979
     3  C    0.643105
     4  O   -0.511148
     5  C   -0.040476
     6  C    0.132917
     7  C   -0.045287
     8  C   -0.033403
     9  C    0.025046
    10  C    0.014745
    11  C    0.024362
    23  N   -0.309330
    24  C    0.190701
    25  C    0.617467
    26  O   -0.505639
    27  C   -0.019390
    28  C    0.068087
    29  C    0.007894
    30  C   -0.002308
    42  N   -0.267433
    43  C    0.159482
    44  C    0.621491
    45  O   -0.609138
    46  C    0.001489
    47  C    0.631489
    48  N   -0.018755
    49  O   -0.531694
    56  N   -0.214396
    57  C    0.157317
    58  C    0.540228
    59  O   -0.609568
    60  C    0.057026
    61  C    0.032557
    62  C    0.186965
    63  N   -0.205276
    64  C    0.775399
    65  N   -0.007031
    66  N    0.000559
    67  O   -0.601179
 Electronic spatial extent (au):  <R**2>=         223456.9840
 Charge=              1.0000 electrons
 Dipole moment (field-independent basis, Debye):
    X=            -13.1548    Y=             56.4243    Z=            -23.6994  Tot=             62.5972
 Quadrupole moment (field-independent basis, Debye-Ang):
   XX=           -174.5990   YY=            497.8331   ZZ=              1.8583
   XY=           -134.8743   XZ=            107.0735   YZ=           -289.1233
 Traceless Quadrupole moment (field-independent basis, Debye-Ang):
   XX=           -282.9631   YY=            389.4689   ZZ=           -106.5058
   XY=           -134.8743   XZ=            107.0735   YZ=           -289.1233
 Octapole moment (field-independent basis, Debye-Ang**2):
  XXX=           1628.5081  YYY=           2292.8782  ZZZ=           2541.0233  XYY=           -897.4824
  XXY=          -2136.5419  XXZ=           1287.0029  XZZ=           -424.6194  YZZ=            243.6455
  YYZ=          -2389.7831  XYZ=           1083.9852
 Hexadecapole moment (field-independent basis, Debye-Ang**3):
 XXXX=         -14345.7578 YYYY=         -35522.1568 ZZZZ=         -63627.1590 XXXY=          17593.4427
 XXXZ=         -11882.3766 YYYX=            850.3054 YYYZ=          -5322.7600 ZZZX=          -2580.0938
 ZZZY=          27121.7046 XXYY=         -28956.1375 XXZZ=         -14295.3285 YYZZ=          -6154.8055
 XXYZ=          15845.7760 YYXZ=           7464.6630 ZZXY=          -4403.7448
 N-N= 4.883687019810D+03 E-N=-1.408823998994D+04  KE= 1.849291106374D+03
 Unable to Open any file for archive entry.
 1\1\GINC-QML-002\SP\RB3LYP\6-31G(d)\C25H41N8O6(1+)\KENGMITH\11-Jun-202
 2\0\\# B3LYP/6-31G* empiricaldispersion=gd3 guess=read geom=check nosy
 mm integral(ultrafinegrid)\\Candidate Structure: Conf:472 Charge calc 
 in gas phase\\1,1\N,0,-2.9310172734,9.3380525498,-6.8664754418\C,0,-3.
 5311831737,8.9184256786,-8.1709107711\C,0,-2.562692369,9.512874319,-9.
 2216550014\O,0,-1.3650438822,9.5561325758,-8.9591435464\C,0,-4.9983415
 479,9.3866267573,-8.2300674655\C,0,-5.8096320062,8.8898998444,-7.05029
 49894\C,0,-6.4557345042,7.6477378471,-7.1012550774\C,0,-5.8732628558,9
 .6461889634,-5.8704505228\C,0,-7.1578914086,7.1686336396,-5.9951787627
 \C,0,-6.5686606146,9.1607028737,-4.7613616275\C,0,-7.2144808467,7.9248
 055594,-4.8217768404\H,0,-3.0179549325,10.3768568969,-6.7864442849\H,0
 ,-3.4775160033,7.8258554237,-8.2227919469\H,0,-5.4354223734,9.01143212
 26,-9.1630611492\H,0,-5.0107111454,10.481639141,-8.2654569561\H,0,-6.4
 179214865,7.0566987934,-8.0141399812\H,0,-5.362788892,10.6038612046,-5
 .8064575747\H,0,-7.6626942372,6.208450927,-6.0504688249\H,0,-6.6053528
 673,9.7540910242,-3.8523797035\H,0,-7.7618662666,7.5519024441,-3.96087
 10274\H,0,-3.390436167,8.954189557,-6.0347908278\H,0,-1.9200166326,9.1
 570767821,-6.8208227364\N,0,-3.0867893588,10.0153357347,-10.3640751868
 \C,0,-2.2412939652,10.74892115,-11.3177427854\C,0,-1.5378833345,11.945
 2033214,-10.6401288594\O,0,-0.4208893111,12.2992252836,-10.981520558\C
 ,0,-3.0989990002,11.186633348,-12.5175669604\C,0,-2.3613624647,12.0136
 711492,-13.5889975549\C,0,-1.1297750281,11.2831328879,-14.1429724819\C
 ,0,-3.3429833725,12.3787457031,-14.7116865473\H,0,-4.0808592746,9.9665
 716986,-10.5383704469\H,0,-1.4306017072,10.0922987229,-11.6399694412\H
 ,0,-3.5106444881,10.2809334346,-12.9860850347\H,0,-3.9520983458,11.770
 7122299,-12.1409939403\H,0,-2.0161718,12.9442529423,-13.118790844\H,0,
 -0.6917519326,11.849579294,-14.9719523878\H,0,-0.3570457722,11.1682007
 779,-13.3775901514\H,0,-1.4008091827,10.2905189567,-14.5267899911\H,0,
 -2.8587773475,13.0185208384,-15.4571470663\H,0,-3.699485421,11.4785248
 045,-15.2286144373\H,0,-4.2194329855,12.9145251356,-14.3268600455\N,0,
 -2.2761903761,12.5956725059,-9.6835635524\C,0,-1.6058184022,13.3530720
 649,-8.641927139\C,0,-2.1205296402,12.8006917616,-7.2883606504\O,0,-3.
 0955532582,12.0165382699,-7.2740978717\C,0,-1.8062771649,14.8776472242
 ,-8.8211962056\C,0,-0.6894568366,15.7124338426,-8.1973540989\N,0,-0.49
 2138911,16.9309787089,-8.7508617599\O,0,-0.0175643395,15.3242834201,-7
 .2373161251\H,0,-3.106672073,12.1232484475,-9.3452130221\H,0,-0.533564
 6959,13.1422220304,-8.7156631576\H,0,-1.8579479978,15.0696375443,-9.89
 74692653\H,0,-2.7656833272,15.1998755186,-8.3954866425\H,0,0.253529635
 4,17.5083428596,-8.3850412988\H,0,-0.9519064098,17.2239359494,-9.60004
 26153\N,0,-1.4508403466,13.1898235739,-6.2067717263\C,0,-1.6864885245,
 12.7373117914,-4.8288577035\C,0,-2.023346202,11.215208126,-4.804796546
 2\O,0,-3.1869389402,10.8560310669,-4.4663173195\C,0,-2.6920052637,13.6
 27974976,-4.0756696934\C,0,-2.4757713565,13.7035704601,-2.547179739\C,
 0,-2.9765602177,12.5285996273,-1.6879713024\N,0,-2.2956142086,11.24760
 73482,-1.9362894312\C,0,-1.037136246,10.9505315853,-1.6057593454\N,0,-
 0.4727367691,11.508641579,-0.5131654975\N,0,-0.3406650888,10.087826626
 3,-2.3564977704\O,0,-1.0625061275,10.4410175863,-5.0701254006\H,0,-0.7
 21850241,13.8937843636,-6.3721223681\H,0,-0.7041326568,12.8211960095,-
 4.3497850674\H,0,-3.7061926812,13.2884007649,-4.3096402975\H,0,-2.5867
 252784,14.6474740333,-4.4647524946\H,0,-1.4103203832,13.8706459778,-2.
 3335913004\H,0,-3.0008306181,14.5913625389,-2.1724645902\H,0,-2.901164
 1697,12.7884623725,-0.6263731543\H,0,-4.0335062827,12.3365132049,-1.88
 79233823\H,0,-2.6829925485,10.7540075301,-2.7515136866\H,0,0.499251545
 1,11.349554613,-0.2938934617\H,0,-1.0502793968,11.8974654011,0.2173787
 05\H,0,0.5455045513,9.7288727952,-2.0305090094\H,0,-0.5600378233,9.995
 0614526,-3.3646912927\\Version=ES64L-G16RevC.01\HF=-1866.7454538\RMSD=
 8.470e-09\Dipole=-0.1779696,0.5520855,4.3387641\Quadrupole=-210.376141
 2,289.5605999,-79.1844587,-100.2757337,79.6065562,-214.9560646\PG=C01 
 [X(C25H41N8O6)]\\@
 The archive entry for this job was punched.


 You never know when you're making a memory.
                        -- Rickie Lee Jones
 Job cpu time:       0 days  0 hours  5 minutes  9.5 seconds.
 Elapsed time:       0 days  0 hours  1 minutes 18.1 seconds.
 File lengths (MBytes):  RWF=    344 Int=      0 D2E=      0 Chk=     48 Scr=     16
 Normal termination of Gaussian 16 at Sat Jun 11 20:56:43 2022.
