 Entering Gaussian System, Link 0=/opt/software/Gaussian/g16-AVX2-C.01/g16/g16
 Input=charge-conf-231.com
 Output=charge-conf-231.log
 Initial command:
 /opt/software/Gaussian/g16-AVX2-C.01/g16/l1.exe "/mnt/gs18/scratch/users/kengmith/Gau-58675.inp" -scrdir="/mnt/gs18/scratch/users/kengmith/"
 Entering Link 1 = /opt/software/Gaussian/g16-AVX2-C.01/g16/l1.exe PID=     58685.
  
 Copyright (c) 1988-2019, Gaussian, Inc.  All Rights Reserved.
  
 This is part of the Gaussian(R) 16 program.  It is based on
 the Gaussian(R) 09 system (copyright 2009, Gaussian, Inc.),
 the Gaussian(R) 03 system (copyright 2003, Gaussian, Inc.),
 the Gaussian(R) 98 system (copyright 1998, Gaussian, Inc.),
 the Gaussian(R) 94 system (copyright 1995, Gaussian, Inc.),
 the Gaussian 92(TM) system (copyright 1992, Gaussian, Inc.),
 the Gaussian 90(TM) system (copyright 1990, Gaussian, Inc.),
 the Gaussian 88(TM) system (copyright 1988, Gaussian, Inc.),
 the Gaussian 86(TM) system (copyright 1986, Carnegie Mellon
 University), and the Gaussian 82(TM) system (copyright 1983,
 Carnegie Mellon University). Gaussian is a federally registered
 trademark of Gaussian, Inc.
  
 This software contains proprietary and confidential information,
 including trade secrets, belonging to Gaussian, Inc.
  
 This software is provided under written license and may be
 used, copied, transmitted, or stored only in accord with that
 written license.
  
 The following legend is applicable only to US Government
 contracts under FAR:
  
                    RESTRICTED RIGHTS LEGEND
  
 Use, reproduction and disclosure by the US Government is
 subject to restrictions as set forth in subparagraphs (a)
 and (c) of the Commercial Computer Software - Restricted
 Rights clause in FAR 52.227-19.
  
 Gaussian, Inc.
 340 Quinnipiac St., Bldg. 40, Wallingford CT 06492
  
  
 ---------------------------------------------------------------
 Warning -- This program may not be used in any manner that
 competes with the business of Gaussian, Inc. or will provide
 assistance to any competitor of Gaussian, Inc.  The licensee
 of this program is prohibited from giving any competitor of
 Gaussian, Inc. access to this program.  By using this program,
 the user acknowledges that Gaussian, Inc. is engaged in the
 business of creating and licensing software in the field of
 computational chemistry and represents and warrants to the
 licensee that it is not a competitor of Gaussian, Inc. and that
 it will not use this program in any manner prohibited above.
 ---------------------------------------------------------------
  

 Cite this work as:
 Gaussian 16, Revision C.01,
 M. J. Frisch, G. W. Trucks, H. B. Schlegel, G. E. Scuseria, 
 M. A. Robb, J. R. Cheeseman, G. Scalmani, V. Barone, 
 G. A. Petersson, H. Nakatsuji, X. Li, M. Caricato, A. V. Marenich, 
 J. Bloino, B. G. Janesko, R. Gomperts, B. Mennucci, H. P. Hratchian, 
 J. V. Ortiz, A. F. Izmaylov, J. L. Sonnenberg, D. Williams-Young, 
 F. Ding, F. Lipparini, F. Egidi, J. Goings, B. Peng, A. Petrone, 
 T. Henderson, D. Ranasinghe, V. G. Zakrzewski, J. Gao, N. Rega, 
 G. Zheng, W. Liang, M. Hada, M. Ehara, K. Toyota, R. Fukuda, 
 J. Hasegawa, M. Ishida, T. Nakajima, Y. Honda, O. Kitao, H. Nakai, 
 T. Vreven, K. Throssell, J. A. Montgomery, Jr., J. E. Peralta, 
 F. Ogliaro, M. J. Bearpark, J. J. Heyd, E. N. Brothers, K. N. Kudin, 
 V. N. Staroverov, T. A. Keith, R. Kobayashi, J. Normand, 
 K. Raghavachari, A. P. Rendell, J. C. Burant, S. S. Iyengar, 
 J. Tomasi, M. Cossi, J. M. Millam, M. Klene, C. Adamo, R. Cammi, 
 J. W. Ochterski, R. L. Martin, K. Morokuma, O. Farkas, 
 J. B. Foresman, and D. J. Fox, Gaussian, Inc., Wallingford CT, 2019.
 
 ******************************************
 Gaussian 16:  ES64L-G16RevC.01  3-Jul-2019
                 6-Jun-2022 
 ******************************************
 %mem=8gb
 %nproc=4
 Will use up to    4 processors via shared memory.
 %chk=conf-231.chk
 ----------------------------------------------------------------------
 # B3LYP/6-31G* empiricaldispersion=gd3 guess=read geom=check nosymm in
 tegral(ultrafinegrid)
 ----------------------------------------------------------------------
 1/29=2,38=1,172=1/1;
 2/12=2,15=1,40=1/2;
 3/5=1,6=6,7=1,11=2,14=-4,25=1,30=1,74=-5,75=-5,116=-2,124=31/1,2,3;
 4/5=1/1;
 5/5=2,38=6/2;
 6/7=2,8=2,9=2,10=2,28=1/1;
 99/5=1,9=1/99;
 ------------------------------------------------------
 Candidate Structure: Conf:231 Charge calc in gas phase
 ------------------------------------------------------
 Structure from the checkpoint file:  "conf-231.chk"
 Charge =  1 Multiplicity = 1
 Redundant internal coordinates found in file.  (old form).
 N,0,-4.498764063,-1.2748607616,-7.0544340567
 C,0,-4.3677505751,-1.3294138372,-8.5525049543
 C,0,-5.663280473,-0.963634392,-9.2882575486
 O,0,-5.6443464143,-0.0968787454,-10.1476940839
 C,0,-3.851822736,-2.7020255431,-8.9909110622
 C,0,-2.4815653543,-3.0105742377,-8.3884279999
 N,0,-1.7541196574,-3.9297319396,-9.0519960813
 O,0,-2.0955206102,-2.4630216337,-7.350568421
 H,0,-5.1633786674,-1.9757446731,-6.6772730945
 H,0,-3.6492905954,-0.5527489396,-8.8176780112
 H,0,-4.5505365874,-3.4957822969,-8.6979927207
 H,0,-3.8212487246,-2.7259912909,-10.0843280338
 H,0,-0.8514071077,-4.2001231076,-8.6829193001
 H,0,-2.0762274055,-4.3471868272,-9.9141433544
 H,0,-3.5480461037,-1.4820468217,-6.6862037731
 H,0,-4.8874046014,-0.3509425411,-6.7676578373
 N,0,-6.7861908825,-1.6755560566,-8.9602486125
 C,0,-7.9403830516,-1.6794924979,-9.8658872651
 C,0,-9.2452104394,-1.328191153,-9.1198007324
 O,0,-10.1912077082,-2.1206143439,-9.1133902848
 C,0,-8.063559854,-3.0364639274,-10.5922644207
 C,0,-6.7430420927,-3.546930456,-11.1345971359
 C,0,-6.0019599865,-2.8119055956,-12.0730948201
 C,0,-6.2304827842,-4.7754769956,-10.6967192455
 C,0,-4.7882236864,-3.2964231141,-12.5629144694
 C,0,-5.0182164588,-5.2695586994,-11.1881705916
 C,0,-4.2922747202,-4.529875895,-12.1243422569
 H,0,-6.6915031123,-2.4938601697,-8.3719759274
 H,0,-7.7375736546,-0.8868701332,-10.5912031797
 H,0,-8.488505383,-3.7703310054,-9.9005122023
 H,0,-8.8036587335,-2.9241176322,-11.39216178
 H,0,-6.3720442535,-1.8521710789,-12.4227638851
 H,0,-6.7974168136,-5.3662760747,-9.9802654653
 H,0,-4.2361034685,-2.7174659838,-13.2977684064
 H,0,-4.6553534282,-6.2377889594,-10.8535445661
 H,0,-3.3631752435,-4.9199845376,-12.5323407114
 N,0,-9.3359628793,-0.1255951733,-8.492975691
 C,0,-8.2706311017,0.8249246344,-8.1988010609
 C,0,-7.4444141057,0.4596339221,-6.9474818486
 O,0,-6.2480206498,0.7956970965,-6.9021625279
 C,0,-8.8224559516,2.2598662462,-8.072173606
 C,0,-9.857515637,2.4210133423,-6.9562435348
 N,0,-10.064639896,3.6859874273,-6.5267680991
 O,0,-10.4715570947,1.4577483603,-6.4929786823
 H,0,-10.1969599943,0.0243081829,-7.9697407895
 H,0,-7.5522641035,0.8397761329,-9.0197481938
 H,0,-9.2960097334,2.535357596,-9.022765454
 H,0,-7.9776297352,2.9406971607,-7.9211540154
 H,0,-10.8021168768,3.8502300669,-5.8537925517
 H,0,-9.5950695726,4.4844810922,-6.9283966631
 N,0,-8.071552173,-0.1994987493,-5.9553886045
 C,0,-7.4172784559,-0.4924486519,-4.6889516873
 C,0,-6.7870746409,-1.8937874323,-4.6252561016
 O,0,-6.2260418983,-2.2945981025,-3.6415769722
 C,0,-8.2899379888,-0.1534300982,-3.4574220486
 C,0,-9.7555379148,-0.6184493365,-3.4603426037
 C,0,-9.9833524066,-2.1338324534,-3.4179729509
 N,0,-9.3562770107,-2.840099807,-4.5418636475
 C,0,-9.9003862051,-2.773624,-5.811543798
 N,0,-10.8421377337,-1.9537236676,-6.0880393298
 N,0,-9.1466803841,-3.5352513502,-6.7608674358
 O,0,-6.6822131577,-2.6051760128,-5.8115909398
 H,0,-7.5456248078,-2.632659777,-6.3041383985
 H,0,-9.078081119,-0.3362722501,-6.0241882463
 H,0,-6.5380959307,0.162967675,-4.6444005952
 H,0,-7.7604908908,-0.5513782305,-2.5848711374
 H,0,-8.2860833979,0.9379740098,-3.3621001976
 H,0,-10.2275368979,-0.1995843868,-2.5627620687
 H,0,-10.3002482053,-0.1918298645,-4.3078865505
 H,0,-9.54083851,-2.5519754402,-2.5085455989
 H,0,-11.0608380033,-2.3353618011,-3.403565646
 H,0,-8.8636952802,-3.6911049323,-4.3043605293
 H,0,-11.0960991123,-2.0022058898,-7.07524153
 H,0,-9.6065344453,-3.5275485641,-7.6709714315
 H,0,-8.964192577,-4.4933930767,-6.4646748201
 Recover connectivity data from disk.
                           ----------------------------
                           !    Current Parameters    !
                           ! (Angstroms and Degrees)  !
 --------------------------                            --------------------------
 ! Name  Definition              Value                                          !
 --------------------------------------------------------------------------------
 ! R1    R(1,2)                  1.5048                                         !
 ! R2    R(1,9)                  1.0369                                         !
 ! R3    R(1,15)                 1.0404                                         !
 ! R4    R(1,16)                 1.0425                                         !
 ! R5    R(2,3)                  1.5341                                         !
 ! R6    R(2,5)                  1.5305                                         !
 ! R7    R(2,10)                 1.0907                                         !
 ! R8    R(3,4)                  1.2208                                         !
 ! R9    R(3,17)                 1.3694                                         !
 ! R10   R(5,6)                  1.5283                                         !
 ! R11   R(5,11)                 1.0973                                         !
 ! R12   R(5,12)                 1.0941                                         !
 ! R13   R(6,7)                  1.347                                          !
 ! R14   R(6,8)                  1.2353                                         !
 ! R15   R(7,13)                 1.012                                          !
 ! R16   R(7,14)                 1.0106                                         !
 ! R17   R(17,18)                1.4671                                         !
 ! R18   R(17,28)                1.0123                                         !
 ! R19   R(18,19)                1.5436                                         !
 ! R20   R(18,21)                1.5441                                         !
 ! R21   R(18,29)                1.0934                                         !
 ! R22   R(19,20)                1.2341                                         !
 ! R23   R(19,37)                1.3592                                         !
 ! R24   R(21,22)                1.5161                                         !
 ! R25   R(21,30)                1.0944                                         !
 ! R26   R(21,31)                1.0955                                         !
 ! R27   R(22,23)                1.4037                                         !
 ! R28   R(22,24)                1.4013                                         !
 ! R29   R(23,25)                1.3956                                         !
 ! R30   R(23,32)                1.0864                                         !
 ! R31   R(24,26)                1.3983                                         !
 ! R32   R(24,33)                1.088                                          !
 ! R33   R(25,27)                1.3999                                         !
 ! R34   R(25,34)                1.0863                                         !
 ! R35   R(26,27)                1.3966                                         !
 ! R36   R(26,35)                1.0868                                         !
 ! R37   R(27,36)                1.0871                                         !
 ! R38   R(37,38)                1.4577                                         !
 ! R39   R(37,45)                1.0186                                         !
 ! R40   R(38,39)                1.5433                                         !
 ! R41   R(38,41)                1.5426                                         !
 ! R42   R(38,46)                1.091                                          !
 ! R43   R(39,40)                1.2435                                         !
 ! R44   R(39,51)                1.3461                                         !
 ! R45   R(41,42)                1.5306                                         !
 ! R46   R(41,47)                1.0972                                         !
 ! R47   R(41,48)                1.0955                                         !
 ! R48   R(42,43)                1.3519                                         !
 ! R49   R(42,44)                1.2327                                         !
 ! R50   R(43,49)                1.0118                                         !
 ! R51   R(43,50)                1.0097                                         !
 ! R52   R(51,52)                1.4553                                         !
 ! R53   R(51,64)                1.0181                                         !
 ! R54   R(52,53)                1.5378                                         !
 ! R55   R(52,55)                1.547                                          !
 ! R56   R(52,65)                1.0975                                         !
 ! R57   R(53,54)                1.2013                                         !
 ! R58   R(53,62)                1.3872                                         !
 ! R59   R(55,56)                1.5376                                         !
 ! R60   R(55,66)                1.0955                                         !
 ! R61   R(55,67)                1.0956                                         !
 ! R62   R(56,57)                1.533                                          !
 ! R63   R(56,68)                1.0972                                         !
 ! R64   R(56,69)                1.0941                                         !
 ! R65   R(57,58)                1.468                                          !
 ! R66   R(57,70)                1.0944                                         !
 ! R67   R(57,71)                1.0963                                         !
 ! R68   R(58,59)                1.383                                          !
 ! R69   R(58,72)                1.0116                                         !
 ! R70   R(59,60)                1.2789                                         !
 ! R71   R(59,61)                1.4316                                         !
 ! R72   R(60,73)                1.0205                                         !
 ! R73   R(61,74)                1.0197                                         !
 ! R74   R(61,75)                1.0193                                         !
 ! R75   R(62,63)                0.9944                                         !
 ! A1    A(2,1,9)              113.1669                                         !
 ! A2    A(2,1,15)             105.4014                                         !
 ! A3    A(2,1,16)             109.7813                                         !
 ! A4    A(9,1,15)             108.8061                                         !
 ! A5    A(9,1,16)             105.0718                                         !
 ! A6    A(15,1,16)            114.8207                                         !
 ! A7    A(1,2,3)              113.2839                                         !
 ! A8    A(1,2,5)              110.3058                                         !
 ! A9    A(1,2,10)             105.8765                                         !
 ! A10   A(3,2,5)              111.1693                                         !
 ! A11   A(3,2,10)             105.6571                                         !
 ! A12   A(5,2,10)             110.2987                                         !
 ! A13   A(2,3,4)              119.5927                                         !
 ! A14   A(2,3,17)             116.9769                                         !
 ! A15   A(4,3,17)             123.3983                                         !
 ! A16   A(2,5,6)              111.7385                                         !
 ! A17   A(2,5,11)             110.955                                          !
 ! A18   A(2,5,12)             108.3807                                         !
 ! A19   A(6,5,11)             108.6405                                         !
 ! A20   A(6,5,12)             111.3759                                         !
 ! A21   A(11,5,12)            105.5885                                         !
 ! A22   A(5,6,7)              115.3257                                         !
 ! A23   A(5,6,8)              121.4597                                         !
 ! A24   A(7,6,8)              123.2016                                         !
 ! A25   A(6,7,13)             118.9717                                         !
 ! A26   A(6,7,14)             122.0062                                         !
 ! A27   A(13,7,14)            119.0157                                         !
 ! A28   A(3,17,18)            119.9097                                         !
 ! A29   A(3,17,28)            118.8655                                         !
 ! A30   A(18,17,28)           115.4783                                         !
 ! A31   A(17,18,19)           111.4724                                         !
 ! A32   A(17,18,21)           110.825                                          !
 ! A33   A(17,18,29)           105.1667                                         !
 ! A34   A(19,18,21)           111.0976                                         !
 ! A35   A(19,18,29)           108.2072                                         !
 ! A36   A(21,18,29)           109.8657                                         !
 ! A37   A(18,19,20)           120.29                                           !
 ! A38   A(18,19,37)           118.7325                                         !
 ! A39   A(20,19,37)           120.9689                                         !
 ! A40   A(18,21,22)           113.2474                                         !
 ! A41   A(18,21,30)           108.8409                                         !
 ! A42   A(18,21,31)           107.8935                                         !
 ! A43   A(22,21,30)           109.7881                                         !
 ! A44   A(22,21,31)           111.2083                                         !
 ! A45   A(30,21,31)           105.5434                                         !
 ! A46   A(21,22,23)           121.5154                                         !
 ! A47   A(21,22,24)           120.1318                                         !
 ! A48   A(23,22,24)           118.3521                                         !
 ! A49   A(22,23,25)           120.7981                                         !
 ! A50   A(22,23,32)           119.8633                                         !
 ! A51   A(25,23,32)           119.3382                                         !
 ! A52   A(22,24,26)           121.1348                                         !
 ! A53   A(22,24,33)           119.4209                                         !
 ! A54   A(26,24,33)           119.4274                                         !
 ! A55   A(23,25,27)           120.2671                                         !
 ! A56   A(23,25,34)           119.6304                                         !
 ! A57   A(27,25,34)           120.0969                                         !
 ! A58   A(24,26,27)           119.9394                                         !
 ! A59   A(24,26,35)           119.7388                                         !
 ! A60   A(27,26,35)           120.3107                                         !
 ! A61   A(25,27,26)           119.5055                                         !
 ! A62   A(25,27,36)           120.0908                                         !
 ! A63   A(26,27,36)           120.3804                                         !
 ! A64   A(19,37,38)           128.4043                                         !
 ! A65   A(19,37,45)           115.0586                                         !
 ! A66   A(38,37,45)           114.7157                                         !
 ! A67   A(37,38,39)           113.6111                                         !
 ! A68   A(37,38,41)           111.2037                                         !
 ! A69   A(37,38,46)           109.7696                                         !
 ! A70   A(39,38,41)           110.1893                                         !
 ! A71   A(39,38,46)           105.1192                                         !
 ! A72   A(41,38,46)           106.5383                                         !
 ! A73   A(38,39,40)           118.7272                                         !
 ! A74   A(38,39,51)           117.6484                                         !
 ! A75   A(40,39,51)           123.6214                                         !
 ! A76   A(38,41,42)           113.5597                                         !
 ! A77   A(38,41,47)           108.4725                                         !
 ! A78   A(38,41,48)           108.274                                          !
 ! A79   A(42,41,47)           108.2627                                         !
 ! A80   A(42,41,48)           110.8292                                         !
 ! A81   A(47,41,48)           107.2324                                         !
 ! A82   A(41,42,43)           115.7066                                         !
 ! A83   A(41,42,44)           121.9107                                         !
 ! A84   A(43,42,44)           122.3774                                         !
 ! A85   A(42,43,49)           118.3512                                         !
 ! A86   A(42,43,50)           122.8473                                         !
 ! A87   A(49,43,50)           118.3716                                         !
 ! A88   A(39,51,52)           122.0388                                         !
 ! A89   A(39,51,64)           118.4616                                         !
 ! A90   A(52,51,64)           118.4406                                         !
 ! A91   A(51,52,53)           113.8112                                         !
 ! A92   A(51,52,55)           113.2699                                         !
 ! A93   A(51,52,65)           105.978                                          !
 ! A94   A(53,52,55)           113.4465                                         !
 ! A95   A(53,52,65)           102.3698                                         !
 ! A96   A(55,52,65)           106.7803                                         !
 ! A97   A(52,53,54)           121.9614                                         !
 ! A98   A(52,53,62)           117.5707                                         !
 ! A99   A(54,53,62)           119.5953                                         !
 ! A100  A(52,55,56)           118.0278                                         !
 ! A101  A(52,55,66)           106.3706                                         !
 ! A102  A(52,55,67)           106.5946                                         !
 ! A103  A(56,55,66)           110.6297                                         !
 ! A104  A(56,55,67)           107.7462                                         !
 ! A105  A(66,55,67)           106.9112                                         !
 ! A106  A(55,56,57)           116.139                                          !
 ! A107  A(55,56,68)           107.0392                                         !
 ! A108  A(55,56,69)           110.9832                                         !
 ! A109  A(57,56,68)           106.9076                                         !
 ! A110  A(57,56,69)           109.4432                                         !
 ! A111  A(68,56,69)           105.7047                                         !
 ! A112  A(56,57,58)           113.0123                                         !
 ! A113  A(56,57,70)           109.9111                                         !
 ! A114  A(56,57,71)           109.1562                                         !
 ! A115  A(58,57,70)           106.239                                          !
 ! A116  A(58,57,71)           109.9654                                         !
 ! A117  A(70,57,71)           108.4367                                         !
 ! A118  A(57,58,59)           120.7758                                         !
 ! A119  A(57,58,72)           115.6573                                         !
 ! A120  A(59,58,72)           116.5887                                         !
 ! A121  A(58,59,60)           121.267                                          !
 ! A122  A(58,59,61)           112.0927                                         !
 ! A123  A(60,59,61)           125.8319                                         !
 ! A124  A(59,60,73)           111.2195                                         !
 ! A125  A(59,61,74)           110.5124                                         !
 ! A126  A(59,61,75)           113.6812                                         !
 ! A127  A(74,61,75)           110.3144                                         !
 ! A128  A(53,62,63)           111.8467                                         !
 ! D1    D(9,1,2,3)             64.6793                                         !
 ! D2    D(9,1,2,5)            -60.6609                                         !
 ! D3    D(9,1,2,10)          -179.9893                                         !
 ! D4    D(15,1,2,3)          -176.5319                                         !
 ! D5    D(15,1,2,5)            58.1279                                         !
 ! D6    D(15,1,2,10)          -61.2005                                         !
 ! D7    D(16,1,2,3)           -52.3519                                         !
 ! D8    D(16,1,2,5)          -177.6921                                         !
 ! D9    D(16,1,2,10)           62.9795                                         !
 ! D10   D(1,2,3,4)            127.0532                                         !
 ! D11   D(1,2,3,17)           -54.9334                                         !
 ! D12   D(5,2,3,4)           -108.0717                                         !
 ! D13   D(5,2,3,17)            69.9417                                         !
 ! D14   D(10,2,3,4)            11.5913                                         !
 ! D15   D(10,2,3,17)         -170.3953                                         !
 ! D16   D(1,2,5,6)            -59.9981                                         !
 ! D17   D(1,2,5,11)            61.4126                                         !
 ! D18   D(1,2,5,12)           176.9106                                         !
 ! D19   D(3,2,5,6)            173.4695                                         !
 ! D20   D(3,2,5,11)           -65.1198                                         !
 ! D21   D(3,2,5,12)            50.3782                                         !
 ! D22   D(10,2,5,6)            56.6093                                         !
 ! D23   D(10,2,5,11)          178.0199                                         !
 ! D24   D(10,2,5,12)          -66.482                                          !
 ! D25   D(2,3,17,18)         -161.738                                          !
 ! D26   D(2,3,17,28)           -9.6367                                         !
 ! D27   D(4,3,17,18)           16.1928                                         !
 ! D28   D(4,3,17,28)          168.2941                                         !
 ! D29   D(2,5,6,7)           -157.6831                                         !
 ! D30   D(2,5,6,8)             23.5896                                         !
 ! D31   D(11,5,6,7)            79.5767                                         !
 ! D32   D(11,5,6,8)           -99.1506                                         !
 ! D33   D(12,5,6,7)           -36.3096                                         !
 ! D34   D(12,5,6,8)           144.9631                                         !
 ! D35   D(5,6,7,13)          -177.8558                                         !
 ! D36   D(5,6,7,14)             3.0731                                         !
 ! D37   D(8,6,7,13)             0.8468                                         !
 ! D38   D(8,6,7,14)          -178.2243                                         !
 ! D39   D(3,17,18,19)        -129.0403                                         !
 ! D40   D(3,17,18,21)         106.6645                                         !
 ! D41   D(3,17,18,29)         -12.0074                                         !
 ! D42   D(28,17,18,19)         77.9551                                         !
 ! D43   D(28,17,18,21)        -46.3401                                         !
 ! D44   D(28,17,18,29)       -165.012                                          !
 ! D45   D(17,18,19,20)       -121.2591                                         !
 ! D46   D(17,18,19,37)         59.7976                                         !
 ! D47   D(21,18,19,20)          2.8826                                         !
 ! D48   D(21,18,19,37)       -176.0607                                         !
 ! D49   D(29,18,19,20)        123.5686                                         !
 ! D50   D(29,18,19,37)        -55.3747                                         !
 ! D51   D(17,18,21,22)        -45.3209                                         !
 ! D52   D(17,18,21,30)         77.0842                                         !
 ! D53   D(17,18,21,31)       -168.8553                                         !
 ! D54   D(19,18,21,22)       -169.8294                                         !
 ! D55   D(19,18,21,30)        -47.4243                                         !
 ! D56   D(19,18,21,31)         66.6362                                         !
 ! D57   D(29,18,21,22)         70.4681                                         !
 ! D58   D(29,18,21,30)       -167.1268                                         !
 ! D59   D(29,18,21,31)        -53.0663                                         !
 ! D60   D(18,19,37,38)        -12.6557                                         !
 ! D61   D(18,19,37,45)       -176.3189                                         !
 ! D62   D(20,19,37,38)        168.4084                                         !
 ! D63   D(20,19,37,45)          4.7452                                         !
 ! D64   D(18,21,22,23)        -59.7918                                         !
 ! D65   D(18,21,22,24)        119.9018                                         !
 ! D66   D(30,21,22,23)        178.3315                                         !
 ! D67   D(30,21,22,24)         -1.975                                          !
 ! D68   D(31,21,22,23)         61.9025                                         !
 ! D69   D(31,21,22,24)       -118.4039                                         !
 ! D70   D(21,22,23,25)       -179.9695                                         !
 ! D71   D(21,22,23,32)          0.2406                                         !
 ! D72   D(24,22,23,25)          0.3316                                         !
 ! D73   D(24,22,23,32)       -179.4583                                         !
 ! D74   D(21,22,24,26)        179.6597                                         !
 ! D75   D(21,22,24,33)          1.1663                                         !
 ! D76   D(23,22,24,26)         -0.6371                                         !
 ! D77   D(23,22,24,33)       -179.1305                                         !
 ! D78   D(22,23,25,27)          0.1256                                         !
 ! D79   D(22,23,25,34)        179.2686                                         !
 ! D80   D(32,23,25,27)        179.9166                                         !
 ! D81   D(32,23,25,34)         -0.9404                                         !
 ! D82   D(22,24,26,27)          0.4839                                         !
 ! D83   D(22,24,26,35)       -178.3113                                         !
 ! D84   D(33,24,26,27)        178.9772                                         !
 ! D85   D(33,24,26,35)          0.182                                          !
 ! D86   D(23,25,27,26)         -0.2875                                         !
 ! D87   D(23,25,27,36)        177.9625                                         !
 ! D88   D(34,25,27,26)       -179.4265                                         !
 ! D89   D(34,25,27,36)         -1.1765                                         !
 ! D90   D(24,26,27,25)         -0.0132                                         !
 ! D91   D(24,26,27,36)       -178.258                                          !
 ! D92   D(35,26,27,25)        178.775                                          !
 ! D93   D(35,26,27,36)          0.5302                                         !
 ! D94   D(19,37,38,39)        -80.3749                                         !
 ! D95   D(19,37,38,41)        154.6244                                         !
 ! D96   D(19,37,38,46)         36.9862                                         !
 ! D97   D(45,37,38,39)         83.3349                                         !
 ! D98   D(45,37,38,41)        -41.6658                                         !
 ! D99   D(45,37,38,46)       -159.304                                          !
 ! D100  D(37,38,39,40)        149.7624                                         !
 ! D101  D(37,38,39,51)        -30.839                                          !
 ! D102  D(41,38,39,40)        -84.6951                                         !
 ! D103  D(41,38,39,51)         94.7036                                         !
 ! D104  D(46,38,39,40)         29.7307                                         !
 ! D105  D(46,38,39,51)       -150.8706                                         !
 ! D106  D(37,38,41,42)         60.3316                                         !
 ! D107  D(37,38,41,47)        -60.0735                                         !
 ! D108  D(37,38,41,48)       -176.129                                          !
 ! D109  D(39,38,41,42)        -66.5664                                         !
 ! D110  D(39,38,41,47)        173.0286                                         !
 ! D111  D(39,38,41,48)         56.9731                                         !
 ! D112  D(46,38,41,42)        179.9126                                         !
 ! D113  D(46,38,41,47)         59.5075                                         !
 ! D114  D(46,38,41,48)        -56.5479                                         !
 ! D115  D(38,39,51,52)       -174.7616                                         !
 ! D116  D(38,39,51,64)         -6.7195                                         !
 ! D117  D(40,39,51,52)          4.6051                                         !
 ! D118  D(40,39,51,64)        172.6472                                         !
 ! D119  D(38,41,42,43)        160.3742                                         !
 ! D120  D(38,41,42,44)        -20.4376                                         !
 ! D121  D(47,41,42,43)        -79.1023                                         !
 ! D122  D(47,41,42,44)        100.0859                                         !
 ! D123  D(48,41,42,43)         38.2411                                         !
 ! D124  D(48,41,42,44)       -142.5707                                         !
 ! D125  D(41,42,43,49)        174.2483                                         !
 ! D126  D(41,42,43,50)          1.9023                                         !
 ! D127  D(44,42,43,49)         -4.9358                                         !
 ! D128  D(44,42,43,50)       -177.2817                                         !
 ! D129  D(39,51,52,53)        -95.2993                                         !
 ! D130  D(39,51,52,55)        133.1566                                         !
 ! D131  D(39,51,52,65)         16.411                                          !
 ! D132  D(64,51,52,53)         96.6562                                         !
 ! D133  D(64,51,52,55)        -34.8879                                         !
 ! D134  D(64,51,52,65)       -151.6335                                         !
 ! D135  D(51,52,53,54)       -178.9489                                         !
 ! D136  D(51,52,53,62)         11.7959                                         !
 ! D137  D(55,52,53,54)        -47.491                                          !
 ! D138  D(55,52,53,62)        143.2538                                         !
 ! D139  D(65,52,53,54)         67.172                                          !
 ! D140  D(65,52,53,62)       -102.0832                                         !
 ! D141  D(51,52,55,56)         46.8152                                         !
 ! D142  D(51,52,55,66)        171.7315                                         !
 ! D143  D(51,52,55,67)        -74.4463                                         !
 ! D144  D(53,52,55,56)        -84.9084                                         !
 ! D145  D(53,52,55,66)         40.0079                                         !
 ! D146  D(53,52,55,67)        153.8301                                         !
 ! D147  D(65,52,55,56)        163.088                                          !
 ! D148  D(65,52,55,66)        -71.9956                                         !
 ! D149  D(65,52,55,67)         41.8266                                         !
 ! D150  D(52,53,62,63)        -50.4975                                         !
 ! D151  D(54,53,62,63)        139.9833                                         !
 ! D152  D(52,55,56,57)         66.3558                                         !
 ! D153  D(52,55,56,68)       -174.3538                                         !
 ! D154  D(52,55,56,69)        -59.4714                                         !
 ! D155  D(66,55,56,57)        -56.4354                                         !
 ! D156  D(66,55,56,68)         62.855                                          !
 ! D157  D(66,55,56,69)        177.7375                                         !
 ! D158  D(67,55,56,57)       -172.9758                                         !
 ! D159  D(67,55,56,68)        -53.6854                                         !
 ! D160  D(67,55,56,69)         61.1971                                         !
 ! D161  D(55,56,57,58)        -58.4444                                         !
 ! D162  D(55,56,57,70)         60.044                                          !
 ! D163  D(55,56,57,71)        178.8541                                         !
 ! D164  D(68,56,57,58)       -177.8063                                         !
 ! D165  D(68,56,57,70)        -59.3179                                         !
 ! D166  D(68,56,57,71)         59.4923                                         !
 ! D167  D(69,56,57,58)         68.1571                                         !
 ! D168  D(69,56,57,70)       -173.3545                                         !
 ! D169  D(69,56,57,71)        -54.5444                                         !
 ! D170  D(56,57,58,59)        -74.2653                                         !
 ! D171  D(56,57,58,72)        135.966                                          !
 ! D172  D(70,57,58,59)        165.1314                                         !
 ! D173  D(70,57,58,72)         15.3627                                         !
 ! D174  D(71,57,58,59)         47.9844                                         !
 ! D175  D(71,57,58,72)       -101.7842                                         !
 ! D176  D(57,58,59,60)         10.0894                                         !
 ! D177  D(57,58,59,61)       -179.6354                                         !
 ! D178  D(72,58,59,60)        159.5904                                         !
 ! D179  D(72,58,59,61)        -30.1344                                         !
 ! D180  D(58,59,60,73)        177.2812                                         !
 ! D181  D(61,59,60,73)          8.4121                                         !
 ! D182  D(58,59,61,74)        175.7183                                         !
 ! D183  D(58,59,61,75)         51.0487                                         !
 ! D184  D(60,59,61,74)        -14.5401                                         !
 ! D185  D(60,59,61,75)       -139.2096                                         !
 --------------------------------------------------------------------------------
 Symmetry turned off by external request.
 Stoichiometry    C23H36N9O7(1+)
 Framework group  C1[X(C23H36N9O7)]
 Deg. of freedom   219
 Full point group                 C1      NOp   1
                          Input orientation:                          
 ---------------------------------------------------------------------
 Center     Atomic      Atomic             Coordinates (Angstroms)
 Number     Number       Type             X           Y           Z
 ---------------------------------------------------------------------
      1          7           0       -4.498764   -1.274861   -7.054434
      2          6           0       -4.367751   -1.329414   -8.552505
      3          6           0       -5.663280   -0.963634   -9.288258
      4          8           0       -5.644346   -0.096879  -10.147694
      5          6           0       -3.851823   -2.702026   -8.990911
      6          6           0       -2.481565   -3.010574   -8.388428
      7          7           0       -1.754120   -3.929732   -9.051996
      8          8           0       -2.095521   -2.463022   -7.350568
      9          1           0       -5.163379   -1.975745   -6.677273
     10          1           0       -3.649291   -0.552749   -8.817678
     11          1           0       -4.550537   -3.495782   -8.697993
     12          1           0       -3.821249   -2.725991  -10.084328
     13          1           0       -0.851407   -4.200123   -8.682919
     14          1           0       -2.076227   -4.347187   -9.914143
     15          1           0       -3.548046   -1.482047   -6.686204
     16          1           0       -4.887405   -0.350943   -6.767658
     17          7           0       -6.786191   -1.675556   -8.960249
     18          6           0       -7.940383   -1.679492   -9.865887
     19          6           0       -9.245210   -1.328191   -9.119801
     20          8           0      -10.191208   -2.120614   -9.113390
     21          6           0       -8.063560   -3.036464  -10.592264
     22          6           0       -6.743042   -3.546930  -11.134597
     23          6           0       -6.001960   -2.811906  -12.073095
     24          6           0       -6.230483   -4.775477  -10.696719
     25          6           0       -4.788224   -3.296423  -12.562914
     26          6           0       -5.018216   -5.269559  -11.188171
     27          6           0       -4.292275   -4.529876  -12.124342
     28          1           0       -6.691503   -2.493860   -8.371976
     29          1           0       -7.737574   -0.886870  -10.591203
     30          1           0       -8.488505   -3.770331   -9.900512
     31          1           0       -8.803659   -2.924118  -11.392162
     32          1           0       -6.372044   -1.852171  -12.422764
     33          1           0       -6.797417   -5.366276   -9.980265
     34          1           0       -4.236103   -2.717466  -13.297768
     35          1           0       -4.655353   -6.237789  -10.853545
     36          1           0       -3.363175   -4.919985  -12.532341
     37          7           0       -9.335963   -0.125595   -8.492976
     38          6           0       -8.270631    0.824925   -8.198801
     39          6           0       -7.444414    0.459634   -6.947482
     40          8           0       -6.248021    0.795697   -6.902163
     41          6           0       -8.822456    2.259866   -8.072174
     42          6           0       -9.857516    2.421013   -6.956244
     43          7           0      -10.064640    3.685987   -6.526768
     44          8           0      -10.471557    1.457748   -6.492979
     45          1           0      -10.196960    0.024308   -7.969741
     46          1           0       -7.552264    0.839776   -9.019748
     47          1           0       -9.296010    2.535358   -9.022765
     48          1           0       -7.977630    2.940697   -7.921154
     49          1           0      -10.802117    3.850230   -5.853793
     50          1           0       -9.595070    4.484481   -6.928397
     51          7           0       -8.071552   -0.199499   -5.955389
     52          6           0       -7.417278   -0.492449   -4.688952
     53          6           0       -6.787075   -1.893787   -4.625256
     54          8           0       -6.226042   -2.294598   -3.641577
     55          6           0       -8.289938   -0.153430   -3.457422
     56          6           0       -9.755538   -0.618449   -3.460343
     57          6           0       -9.983352   -2.133832   -3.417973
     58          7           0       -9.356277   -2.840100   -4.541864
     59          6           0       -9.900386   -2.773624   -5.811544
     60          7           0      -10.842138   -1.953724   -6.088039
     61          7           0       -9.146680   -3.535251   -6.760867
     62          8           0       -6.682213   -2.605176   -5.811591
     63          1           0       -7.545625   -2.632660   -6.304138
     64          1           0       -9.078081   -0.336272   -6.024188
     65          1           0       -6.538096    0.162968   -4.644401
     66          1           0       -7.760491   -0.551378   -2.584871
     67          1           0       -8.286083    0.937974   -3.362100
     68          1           0      -10.227537   -0.199584   -2.562762
     69          1           0      -10.300248   -0.191830   -4.307887
     70          1           0       -9.540839   -2.551975   -2.508546
     71          1           0      -11.060838   -2.335362   -3.403566
     72          1           0       -8.863695   -3.691105   -4.304361
     73          1           0      -11.096099   -2.002206   -7.075242
     74          1           0       -9.606534   -3.527549   -7.670971
     75          1           0       -8.964193   -4.493393   -6.464675
 ---------------------------------------------------------------------
 Rotational constants (GHZ):           0.1435899           0.0726973           0.0667619
 Standard basis: 6-31G(d) (6D, 7F)
   657 basis functions,  1236 primitive gaussians,   657 cartesian basis functions
   146 alpha electrons      146 beta electrons
       nuclear repulsion energy      5174.3234035136 Hartrees.
 NAtoms=   75 NActive=   75 NUniq=   75 SFac= 1.00D+00 NAtFMM=   60 NAOKFM=T Big=T
 Integral buffers will be    131072 words long.
 Raffenetti 2 integral format.
 Two-electron integral symmetry is turned off.
 Nuclear repulsion after empirical dispersion term =     5174.1957990683 Hartrees.
 One-electron integrals computed using PRISM.
 NBasis=   657 RedAO= T EigKep=  4.66D-04  NBF=   657
 NBsUse=   657 1.00D-06 EigRej= -1.00D+00 NBFU=   657
 Initial guess from the checkpoint file:  "conf-231.chk"
 B after Tr=     0.000000    0.000000    0.000000
         Rot=    1.000000    0.000000    0.000000    0.000000 Ang=   0.00 deg.
 Requested convergence on RMS density matrix=1.00D-08 within 128 cycles.
 Requested convergence on MAX density matrix=1.00D-06.
 Requested convergence on             energy=1.00D-06.
 No special actions if energy rises.
 SCF Done:  E(RB3LYP) =  -1917.49369840     A.U. after    1 cycles
            NFock=  1  Conv=0.42D-08     -V/T= 2.0093

 **********************************************************************

            Population analysis using the SCF Density.

 **********************************************************************

 Alpha  occ. eigenvalues --  -19.29282 -19.24770 -19.24479 -19.24360 -19.24258
 Alpha  occ. eigenvalues --  -19.23192 -19.22564 -14.54804 -14.49335 -14.48002
 Alpha  occ. eigenvalues --  -14.47652 -14.46959 -14.46527 -14.46482 -14.45261
 Alpha  occ. eigenvalues --  -14.38516 -10.42509 -10.42198 -10.42095 -10.41047
 Alpha  occ. eigenvalues --  -10.40545 -10.40353 -10.38586 -10.38403 -10.35433
 Alpha  occ. eigenvalues --  -10.35267 -10.34491 -10.33378 -10.31604 -10.30590
 Alpha  occ. eigenvalues --  -10.30389 -10.30021 -10.29528 -10.29428 -10.29390
 Alpha  occ. eigenvalues --  -10.29308 -10.29132 -10.28451 -10.26752  -1.19735
 Alpha  occ. eigenvalues --   -1.17138  -1.16119  -1.15801  -1.14958  -1.14276
 Alpha  occ. eigenvalues --   -1.12209  -1.10464  -1.08069  -1.05753  -1.04750
 Alpha  occ. eigenvalues --   -1.03102  -1.02993  -1.01333  -0.99216  -0.95994
 Alpha  occ. eigenvalues --   -0.94637  -0.92383  -0.90183  -0.89417  -0.88524
 Alpha  occ. eigenvalues --   -0.84912  -0.84669  -0.84000  -0.81167  -0.79296
 Alpha  occ. eigenvalues --   -0.77323  -0.77011  -0.73192  -0.72209  -0.71954
 Alpha  occ. eigenvalues --   -0.71614  -0.71227  -0.70505  -0.70144  -0.69470
 Alpha  occ. eigenvalues --   -0.69277  -0.68487  -0.67939  -0.66512  -0.66110
 Alpha  occ. eigenvalues --   -0.65633  -0.64742  -0.64328  -0.64057  -0.63522
 Alpha  occ. eigenvalues --   -0.62492  -0.61922  -0.61179  -0.60524  -0.59616
 Alpha  occ. eigenvalues --   -0.59129  -0.58723  -0.58164  -0.57151  -0.56657
 Alpha  occ. eigenvalues --   -0.55935  -0.55723  -0.55671  -0.55570  -0.55256
 Alpha  occ. eigenvalues --   -0.55008  -0.54494  -0.53956  -0.53547  -0.53480
 Alpha  occ. eigenvalues --   -0.53234  -0.52814  -0.52356  -0.52262  -0.52052
 Alpha  occ. eigenvalues --   -0.51740  -0.51572  -0.50773  -0.50194  -0.49668
 Alpha  occ. eigenvalues --   -0.49206  -0.49035  -0.48652  -0.48300  -0.48064
 Alpha  occ. eigenvalues --   -0.47133  -0.46909  -0.46770  -0.45799  -0.44721
 Alpha  occ. eigenvalues --   -0.44271  -0.44012  -0.43605  -0.42686  -0.42187
 Alpha  occ. eigenvalues --   -0.40306  -0.40038  -0.39545  -0.39231  -0.38975
 Alpha  occ. eigenvalues --   -0.38372  -0.37924  -0.37779  -0.36975  -0.36607
 Alpha  occ. eigenvalues --   -0.36434  -0.35461  -0.35334  -0.35209  -0.34833
 Alpha  occ. eigenvalues --   -0.32918
 Alpha virt. eigenvalues --   -0.12398  -0.11071  -0.10983  -0.10835  -0.10526
 Alpha virt. eigenvalues --   -0.10058  -0.09409  -0.08398  -0.06256  -0.05600
 Alpha virt. eigenvalues --   -0.03680  -0.02656  -0.02471  -0.02127  -0.00666
 Alpha virt. eigenvalues --   -0.00115   0.00443   0.00655   0.01299   0.01515
 Alpha virt. eigenvalues --    0.01833   0.02609   0.03080   0.03394   0.03542
 Alpha virt. eigenvalues --    0.03885   0.04028   0.04497   0.04740   0.05152
 Alpha virt. eigenvalues --    0.05444   0.05970   0.06183   0.06645   0.06847
 Alpha virt. eigenvalues --    0.06943   0.07349   0.07617   0.07988   0.08114
 Alpha virt. eigenvalues --    0.08704   0.08920   0.09081   0.09158   0.09362
 Alpha virt. eigenvalues --    0.09969   0.10184   0.10484   0.10763   0.11344
 Alpha virt. eigenvalues --    0.11553   0.12147   0.13511   0.13590   0.14048
 Alpha virt. eigenvalues --    0.14115   0.14412   0.14883   0.15462   0.16036
 Alpha virt. eigenvalues --    0.16477   0.16922   0.18034   0.18821   0.19960
 Alpha virt. eigenvalues --    0.20329   0.21009   0.21856   0.22224   0.22426
 Alpha virt. eigenvalues --    0.22664   0.23672   0.24139   0.25198   0.25288
 Alpha virt. eigenvalues --    0.25965   0.27061   0.27305   0.29424   0.29525
 Alpha virt. eigenvalues --    0.30903   0.32611   0.33692   0.35365   0.35984
 Alpha virt. eigenvalues --    0.36653   0.36787   0.37364   0.38417   0.40333
 Alpha virt. eigenvalues --    0.40739   0.41701   0.42403   0.42567   0.43343
 Alpha virt. eigenvalues --    0.43660   0.44104   0.44836   0.45122   0.45766
 Alpha virt. eigenvalues --    0.46226   0.46846   0.47065   0.47635   0.47676
 Alpha virt. eigenvalues --    0.48227   0.48279   0.48881   0.49239   0.49316
 Alpha virt. eigenvalues --    0.49784   0.49918   0.50437   0.50784   0.51472
 Alpha virt. eigenvalues --    0.51500   0.51807   0.52046   0.52508   0.52805
 Alpha virt. eigenvalues --    0.53551   0.53792   0.54941   0.55021   0.55353
 Alpha virt. eigenvalues --    0.55536   0.55959   0.56182   0.56741   0.57044
 Alpha virt. eigenvalues --    0.57529   0.57799   0.58596   0.59022   0.59829
 Alpha virt. eigenvalues --    0.60288   0.61019   0.61381   0.61774   0.62216
 Alpha virt. eigenvalues --    0.62710   0.62940   0.63341   0.63906   0.64392
 Alpha virt. eigenvalues --    0.65013   0.65336   0.65741   0.66547   0.67103
 Alpha virt. eigenvalues --    0.68357   0.68836   0.69122   0.69954   0.70828
 Alpha virt. eigenvalues --    0.71428   0.71670   0.72490   0.72693   0.73059
 Alpha virt. eigenvalues --    0.73397   0.73630   0.74174   0.74355   0.74944
 Alpha virt. eigenvalues --    0.75029   0.75558   0.75868   0.76048   0.76292
 Alpha virt. eigenvalues --    0.76467   0.77196   0.77342   0.77438   0.77908
 Alpha virt. eigenvalues --    0.78349   0.78775   0.79250   0.79470   0.79992
 Alpha virt. eigenvalues --    0.80106   0.80841   0.81472   0.81560   0.82072
 Alpha virt. eigenvalues --    0.82395   0.82568   0.83066   0.83426   0.83689
 Alpha virt. eigenvalues --    0.83990   0.84824   0.85166   0.85607   0.85893
 Alpha virt. eigenvalues --    0.86587   0.87618   0.87765   0.88007   0.88789
 Alpha virt. eigenvalues --    0.88931   0.89645   0.90239   0.90733   0.91881
 Alpha virt. eigenvalues --    0.92450   0.92910   0.93314   0.93506   0.93947
 Alpha virt. eigenvalues --    0.94998   0.95307   0.96194   0.96687   0.97444
 Alpha virt. eigenvalues --    0.98170   0.99248   1.00240   1.01378   1.01689
 Alpha virt. eigenvalues --    1.02424   1.03018   1.04120   1.05484   1.05807
 Alpha virt. eigenvalues --    1.06439   1.06847   1.07401   1.08452   1.09111
 Alpha virt. eigenvalues --    1.09216   1.09930   1.10090   1.11275   1.11994
 Alpha virt. eigenvalues --    1.12901   1.13990   1.14714   1.15695   1.16079
 Alpha virt. eigenvalues --    1.16313   1.16613   1.17708   1.18155   1.19384
 Alpha virt. eigenvalues --    1.20172   1.20695   1.21909   1.22472   1.23921
 Alpha virt. eigenvalues --    1.24304   1.25932   1.26430   1.26946   1.27050
 Alpha virt. eigenvalues --    1.27908   1.29032   1.29678   1.30112   1.30742
 Alpha virt. eigenvalues --    1.31410   1.32065   1.32936   1.33838   1.35238
 Alpha virt. eigenvalues --    1.35654   1.36046   1.36582   1.37722   1.37867
 Alpha virt. eigenvalues --    1.38372   1.39500   1.40279   1.41039   1.41591
 Alpha virt. eigenvalues --    1.42234   1.43478   1.43920   1.45288   1.46552
 Alpha virt. eigenvalues --    1.47359   1.49250   1.49559   1.50294   1.50743
 Alpha virt. eigenvalues --    1.51411   1.52295   1.53122   1.53610   1.54493
 Alpha virt. eigenvalues --    1.55821   1.56592   1.56844   1.58597   1.59322
 Alpha virt. eigenvalues --    1.60508   1.60888   1.61473   1.62637   1.62858
 Alpha virt. eigenvalues --    1.63813   1.64413   1.65130   1.65720   1.66342
 Alpha virt. eigenvalues --    1.67165   1.67950   1.68404   1.68767   1.69251
 Alpha virt. eigenvalues --    1.69782   1.70064   1.70543   1.71098   1.71920
 Alpha virt. eigenvalues --    1.72165   1.72825   1.73058   1.74061   1.74699
 Alpha virt. eigenvalues --    1.75374   1.76047   1.76233   1.76340   1.77315
 Alpha virt. eigenvalues --    1.77712   1.78343   1.78721   1.79158   1.79484
 Alpha virt. eigenvalues --    1.79841   1.80581   1.81272   1.81819   1.82400
 Alpha virt. eigenvalues --    1.82881   1.83706   1.84597   1.84981   1.85547
 Alpha virt. eigenvalues --    1.86009   1.86556   1.87084   1.87617   1.88170
 Alpha virt. eigenvalues --    1.88517   1.89285   1.89467   1.90498   1.91292
 Alpha virt. eigenvalues --    1.91577   1.92424   1.93456   1.93981   1.94615
 Alpha virt. eigenvalues --    1.95362   1.95689   1.96293   1.96731   1.98159
 Alpha virt. eigenvalues --    1.98318   1.98879   1.99493   2.00900   2.02368
 Alpha virt. eigenvalues --    2.03188   2.03609   2.04553   2.05103   2.05199
 Alpha virt. eigenvalues --    2.06026   2.06160   2.06952   2.07862   2.08613
 Alpha virt. eigenvalues --    2.09945   2.11063   2.11296   2.12825   2.13658
 Alpha virt. eigenvalues --    2.14046   2.15085   2.15431   2.16027   2.17163
 Alpha virt. eigenvalues --    2.17823   2.18916   2.19735   2.20891   2.21112
 Alpha virt. eigenvalues --    2.21933   2.23522   2.24256   2.24698   2.25023
 Alpha virt. eigenvalues --    2.25978   2.27386   2.27747   2.29587   2.30348
 Alpha virt. eigenvalues --    2.30612   2.31163   2.31975   2.32570   2.32935
 Alpha virt. eigenvalues --    2.33961   2.34423   2.36535   2.37184   2.38357
 Alpha virt. eigenvalues --    2.38781   2.39622   2.40279   2.41785   2.43027
 Alpha virt. eigenvalues --    2.44241   2.44675   2.46068   2.46988   2.47876
 Alpha virt. eigenvalues --    2.48098   2.48831   2.49416   2.50178   2.51276
 Alpha virt. eigenvalues --    2.52227   2.52386   2.52549   2.53137   2.54713
 Alpha virt. eigenvalues --    2.55296   2.55511   2.56614   2.57681   2.59714
 Alpha virt. eigenvalues --    2.60145   2.60885   2.61470   2.62131   2.62639
 Alpha virt. eigenvalues --    2.64189   2.64740   2.64938   2.65428   2.65798
 Alpha virt. eigenvalues --    2.67302   2.69119   2.70140   2.73631   2.75243
 Alpha virt. eigenvalues --    2.75541   2.79519   2.81562   2.83417   2.84735
 Alpha virt. eigenvalues --    2.87479   2.88225   2.89024   2.89848   2.90966
 Alpha virt. eigenvalues --    2.91903   2.92795   2.94759   2.96356   2.96565
 Alpha virt. eigenvalues --    2.96773   2.99543   3.00397   3.02602   3.05672
 Alpha virt. eigenvalues --    3.08525   3.30343   3.70645   3.71134   3.78572
 Alpha virt. eigenvalues --    3.80049   3.87053   3.88876   3.92048   3.93841
 Alpha virt. eigenvalues --    3.95323   3.97433   3.99649   4.02091   4.03226
 Alpha virt. eigenvalues --    4.06240   4.08643   4.09265   4.09889   4.13942
 Alpha virt. eigenvalues --    4.14741   4.17272   4.17652   4.20763   4.23433
 Alpha virt. eigenvalues --    4.26985   4.28187   4.30863   4.32143   4.33800
 Alpha virt. eigenvalues --    4.37286   4.39604   4.41933   4.42961   4.47748
 Alpha virt. eigenvalues --    4.50501   4.55709   4.58451   4.59829   4.62849
 Alpha virt. eigenvalues --    4.67372
          Condensed to atoms (all electrons):
 Mulliken charges:
               1
     1  N   -0.804237
     2  C   -0.121998
     3  C    0.655506
     4  O   -0.497739
     5  C   -0.411240
     6  C    0.641029
     7  N   -0.737806
     8  O   -0.529720
     9  H    0.424439
    10  H    0.231528
    11  H    0.192900
    12  H    0.222423
    13  H    0.372803
    14  H    0.360237
    15  H    0.429800
    16  H    0.439882
    17  N   -0.617707
    18  C   -0.089168
    19  C    0.638586
    20  O   -0.533545
    21  C   -0.367461
    22  C    0.166770
    23  C   -0.177448
    24  C   -0.207311
    25  C   -0.139710
    26  C   -0.134024
    27  C   -0.159448
    28  H    0.333016
    29  H    0.218767
    30  H    0.158468
    31  H    0.199525
    32  H    0.157485
    33  H    0.135013
    34  H    0.161481
    35  H    0.152390
    36  H    0.151810
    37  N   -0.619242
    38  C   -0.077645
    39  C    0.640636
    40  O   -0.591585
    41  C   -0.393071
    42  C    0.608513
    43  N   -0.734538
    44  O   -0.520454
    45  H    0.384344
    46  H    0.210704
    47  H    0.210634
    48  H    0.196807
    49  H    0.366417
    50  H    0.359326
    51  N   -0.630366
    52  C   -0.061492
    53  C    0.598773
    54  O   -0.416872
    55  C   -0.282835
    56  C   -0.310407
    57  C   -0.116849
    58  N   -0.613590
    59  C    0.543462
    60  N   -0.646409
    61  N   -0.836753
    62  O   -0.695534
    63  H    0.471046
    64  H    0.410885
    65  H    0.200790
    66  H    0.181339
    67  H    0.160620
    68  H    0.162225
    69  H    0.205908
    70  H    0.159216
    71  H    0.182892
    72  H    0.338639
    73  H    0.319790
    74  H    0.379846
    75  H    0.339537
 Sum of Mulliken charges =   1.00000
 Mulliken charges with hydrogens summed into heavy atoms:
               1
     1  N    0.489883
     2  C    0.109531
     3  C    0.655506
     4  O   -0.497739
     5  C    0.004082
     6  C    0.641029
     7  N   -0.004766
     8  O   -0.529720
    17  N   -0.284692
    18  C    0.129599
    19  C    0.638586
    20  O   -0.533545
    21  C   -0.009468
    22  C    0.166770
    23  C   -0.019963
    24  C   -0.072298
    25  C    0.021771
    26  C    0.018365
    27  C   -0.007638
    37  N   -0.234898
    38  C    0.133059
    39  C    0.640636
    40  O   -0.591585
    41  C    0.014370
    42  C    0.608513
    43  N   -0.008795
    44  O   -0.520454
    51  N   -0.219481
    52  C    0.139298
    53  C    0.598773
    54  O   -0.416872
    55  C    0.059123
    56  C    0.057727
    57  C    0.225260
    58  N   -0.274952
    59  C    0.543462
    60  N   -0.326619
    61  N   -0.117371
    62  O   -0.224488
 Electronic spatial extent (au):  <R**2>=         135425.1268
 Charge=              1.0000 electrons
 Dipole moment (field-independent basis, Debye):
    X=            -30.5298    Y=             -7.2023    Z=            -38.8369  Tot=             49.9224
 Quadrupole moment (field-independent basis, Debye-Ang):
   XX=              2.2899   YY=           -143.8703   ZZ=            114.8545
   XY=              8.7716   XZ=            216.5686   YZ=             75.7744
 Traceless Quadrupole moment (field-independent basis, Debye-Ang):
   XX=             11.1985   YY=           -134.9617   ZZ=            123.7631
   XY=              8.7716   XZ=            216.5686   YZ=             75.7744
 Octapole moment (field-independent basis, Debye-Ang**2):
  XXX=           3116.5176  YYY=            881.4610  ZZZ=           2086.1304  XYY=           1069.7594
  XXY=            457.1489  XXZ=            263.9055  XZZ=           -118.5152  YZZ=           -440.0548
  YYZ=           1088.2861  XYZ=            -95.8334
 Hexadecapole moment (field-independent basis, Debye-Ang**3):
 XXXX=         -65116.6670 YYYY=          -7181.6184 ZZZZ=         -59500.7423 XXXY=          -8191.1775
 XXXZ=         -25268.3157 YYYX=          -5647.1546 YYYZ=          -7813.7521 ZZZX=         -20764.5506
 ZZZY=          -1216.4368 XXYY=          -9714.4659 XXZZ=         -16697.9051 YYZZ=         -10993.6039
 XXYZ=          -4108.4344 YYXZ=          -8132.6055 ZZXY=           -829.9004
 N-N= 5.174195799068D+03 E-N=-1.478715534672D+04  KE= 1.899791155199D+03
 Unable to Open any file for archive entry.
 1\1\GINC-AMR-120\SP\RB3LYP\6-31G(d)\C23H36N9O7(1+)\KENGMITH\06-Jun-202
 2\0\\# B3LYP/6-31G* empiricaldispersion=gd3 guess=read geom=check nosy
 mm integral(ultrafinegrid)\\Candidate Structure: Conf:231 Charge calc 
 in gas phase\\1,1\N,0,-4.498764063,-1.2748607616,-7.0544340567\C,0,-4.
 3677505751,-1.3294138372,-8.5525049543\C,0,-5.663280473,-0.963634392,-
 9.2882575486\O,0,-5.6443464143,-0.0968787454,-10.1476940839\C,0,-3.851
 822736,-2.7020255431,-8.9909110622\C,0,-2.4815653543,-3.0105742377,-8.
 3884279999\N,0,-1.7541196574,-3.9297319396,-9.0519960813\O,0,-2.095520
 6102,-2.4630216337,-7.350568421\H,0,-5.1633786674,-1.9757446731,-6.677
 2730945\H,0,-3.6492905954,-0.5527489396,-8.8176780112\H,0,-4.550536587
 4,-3.4957822969,-8.6979927207\H,0,-3.8212487246,-2.7259912909,-10.0843
 280338\H,0,-0.8514071077,-4.2001231076,-8.6829193001\H,0,-2.0762274055
 ,-4.3471868272,-9.9141433544\H,0,-3.5480461037,-1.4820468217,-6.686203
 7731\H,0,-4.8874046014,-0.3509425411,-6.7676578373\N,0,-6.7861908825,-
 1.6755560566,-8.9602486125\C,0,-7.9403830516,-1.6794924979,-9.86588726
 51\C,0,-9.2452104394,-1.328191153,-9.1198007324\O,0,-10.1912077082,-2.
 1206143439,-9.1133902848\C,0,-8.063559854,-3.0364639274,-10.5922644207
 \C,0,-6.7430420927,-3.546930456,-11.1345971359\C,0,-6.0019599865,-2.81
 19055956,-12.0730948201\C,0,-6.2304827842,-4.7754769956,-10.6967192455
 \C,0,-4.7882236864,-3.2964231141,-12.5629144694\C,0,-5.0182164588,-5.2
 695586994,-11.1881705916\C,0,-4.2922747202,-4.529875895,-12.1243422569
 \H,0,-6.6915031123,-2.4938601697,-8.3719759274\H,0,-7.7375736546,-0.88
 68701332,-10.5912031797\H,0,-8.488505383,-3.7703310054,-9.9005122023\H
 ,0,-8.8036587335,-2.9241176322,-11.39216178\H,0,-6.3720442535,-1.85217
 10789,-12.4227638851\H,0,-6.7974168136,-5.3662760747,-9.9802654653\H,0
 ,-4.2361034685,-2.7174659838,-13.2977684064\H,0,-4.6553534282,-6.23778
 89594,-10.8535445661\H,0,-3.3631752435,-4.9199845376,-12.5323407114\N,
 0,-9.3359628793,-0.1255951733,-8.492975691\C,0,-8.2706311017,0.8249246
 344,-8.1988010609\C,0,-7.4444141057,0.4596339221,-6.9474818486\O,0,-6.
 2480206498,0.7956970965,-6.9021625279\C,0,-8.8224559516,2.2598662462,-
 8.072173606\C,0,-9.857515637,2.4210133423,-6.9562435348\N,0,-10.064639
 896,3.6859874273,-6.5267680991\O,0,-10.4715570947,1.4577483603,-6.4929
 786823\H,0,-10.1969599943,0.0243081829,-7.9697407895\H,0,-7.5522641035
 ,0.8397761329,-9.0197481938\H,0,-9.2960097334,2.535357596,-9.022765454
 \H,0,-7.9776297352,2.9406971607,-7.9211540154\H,0,-10.8021168768,3.850
 2300669,-5.8537925517\H,0,-9.5950695726,4.4844810922,-6.9283966631\N,0
 ,-8.071552173,-0.1994987493,-5.9553886045\C,0,-7.4172784559,-0.4924486
 519,-4.6889516873\C,0,-6.7870746409,-1.8937874323,-4.6252561016\O,0,-6
 .2260418983,-2.2945981025,-3.6415769722\C,0,-8.2899379888,-0.153430098
 2,-3.4574220486\C,0,-9.7555379148,-0.6184493365,-3.4603426037\C,0,-9.9
 833524066,-2.1338324534,-3.4179729509\N,0,-9.3562770107,-2.840099807,-
 4.5418636475\C,0,-9.9003862051,-2.773624,-5.811543798\N,0,-10.84213773
 37,-1.9537236676,-6.0880393298\N,0,-9.1466803841,-3.5352513502,-6.7608
 674358\O,0,-6.6822131577,-2.6051760128,-5.8115909398\H,0,-7.5456248078
 ,-2.632659777,-6.3041383985\H,0,-9.078081119,-0.3362722501,-6.02418824
 63\H,0,-6.5380959307,0.162967675,-4.6444005952\H,0,-7.7604908908,-0.55
 13782305,-2.5848711374\H,0,-8.2860833979,0.9379740098,-3.3621001976\H,
 0,-10.2275368979,-0.1995843868,-2.5627620687\H,0,-10.3002482053,-0.191
 8298645,-4.3078865505\H,0,-9.54083851,-2.5519754402,-2.5085455989\H,0,
 -11.0608380033,-2.3353618011,-3.403565646\H,0,-8.8636952802,-3.6911049
 323,-4.3043605293\H,0,-11.0960991123,-2.0022058898,-7.07524153\H,0,-9.
 6065344453,-3.5275485641,-7.6709714315\H,0,-8.964192577,-4.4933930767,
 -6.4646748201\\Version=ES64L-G16RevC.01\HF=-1917.4936984\RMSD=4.214e-0
 9\Dipole=1.5117762,0.00982,-0.7384361\Quadrupole=8.3258246,-100.340685
 3,92.0148607,6.5214404,161.0134471,56.3363959\PG=C01 [X(C23H36N9O7)]\\
 @
 The archive entry for this job was punched.


 WHAT, THEN, IS TIME?  IF NO ONE ASKS ME, I KNOW WHAT IT IS.
 IF I WISH TO EXPLAIN WHAT IT IS TO HIM WHO ASKS ME, I DO NOT KNOW.
                                   -- ST. AUGUSTINE (FIFTH CENTURY)
 Job cpu time:       0 days  0 hours  1 minutes 59.8 seconds.
 Elapsed time:       0 days  0 hours  0 minutes 30.6 seconds.
 File lengths (MBytes):  RWF=    344 Int=      0 D2E=      0 Chk=     48 Scr=     16
 Normal termination of Gaussian 16 at Mon Jun  6 02:41:29 2022.
