 Entering Gaussian System, Link 0=/opt/software/Gaussian/g16-AVX2-C.01/g16/g16
 Input=charge-conf-135.com
 Output=charge-conf-135.log
 Initial command:
 /opt/software/Gaussian/g16-AVX2-C.01/g16/l1.exe "/mnt/gs18/scratch/users/kengmith/Gau-72458.inp" -scrdir="/mnt/gs18/scratch/users/kengmith/"
 Entering Link 1 = /opt/software/Gaussian/g16-AVX2-C.01/g16/l1.exe PID=     72475.
  
 Copyright (c) 1988-2019, Gaussian, Inc.  All Rights Reserved.
  
 This is part of the Gaussian(R) 16 program.  It is based on
 the Gaussian(R) 09 system (copyright 2009, Gaussian, Inc.),
 the Gaussian(R) 03 system (copyright 2003, Gaussian, Inc.),
 the Gaussian(R) 98 system (copyright 1998, Gaussian, Inc.),
 the Gaussian(R) 94 system (copyright 1995, Gaussian, Inc.),
 the Gaussian 92(TM) system (copyright 1992, Gaussian, Inc.),
 the Gaussian 90(TM) system (copyright 1990, Gaussian, Inc.),
 the Gaussian 88(TM) system (copyright 1988, Gaussian, Inc.),
 the Gaussian 86(TM) system (copyright 1986, Carnegie Mellon
 University), and the Gaussian 82(TM) system (copyright 1983,
 Carnegie Mellon University). Gaussian is a federally registered
 trademark of Gaussian, Inc.
  
 This software contains proprietary and confidential information,
 including trade secrets, belonging to Gaussian, Inc.
  
 This software is provided under written license and may be
 used, copied, transmitted, or stored only in accord with that
 written license.
  
 The following legend is applicable only to US Government
 contracts under FAR:
  
                    RESTRICTED RIGHTS LEGEND
  
 Use, reproduction and disclosure by the US Government is
 subject to restrictions as set forth in subparagraphs (a)
 and (c) of the Commercial Computer Software - Restricted
 Rights clause in FAR 52.227-19.
  
 Gaussian, Inc.
 340 Quinnipiac St., Bldg. 40, Wallingford CT 06492
  
  
 ---------------------------------------------------------------
 Warning -- This program may not be used in any manner that
 competes with the business of Gaussian, Inc. or will provide
 assistance to any competitor of Gaussian, Inc.  The licensee
 of this program is prohibited from giving any competitor of
 Gaussian, Inc. access to this program.  By using this program,
 the user acknowledges that Gaussian, Inc. is engaged in the
 business of creating and licensing software in the field of
 computational chemistry and represents and warrants to the
 licensee that it is not a competitor of Gaussian, Inc. and that
 it will not use this program in any manner prohibited above.
 ---------------------------------------------------------------
  

 Cite this work as:
 Gaussian 16, Revision C.01,
 M. J. Frisch, G. W. Trucks, H. B. Schlegel, G. E. Scuseria, 
 M. A. Robb, J. R. Cheeseman, G. Scalmani, V. Barone, 
 G. A. Petersson, H. Nakatsuji, X. Li, M. Caricato, A. V. Marenich, 
 J. Bloino, B. G. Janesko, R. Gomperts, B. Mennucci, H. P. Hratchian, 
 J. V. Ortiz, A. F. Izmaylov, J. L. Sonnenberg, D. Williams-Young, 
 F. Ding, F. Lipparini, F. Egidi, J. Goings, B. Peng, A. Petrone, 
 T. Henderson, D. Ranasinghe, V. G. Zakrzewski, J. Gao, N. Rega, 
 G. Zheng, W. Liang, M. Hada, M. Ehara, K. Toyota, R. Fukuda, 
 J. Hasegawa, M. Ishida, T. Nakajima, Y. Honda, O. Kitao, H. Nakai, 
 T. Vreven, K. Throssell, J. A. Montgomery, Jr., J. E. Peralta, 
 F. Ogliaro, M. J. Bearpark, J. J. Heyd, E. N. Brothers, K. N. Kudin, 
 V. N. Staroverov, T. A. Keith, R. Kobayashi, J. Normand, 
 K. Raghavachari, A. P. Rendell, J. C. Burant, S. S. Iyengar, 
 J. Tomasi, M. Cossi, J. M. Millam, M. Klene, C. Adamo, R. Cammi, 
 J. W. Ochterski, R. L. Martin, K. Morokuma, O. Farkas, 
 J. B. Foresman, and D. J. Fox, Gaussian, Inc., Wallingford CT, 2019.
 
 ******************************************
 Gaussian 16:  ES64L-G16RevC.01  3-Jul-2019
                 6-Jun-2022 
 ******************************************
 %mem=8gb
 %nproc=4
 Will use up to    4 processors via shared memory.
 %chk=conf-135.chk
 ----------------------------------------------------------------------
 # B3LYP/6-31G* empiricaldispersion=gd3 guess=read geom=check nosymm in
 tegral(ultrafinegrid)
 ----------------------------------------------------------------------
 1/29=2,38=1,172=1/1;
 2/12=2,15=1,40=1/2;
 3/5=1,6=6,7=1,11=2,14=-4,25=1,30=1,74=-5,75=-5,116=-2,124=31/1,2,3;
 4/5=1/1;
 5/5=2,38=6/2;
 6/7=2,8=2,9=2,10=2,28=1/1;
 99/5=1,9=1/99;
 ------------------------------------------------------
 Candidate Structure: Conf:135 Charge calc in gas phase
 ------------------------------------------------------
 Structure from the checkpoint file:  "conf-135.chk"
 Charge =  1 Multiplicity = 1
 Redundant internal coordinates found in file.  (old form).
 N,0,-7.7454431603,1.188573078,-7.3818969306
 C,0,-9.0110870979,0.6172888429,-6.804886505
 C,0,-8.893335767,-0.8459477397,-6.3654580997
 O,0,-9.3679921309,-1.1727308799,-5.2861942695
 C,0,-10.1564016238,0.7653707624,-7.809366317
 C,0,-10.4019832987,2.2208990223,-8.196167556
 N,0,-11.6303293251,2.4882919321,-8.6789592144
 O,0,-9.5154987374,3.0781845721,-8.0961413731
 H,0,-7.9664688913,2.1842481341,-7.5896661257
 H,0,-9.2144902813,1.1904655591,-5.8994791349
 H,0,-9.9427047023,0.1869271437,-8.7167595589
 H,0,-11.0525488925,0.3097802586,-7.3780868181
 H,0,-11.8458964786,3.4297228235,-8.9810389432
 H,0,-12.3468123645,1.7775833848,-8.7376148741
 H,0,-6.9496363733,1.0328911057,-6.7219399248
 H,0,-7.4786019473,0.7219395683,-8.2652843524
 N,0,-8.3479487269,-1.7284432543,-7.2488223982
 C,0,-8.5825373314,-3.1626199904,-7.0800700067
 C,0,-7.2814289763,-3.9886078214,-7.1205779637
 O,0,-7.1953387802,-4.9618144904,-7.8700935134
 C,0,-9.5927379832,-3.6760883912,-8.1298459095
 C,0,-10.8275604627,-2.8054603026,-8.2542224897
 C,0,-11.6702729068,-2.5639837722,-7.1581706174
 C,0,-11.1553061503,-2.2213996932,-9.4852832836
 C,0,-12.8069714362,-1.7652088711,-7.2921085082
 C,0,-12.2954071599,-1.4247219963,-9.6278945274
 C,0,-13.1259440852,-1.1930315882,-8.5290419614
 H,0,-7.9445319539,-1.4173215286,-8.1277118586
 H,0,-9.0080424326,-3.2664161529,-6.0775494777
 H,0,-9.0903351904,-3.7370549578,-9.1001245935
 H,0,-9.8583844499,-4.7057795266,-7.8681824547
 H,0,-11.4359586609,-2.9964399526,-6.1897715919
 H,0,-10.5219693511,-2.4083183889,-10.3499503603
 H,0,-13.4513543392,-1.6006268656,-6.4331242634
 H,0,-12.541260944,-1.0039013996,-10.5993290948
 H,0,-14.030212923,-0.5992649259,-8.6386463054
 N,0,-6.2542574102,-3.6466256361,-6.2923230511
 C,0,-6.1075456864,-2.4448271205,-5.4831347681
 C,0,-5.6636404665,-1.2055620923,-6.2859835604
 O,0,-5.922885462,-0.0747349229,-5.8308930985
 C,0,-5.1526586803,-2.6766298886,-4.2954010106
 C,0,-3.7316308203,-3.0480818312,-4.7249932851
 N,0,-2.7780215281,-2.9081665158,-3.7742772841
 O,0,-3.4822072054,-3.456542071,-5.8588007055
 H,0,-5.3935010214,-4.1686022011,-6.4440030527
 H,0,-7.0733644995,-2.1745902461,-5.0520469148
 H,0,-5.5550607603,-3.4882804174,-3.6767709501
 H,0,-5.1465131811,-1.7701724198,-3.6803980618
 H,0,-1.8408338107,-3.2258178487,-3.9841183105
 H,0,-2.9851371674,-2.6143063851,-2.830921677
 N,0,-5.0240704293,-1.4162611579,-7.4473953396
 C,0,-4.5178050978,-0.336646382,-8.273436444
 C,0,-5.4225015522,-0.1369260774,-9.4891275089
 O,0,-6.6332296399,-0.3854211947,-9.503819581
 C,0,-3.0044103117,-0.4585479491,-8.5569814975
 C,0,-2.5047775317,-1.8152235548,-9.071015204
 C,0,-3.0288610727,-2.2362012337,-10.4463265227
 N,0,-4.5026687744,-2.3097706537,-10.5337067216
 C,0,-5.1557639385,-3.4190147926,-9.9724453563
 N,0,-4.5610057787,-4.1174756942,-9.0739184907
 N,0,-6.4319817843,-3.6148762627,-10.4893164386
 O,0,-4.8471065258,0.5829099206,-10.4554021568
 H,0,-5.5243121481,0.7730216975,-11.1326882121
 H,0,-4.7835563434,-2.3725286284,-7.7189777419
 H,0,-4.6618984493,0.5868626889,-7.6940921328
 H,0,-2.7272639812,0.3437094334,-9.2491338072
 H,0,-2.5016382,-0.2463868784,-7.6070233972
 H,0,-1.4124556427,-1.7500073014,-9.1510805533
 H,0,-2.7102166414,-2.6035808417,-8.3428735997
 H,0,-2.7225373488,-1.4980224199,-11.1953007989
 H,0,-2.5890265107,-3.2044899586,-10.7131793191
 H,0,-4.824534582,-2.1379478227,-11.4808974927
 H,0,-5.1756827209,-4.8547520633,-8.7279063789
 H,0,-6.9962989286,-4.2577093303,-9.9427785852
 H,0,-6.9303538696,-2.7738587641,-10.7582090018
 Recover connectivity data from disk.
                           ----------------------------
                           !    Current Parameters    !
                           ! (Angstroms and Degrees)  !
 --------------------------                            --------------------------
 ! Name  Definition              Value                                          !
 --------------------------------------------------------------------------------
 ! R1    R(1,2)                  1.5037                                         !
 ! R2    R(1,9)                  1.0409                                         !
 ! R3    R(1,15)                 1.0455                                         !
 ! R4    R(1,16)                 1.0341                                         !
 ! R5    R(2,3)                  1.5323                                         !
 ! R6    R(2,5)                  1.5306                                         !
 ! R7    R(2,10)                 1.0907                                         !
 ! R8    R(3,4)                  1.2235                                         !
 ! R9    R(3,17)                 1.3626                                         !
 ! R10   R(5,6)                  1.5259                                         !
 ! R11   R(5,11)                 1.0971                                         !
 ! R12   R(5,12)                 1.0939                                         !
 ! R13   R(6,7)                  1.3466                                         !
 ! R14   R(6,8)                  1.2373                                         !
 ! R15   R(7,13)                 1.0119                                         !
 ! R16   R(7,14)                 1.0109                                         !
 ! R17   R(17,18)                1.463                                          !
 ! R18   R(17,28)                1.0159                                         !
 ! R19   R(18,19)                1.5417                                         !
 ! R20   R(18,21)                1.5447                                         !
 ! R21   R(18,29)                1.094                                          !
 ! R22   R(19,20)                1.2314                                         !
 ! R23   R(19,37)                1.3631                                         !
 ! R24   R(21,22)                1.516                                          !
 ! R25   R(21,30)                1.0943                                         !
 ! R26   R(21,31)                1.0951                                         !
 ! R27   R(22,23)                1.4035                                         !
 ! R28   R(22,24)                1.4014                                         !
 ! R29   R(23,25)                1.3957                                         !
 ! R30   R(23,32)                1.0861                                         !
 ! R31   R(24,26)                1.3982                                         !
 ! R32   R(24,33)                1.088                                          !
 ! R33   R(25,27)                1.3997                                         !
 ! R34   R(25,34)                1.0864                                         !
 ! R35   R(26,27)                1.3968                                         !
 ! R36   R(26,35)                1.0868                                         !
 ! R37   R(27,36)                1.0873                                         !
 ! R38   R(37,38)                1.4562                                         !
 ! R39   R(37,45)                1.018                                          !
 ! R40   R(38,39)                1.5419                                         !
 ! R41   R(38,41)                1.5415                                         !
 ! R42   R(38,46)                1.0916                                         !
 ! R43   R(39,40)                1.2462                                         !
 ! R44   R(39,51)                1.3425                                         !
 ! R45   R(41,42)                1.5303                                         !
 ! R46   R(41,47)                1.097                                          !
 ! R47   R(41,48)                1.0954                                         !
 ! R48   R(42,43)                1.3538                                         !
 ! R49   R(42,44)                1.2307                                         !
 ! R50   R(43,49)                1.0116                                         !
 ! R51   R(43,50)                1.0095                                         !
 ! R52   R(51,52)                1.4506                                         !
 ! R53   R(51,64)                1.0228                                         !
 ! R54   R(52,53)                1.5285                                         !
 ! R55   R(52,55)                1.5445                                         !
 ! R56   R(52,65)                1.0997                                         !
 ! R57   R(53,54)                1.2361                                         !
 ! R58   R(53,62)                1.3353                                         !
 ! R59   R(55,56)                1.5344                                         !
 ! R60   R(55,66)                1.0952                                         !
 ! R61   R(55,67)                1.0955                                         !
 ! R62   R(56,57)                1.5308                                         !
 ! R63   R(56,68)                1.0972                                         !
 ! R64   R(56,69)                1.0927                                         !
 ! R65   R(57,58)                1.4782                                         !
 ! R66   R(57,70)                1.0953                                         !
 ! R67   R(57,71)                1.0965                                         !
 ! R68   R(58,59)                1.4043                                         !
 ! R69   R(58,72)                1.015                                          !
 ! R70   R(59,60)                1.2841                                         !
 ! R71   R(59,61)                1.3908                                         !
 ! R72   R(60,73)                1.0204                                         !
 ! R73   R(61,74)                1.0151                                         !
 ! R74   R(61,75)                1.0139                                         !
 ! R75   R(62,63)                0.9765                                         !
 ! A1    A(2,1,9)              105.1466                                         !
 ! A2    A(2,1,15)             109.9907                                         !
 ! A3    A(2,1,16)             111.9352                                         !
 ! A4    A(9,1,15)             115.4724                                         !
 ! A5    A(9,1,16)             108.4174                                         !
 ! A6    A(15,1,16)            105.9997                                         !
 ! A7    A(1,2,3)              114.0885                                         !
 ! A8    A(1,2,5)              109.9521                                         !
 ! A9    A(1,2,10)             106.0123                                         !
 ! A10   A(3,2,5)              109.7606                                         !
 ! A11   A(3,2,10)             106.1463                                         !
 ! A12   A(5,2,10)             110.756                                          !
 ! A13   A(2,3,4)              118.5684                                         !
 ! A14   A(2,3,17)             117.601                                          !
 ! A15   A(4,3,17)             123.6549                                         !
 ! A16   A(2,5,6)              112.2761                                         !
 ! A17   A(2,5,11)             110.2447                                         !
 ! A18   A(2,5,12)             108.299                                          !
 ! A19   A(6,5,11)             108.9423                                         !
 ! A20   A(6,5,12)             111.4295                                         !
 ! A21   A(11,5,12)            105.4301                                         !
 ! A22   A(5,6,7)              115.2825                                         !
 ! A23   A(5,6,8)              121.6762                                         !
 ! A24   A(7,6,8)              123.0218                                         !
 ! A25   A(6,7,13)             119.0823                                         !
 ! A26   A(6,7,14)             121.8509                                         !
 ! A27   A(13,7,14)            119.0625                                         !
 ! A28   A(3,17,18)            119.7324                                         !
 ! A29   A(3,17,28)            121.4321                                         !
 ! A30   A(18,17,28)           117.626                                          !
 ! A31   A(17,18,19)           112.7592                                         !
 ! A32   A(17,18,21)           110.6296                                         !
 ! A33   A(17,18,29)           105.1337                                         !
 ! A34   A(19,18,21)           110.853                                          !
 ! A35   A(19,18,29)           107.5472                                         !
 ! A36   A(21,18,29)           109.6857                                         !
 ! A37   A(18,19,20)           119.8965                                         !
 ! A38   A(18,19,37)           119.0507                                         !
 ! A39   A(20,19,37)           121.0273                                         !
 ! A40   A(18,21,22)           113.4241                                         !
 ! A41   A(18,21,30)           108.7133                                         !
 ! A42   A(18,21,31)           107.9867                                         !
 ! A43   A(22,21,30)           109.463                                          !
 ! A44   A(22,21,31)           111.2231                                         !
 ! A45   A(30,21,31)           105.7137                                         !
 ! A46   A(21,22,23)           121.5883                                         !
 ! A47   A(21,22,24)           120.1255                                         !
 ! A48   A(23,22,24)           118.286                                          !
 ! A49   A(22,23,25)           120.8323                                         !
 ! A50   A(22,23,32)           119.884                                          !
 ! A51   A(25,23,32)           119.2825                                         !
 ! A52   A(22,24,26)           121.1824                                         !
 ! A53   A(22,24,33)           119.3658                                         !
 ! A54   A(26,24,33)           119.4398                                         !
 ! A55   A(23,25,27)           120.288                                          !
 ! A56   A(23,25,34)           119.5973                                         !
 ! A57   A(27,25,34)           120.1094                                         !
 ! A58   A(24,26,27)           119.943                                          !
 ! A59   A(24,26,35)           119.7523                                         !
 ! A60   A(27,26,35)           120.2943                                         !
 ! A61   A(25,27,26)           119.4668                                         !
 ! A62   A(25,27,36)           120.1214                                         !
 ! A63   A(26,27,36)           120.3837                                         !
 ! A64   A(19,37,38)           128.3606                                         !
 ! A65   A(19,37,45)           114.7068                                         !
 ! A66   A(38,37,45)           114.8824                                         !
 ! A67   A(37,38,39)           113.7643                                         !
 ! A68   A(37,38,41)           111.497                                          !
 ! A69   A(37,38,46)           109.5481                                         !
 ! A70   A(39,38,41)           110.1035                                         !
 ! A71   A(39,38,46)           105.1515                                         !
 ! A72   A(41,38,46)           106.3204                                         !
 ! A73   A(38,39,40)           118.6381                                         !
 ! A74   A(38,39,51)           117.482                                          !
 ! A75   A(40,39,51)           123.8782                                         !
 ! A76   A(38,41,42)           113.292                                          !
 ! A77   A(38,41,47)           108.5746                                         !
 ! A78   A(38,41,48)           108.1572                                         !
 ! A79   A(42,41,47)           108.6231                                         !
 ! A80   A(42,41,48)           110.6867                                         !
 ! A81   A(47,41,48)           107.3197                                         !
 ! A82   A(41,42,43)           115.5859                                         !
 ! A83   A(41,42,44)           121.829                                          !
 ! A84   A(43,42,44)           122.5827                                         !
 ! A85   A(42,43,49)           118.3247                                         !
 ! A86   A(42,43,50)           122.8052                                         !
 ! A87   A(49,43,50)           118.3804                                         !
 ! A88   A(39,51,52)           122.8264                                         !
 ! A89   A(39,51,64)           119.2413                                         !
 ! A90   A(52,51,64)           117.554                                          !
 ! A91   A(51,52,53)           110.0959                                         !
 ! A92   A(51,52,55)           112.8156                                         !
 ! A93   A(51,52,65)           106.2181                                         !
 ! A94   A(53,52,55)           116.3757                                         !
 ! A95   A(53,52,65)           103.399                                          !
 ! A96   A(55,52,65)           106.941                                          !
 ! A97   A(52,53,54)           124.2599                                         !
 ! A98   A(52,53,62)           113.0135                                         !
 ! A99   A(54,53,62)           121.4578                                         !
 ! A100  A(52,55,56)           116.7649                                         !
 ! A101  A(52,55,66)           107.8275                                         !
 ! A102  A(52,55,67)           105.9741                                         !
 ! A103  A(56,55,66)           110.7044                                         !
 ! A104  A(56,55,67)           108.1965                                         !
 ! A105  A(66,55,67)           106.8584                                         !
 ! A106  A(55,56,57)           115.6355                                         !
 ! A107  A(55,56,68)           107.2214                                         !
 ! A108  A(55,56,69)           110.6992                                         !
 ! A109  A(57,56,68)           106.9552                                         !
 ! A110  A(57,56,69)           109.6284                                         !
 ! A111  A(68,56,69)           106.1825                                         !
 ! A112  A(56,57,58)           114.0873                                         !
 ! A113  A(56,57,70)           109.4667                                         !
 ! A114  A(56,57,71)           108.9156                                         !
 ! A115  A(58,57,70)           105.7805                                         !
 ! A116  A(58,57,71)           109.9744                                         !
 ! A117  A(70,57,71)           108.4546                                         !
 ! A118  A(57,58,59)           118.6446                                         !
 ! A119  A(57,58,72)           111.2776                                         !
 ! A120  A(59,58,72)           111.0515                                         !
 ! A121  A(58,59,60)           119.598                                          !
 ! A122  A(58,59,61)           112.9218                                         !
 ! A123  A(60,59,61)           127.4787                                         !
 ! A124  A(59,60,73)           110.5662                                         !
 ! A125  A(59,61,74)           113.5299                                         !
 ! A126  A(59,61,75)           115.6454                                         !
 ! A127  A(74,61,75)           113.2553                                         !
 ! A128  A(53,62,63)           107.9413                                         !
 ! D1    D(9,1,2,3)           -177.5179                                         !
 ! D2    D(9,1,2,5)             58.6823                                         !
 ! D3    D(9,1,2,10)           -61.0808                                         !
 ! D4    D(15,1,2,3)           -52.5865                                         !
 ! D5    D(15,1,2,5)          -176.3862                                         !
 ! D6    D(15,1,2,10)           63.8506                                         !
 ! D7    D(16,1,2,3)            64.9747                                         !
 ! D8    D(16,1,2,5)           -58.825                                          !
 ! D9    D(16,1,2,10)         -178.5882                                         !
 ! D10   D(1,2,3,4)            135.4451                                         !
 ! D11   D(1,2,3,17)           -49.1931                                         !
 ! D12   D(5,2,3,4)           -100.652                                          !
 ! D13   D(5,2,3,17)            74.7098                                         !
 ! D14   D(10,2,3,4)            19.0858                                         !
 ! D15   D(10,2,3,17)         -165.5524                                         !
 ! D16   D(1,2,5,6)            -58.5723                                         !
 ! D17   D(1,2,5,11)            63.0943                                         !
 ! D18   D(1,2,5,12)           177.9701                                         !
 ! D19   D(3,2,5,6)            175.1433                                         !
 ! D20   D(3,2,5,11)           -63.1901                                         !
 ! D21   D(3,2,5,12)            51.6857                                         !
 ! D22   D(10,2,5,6)            58.2616                                         !
 ! D23   D(10,2,5,11)          179.9282                                         !
 ! D24   D(10,2,5,12)          -65.1959                                         !
 ! D25   D(2,3,17,18)         -160.8794                                         !
 ! D26   D(2,3,17,28)            6.2557                                         !
 ! D27   D(4,3,17,18)           14.2262                                         !
 ! D28   D(4,3,17,28)         -178.6386                                         !
 ! D29   D(2,5,6,7)           -157.884                                          !
 ! D30   D(2,5,6,8)             23.6777                                         !
 ! D31   D(11,5,6,7)            79.7085                                         !
 ! D32   D(11,5,6,8)           -98.7298                                         !
 ! D33   D(12,5,6,7)           -36.1971                                         !
 ! D34   D(12,5,6,8)           145.3646                                         !
 ! D35   D(5,6,7,13)          -178.0684                                         !
 ! D36   D(5,6,7,14)             2.6926                                         !
 ! D37   D(8,6,7,13)             0.3465                                         !
 ! D38   D(8,6,7,14)          -178.8925                                         !
 ! D39   D(3,17,18,19)        -129.5602                                         !
 ! D40   D(3,17,18,21)         105.6608                                         !
 ! D41   D(3,17,18,29)         -12.6782                                         !
 ! D42   D(28,17,18,19)         62.8217                                         !
 ! D43   D(28,17,18,21)        -61.9573                                         !
 ! D44   D(28,17,18,29)        179.7037                                         !
 ! D45   D(17,18,19,20)       -128.7627                                         !
 ! D46   D(17,18,19,37)         53.0534                                         !
 ! D47   D(21,18,19,20)         -4.1058                                         !
 ! D48   D(21,18,19,37)        177.7103                                         !
 ! D49   D(29,18,19,20)        115.7959                                         !
 ! D50   D(29,18,19,37)        -62.388                                          !
 ! D51   D(17,18,21,22)        -47.343                                          !
 ! D52   D(17,18,21,30)         74.6724                                         !
 ! D53   D(17,18,21,31)       -171.0841                                         !
 ! D54   D(19,18,21,22)       -173.1985                                         !
 ! D55   D(19,18,21,30)        -51.1831                                         !
 ! D56   D(19,18,21,31)         63.0604                                         !
 ! D57   D(29,18,21,22)         68.1857                                         !
 ! D58   D(29,18,21,30)       -169.7989                                         !
 ! D59   D(29,18,21,31)        -55.5554                                         !
 ! D60   D(18,19,37,38)        -10.9056                                         !
 ! D61   D(18,19,37,45)       -173.6165                                         !
 ! D62   D(20,19,37,38)        170.9317                                         !
 ! D63   D(20,19,37,45)          8.2208                                         !
 ! D64   D(18,21,22,23)        -58.9226                                         !
 ! D65   D(18,21,22,24)        121.2608                                         !
 ! D66   D(30,21,22,23)        179.4804                                         !
 ! D67   D(30,21,22,24)         -0.3363                                         !
 ! D68   D(31,21,22,23)         63.0328                                         !
 ! D69   D(31,21,22,24)       -116.7838                                         !
 ! D70   D(21,22,23,25)       -179.6739                                         !
 ! D71   D(21,22,23,32)          0.7302                                         !
 ! D72   D(24,22,23,25)          0.146                                          !
 ! D73   D(24,22,23,32)       -179.4499                                         !
 ! D74   D(21,22,24,26)        179.4081                                         !
 ! D75   D(21,22,24,33)          0.6775                                         !
 ! D76   D(23,22,24,26)         -0.4145                                         !
 ! D77   D(23,22,24,33)       -179.1451                                         !
 ! D78   D(22,23,25,27)          0.1475                                         !
 ! D79   D(22,23,25,34)        179.3171                                         !
 ! D80   D(32,23,25,27)        179.7458                                         !
 ! D81   D(32,23,25,34)         -1.0846                                         !
 ! D82   D(22,24,26,27)          0.3889                                         !
 ! D83   D(22,24,26,35)       -178.446                                          !
 ! D84   D(33,24,26,27)        179.1186                                         !
 ! D85   D(33,24,26,35)          0.2837                                         !
 ! D86   D(23,25,27,26)         -0.178                                          !
 ! D87   D(23,25,27,36)        177.904                                          !
 ! D88   D(34,25,27,26)       -179.3433                                         !
 ! D89   D(34,25,27,36)         -1.2613                                         !
 ! D90   D(24,26,27,25)         -0.0865                                         !
 ! D91   D(24,26,27,36)       -178.1633                                         !
 ! D92   D(35,26,27,25)        178.742                                          !
 ! D93   D(35,26,27,36)          0.6652                                         !
 ! D94   D(19,37,38,39)        -78.1078                                         !
 ! D95   D(19,37,38,41)        156.6486                                         !
 ! D96   D(19,37,38,46)         39.24                                           !
 ! D97   D(45,37,38,39)         84.5778                                         !
 ! D98   D(45,37,38,41)        -40.6658                                         !
 ! D99   D(45,37,38,46)       -158.0743                                         !
 ! D100  D(37,38,39,40)        156.6887                                         !
 ! D101  D(37,38,39,51)        -22.853                                          !
 ! D102  D(41,38,39,40)        -77.3287                                         !
 ! D103  D(41,38,39,51)        103.1297                                         !
 ! D104  D(46,38,39,40)         36.8215                                         !
 ! D105  D(46,38,39,51)       -142.7202                                         !
 ! D106  D(37,38,41,42)         61.5097                                         !
 ! D107  D(37,38,41,47)        -59.2508                                         !
 ! D108  D(37,38,41,48)       -175.4012                                         !
 ! D109  D(39,38,41,42)        -65.7449                                         !
 ! D110  D(39,38,41,47)        173.4946                                         !
 ! D111  D(39,38,41,48)         57.3442                                         !
 ! D112  D(46,38,41,42)       -179.1475                                         !
 ! D113  D(46,38,41,47)         60.092                                          !
 ! D114  D(46,38,41,48)        -56.0584                                         !
 ! D115  D(38,39,51,52)       -177.9498                                         !
 ! D116  D(38,39,51,64)         -5.1878                                         !
 ! D117  D(40,39,51,52)          2.5348                                         !
 ! D118  D(40,39,51,64)        175.2967                                         !
 ! D119  D(38,41,42,43)        162.7361                                         !
 ! D120  D(38,41,42,44)        -17.8218                                         !
 ! D121  D(47,41,42,43)        -76.5308                                         !
 ! D122  D(47,41,42,44)        102.9113                                         !
 ! D123  D(48,41,42,43)         41.0532                                         !
 ! D124  D(48,41,42,44)       -139.5046                                         !
 ! D125  D(41,42,43,49)        174.1846                                         !
 ! D126  D(41,42,43,50)          2.3503                                         !
 ! D127  D(44,42,43,49)         -5.2529                                         !
 ! D128  D(44,42,43,50)       -177.0872                                         !
 ! D129  D(39,51,52,53)       -104.6302                                         !
 ! D130  D(39,51,52,55)        123.5243                                         !
 ! D131  D(39,51,52,65)          6.6789                                         !
 ! D132  D(64,51,52,53)         82.4929                                         !
 ! D133  D(64,51,52,55)        -49.3525                                         !
 ! D134  D(64,51,52,65)       -166.198                                          !
 ! D135  D(51,52,53,54)         29.1096                                         !
 ! D136  D(51,52,53,62)       -163.6408                                         !
 ! D137  D(55,52,53,54)        159.0736                                         !
 ! D138  D(55,52,53,62)        -33.6768                                         !
 ! D139  D(65,52,53,54)        -84.024                                          !
 ! D140  D(65,52,53,62)         83.2255                                         !
 ! D141  D(51,52,55,56)         50.0687                                         !
 ! D142  D(51,52,55,66)        175.3889                                         !
 ! D143  D(51,52,55,67)        -70.4736                                         !
 ! D144  D(53,52,55,56)        -78.5898                                         !
 ! D145  D(53,52,55,66)         46.7304                                         !
 ! D146  D(53,52,55,67)        160.8679                                         !
 ! D147  D(65,52,55,56)        166.4849                                         !
 ! D148  D(65,52,55,66)        -68.1949                                         !
 ! D149  D(65,52,55,67)         45.9426                                         !
 ! D150  D(52,53,62,63)       -172.022                                          !
 ! D151  D(54,53,62,63)         -4.3695                                         !
 ! D152  D(52,55,56,57)         64.7283                                         !
 ! D153  D(52,55,56,68)       -176.1024                                         !
 ! D154  D(52,55,56,69)        -60.6963                                         !
 ! D155  D(66,55,56,57)        -59.1335                                         !
 ! D156  D(66,55,56,68)         60.0357                                         !
 ! D157  D(66,55,56,69)        175.4419                                         !
 ! D158  D(67,55,56,57)       -175.915                                          !
 ! D159  D(67,55,56,68)        -56.7458                                         !
 ! D160  D(67,55,56,69)         58.6604                                         !
 ! D161  D(55,56,57,58)        -57.8968                                         !
 ! D162  D(55,56,57,70)         60.3956                                         !
 ! D163  D(55,56,57,71)        178.8226                                         !
 ! D164  D(68,56,57,58)       -177.2122                                         !
 ! D165  D(68,56,57,70)        -58.9198                                         !
 ! D166  D(68,56,57,71)         59.5072                                         !
 ! D167  D(69,56,57,58)         68.0751                                         !
 ! D168  D(69,56,57,70)       -173.6325                                         !
 ! D169  D(69,56,57,71)        -55.2056                                         !
 ! D170  D(56,57,58,59)        -77.1431                                         !
 ! D171  D(56,57,58,72)        152.1672                                         !
 ! D172  D(70,57,58,59)        162.4803                                         !
 ! D173  D(70,57,58,72)         31.7906                                         !
 ! D174  D(71,57,58,59)         45.5618                                         !
 ! D175  D(71,57,58,72)        -85.1279                                         !
 ! D176  D(57,58,59,60)         20.9086                                         !
 ! D177  D(57,58,59,61)       -159.5077                                         !
 ! D178  D(72,58,59,60)        151.7                                            !
 ! D179  D(72,58,59,61)        -28.7164                                         !
 ! D180  D(58,59,60,73)        176.9759                                         !
 ! D181  D(61,59,60,73)         -2.5408                                         !
 ! D182  D(58,59,61,74)       -165.7562                                         !
 ! D183  D(58,59,61,75)        -32.3835                                         !
 ! D184  D(60,59,61,74)         13.7876                                         !
 ! D185  D(60,59,61,75)        147.1603                                         !
 --------------------------------------------------------------------------------
 Symmetry turned off by external request.
 Stoichiometry    C23H36N9O7(1+)
 Framework group  C1[X(C23H36N9O7)]
 Deg. of freedom   219
 Full point group                 C1      NOp   1
                          Input orientation:                          
 ---------------------------------------------------------------------
 Center     Atomic      Atomic             Coordinates (Angstroms)
 Number     Number       Type             X           Y           Z
 ---------------------------------------------------------------------
      1          7           0       -7.745443    1.188573   -7.381897
      2          6           0       -9.011087    0.617289   -6.804887
      3          6           0       -8.893336   -0.845948   -6.365458
      4          8           0       -9.367992   -1.172731   -5.286194
      5          6           0      -10.156402    0.765371   -7.809366
      6          6           0      -10.401983    2.220899   -8.196168
      7          7           0      -11.630329    2.488292   -8.678959
      8          8           0       -9.515499    3.078185   -8.096141
      9          1           0       -7.966469    2.184248   -7.589666
     10          1           0       -9.214490    1.190466   -5.899479
     11          1           0       -9.942705    0.186927   -8.716760
     12          1           0      -11.052549    0.309780   -7.378087
     13          1           0      -11.845896    3.429723   -8.981039
     14          1           0      -12.346812    1.777583   -8.737615
     15          1           0       -6.949636    1.032891   -6.721940
     16          1           0       -7.478602    0.721940   -8.265284
     17          7           0       -8.347949   -1.728443   -7.248822
     18          6           0       -8.582537   -3.162620   -7.080070
     19          6           0       -7.281429   -3.988608   -7.120578
     20          8           0       -7.195339   -4.961814   -7.870094
     21          6           0       -9.592738   -3.676088   -8.129846
     22          6           0      -10.827560   -2.805460   -8.254222
     23          6           0      -11.670273   -2.563984   -7.158171
     24          6           0      -11.155306   -2.221400   -9.485283
     25          6           0      -12.806971   -1.765209   -7.292109
     26          6           0      -12.295407   -1.424722   -9.627895
     27          6           0      -13.125944   -1.193032   -8.529042
     28          1           0       -7.944532   -1.417322   -8.127712
     29          1           0       -9.008042   -3.266416   -6.077549
     30          1           0       -9.090335   -3.737055   -9.100125
     31          1           0       -9.858384   -4.705780   -7.868182
     32          1           0      -11.435959   -2.996440   -6.189772
     33          1           0      -10.521969   -2.408318  -10.349950
     34          1           0      -13.451354   -1.600627   -6.433124
     35          1           0      -12.541261   -1.003901  -10.599329
     36          1           0      -14.030213   -0.599265   -8.638646
     37          7           0       -6.254257   -3.646626   -6.292323
     38          6           0       -6.107546   -2.444827   -5.483135
     39          6           0       -5.663640   -1.205562   -6.285984
     40          8           0       -5.922885   -0.074735   -5.830893
     41          6           0       -5.152659   -2.676630   -4.295401
     42          6           0       -3.731631   -3.048082   -4.724993
     43          7           0       -2.778022   -2.908167   -3.774277
     44          8           0       -3.482207   -3.456542   -5.858801
     45          1           0       -5.393501   -4.168602   -6.444003
     46          1           0       -7.073364   -2.174590   -5.052047
     47          1           0       -5.555061   -3.488280   -3.676771
     48          1           0       -5.146513   -1.770172   -3.680398
     49          1           0       -1.840834   -3.225818   -3.984118
     50          1           0       -2.985137   -2.614306   -2.830922
     51          7           0       -5.024070   -1.416261   -7.447395
     52          6           0       -4.517805   -0.336646   -8.273436
     53          6           0       -5.422502   -0.136926   -9.489128
     54          8           0       -6.633230   -0.385421   -9.503820
     55          6           0       -3.004410   -0.458548   -8.556981
     56          6           0       -2.504778   -1.815224   -9.071015
     57          6           0       -3.028861   -2.236201  -10.446327
     58          7           0       -4.502669   -2.309771  -10.533707
     59          6           0       -5.155764   -3.419015   -9.972445
     60          7           0       -4.561006   -4.117476   -9.073918
     61          7           0       -6.431982   -3.614876  -10.489316
     62          8           0       -4.847107    0.582910  -10.455402
     63          1           0       -5.524312    0.773022  -11.132688
     64          1           0       -4.783556   -2.372529   -7.718978
     65          1           0       -4.661898    0.586863   -7.694092
     66          1           0       -2.727264    0.343709   -9.249134
     67          1           0       -2.501638   -0.246387   -7.607023
     68          1           0       -1.412456   -1.750007   -9.151081
     69          1           0       -2.710217   -2.603581   -8.342874
     70          1           0       -2.722537   -1.498022  -11.195301
     71          1           0       -2.589027   -3.204490  -10.713179
     72          1           0       -4.824535   -2.137948  -11.480897
     73          1           0       -5.175683   -4.854752   -8.727906
     74          1           0       -6.996299   -4.257709   -9.942779
     75          1           0       -6.930354   -2.773859  -10.758209
 ---------------------------------------------------------------------
 Rotational constants (GHZ):           0.1407999           0.0733979           0.0695255
 Standard basis: 6-31G(d) (6D, 7F)
   657 basis functions,  1236 primitive gaussians,   657 cartesian basis functions
   146 alpha electrons      146 beta electrons
       nuclear repulsion energy      5187.1885441544 Hartrees.
 NAtoms=   75 NActive=   75 NUniq=   75 SFac= 1.00D+00 NAtFMM=   60 NAOKFM=T Big=T
 Integral buffers will be    131072 words long.
 Raffenetti 2 integral format.
 Two-electron integral symmetry is turned off.
 Nuclear repulsion after empirical dispersion term =     5187.0615043964 Hartrees.
 One-electron integrals computed using PRISM.
 NBasis=   657 RedAO= T EigKep=  4.63D-04  NBF=   657
 NBsUse=   657 1.00D-06 EigRej= -1.00D+00 NBFU=   657
 Initial guess from the checkpoint file:  "conf-135.chk"
 B after Tr=     0.000000    0.000000    0.000000
         Rot=    1.000000    0.000000    0.000000    0.000000 Ang=   0.00 deg.
 Requested convergence on RMS density matrix=1.00D-08 within 128 cycles.
 Requested convergence on MAX density matrix=1.00D-06.
 Requested convergence on             energy=1.00D-06.
 No special actions if energy rises.
 SCF Done:  E(RB3LYP) =  -1917.50309573     A.U. after    2 cycles
            NFock=  2  Conv=0.70D-08     -V/T= 2.0093

 **********************************************************************

            Population analysis using the SCF Density.

 **********************************************************************

 Alpha  occ. eigenvalues --  -19.32774 -19.27709 -19.24529 -19.24051 -19.23814
 Alpha  occ. eigenvalues --  -19.22291 -19.21760 -14.54816 -14.48140 -14.47983
 Alpha  occ. eigenvalues --  -14.47466 -14.46149 -14.45793 -14.44474 -14.43281
 Alpha  occ. eigenvalues --  -14.36917 -10.46136 -10.42059 -10.41372 -10.40835
 Alpha  occ. eigenvalues --  -10.39716 -10.39559 -10.38031 -10.36968 -10.35644
 Alpha  occ. eigenvalues --  -10.34940 -10.34428 -10.32897 -10.30941 -10.30201
 Alpha  occ. eigenvalues --  -10.29790 -10.29307 -10.29036 -10.28907 -10.28872
 Alpha  occ. eigenvalues --  -10.28859 -10.28791 -10.28549 -10.26478  -1.24101
 Alpha  occ. eigenvalues --   -1.16469  -1.15975  -1.15569  -1.14619  -1.14153
 Alpha  occ. eigenvalues --   -1.13513  -1.10504  -1.06625  -1.04998  -1.04423
 Alpha  occ. eigenvalues --   -1.02973  -1.02502  -1.00592  -0.97575  -0.95439
 Alpha  occ. eigenvalues --   -0.92922  -0.91969  -0.90418  -0.88941  -0.88414
 Alpha  occ. eigenvalues --   -0.84493  -0.84314  -0.84113  -0.80787  -0.79028
 Alpha  occ. eigenvalues --   -0.77708  -0.76609  -0.74127  -0.72612  -0.71828
 Alpha  occ. eigenvalues --   -0.71485  -0.70840  -0.70140  -0.69692  -0.69136
 Alpha  occ. eigenvalues --   -0.68734  -0.68424  -0.67557  -0.65633  -0.65443
 Alpha  occ. eigenvalues --   -0.64830  -0.64407  -0.63781  -0.63002  -0.62578
 Alpha  occ. eigenvalues --   -0.62355  -0.61499  -0.60794  -0.60488  -0.60096
 Alpha  occ. eigenvalues --   -0.59610  -0.58805  -0.58200  -0.57422  -0.56748
 Alpha  occ. eigenvalues --   -0.56416  -0.55296  -0.55246  -0.55007  -0.54873
 Alpha  occ. eigenvalues --   -0.54682  -0.54030  -0.53930  -0.53688  -0.53216
 Alpha  occ. eigenvalues --   -0.52888  -0.52398  -0.52183  -0.51684  -0.51487
 Alpha  occ. eigenvalues --   -0.51425  -0.51027  -0.50776  -0.49996  -0.49560
 Alpha  occ. eigenvalues --   -0.49351  -0.49115  -0.48366  -0.47942  -0.47574
 Alpha  occ. eigenvalues --   -0.46971  -0.46611  -0.46231  -0.45405  -0.45210
 Alpha  occ. eigenvalues --   -0.44271  -0.43719  -0.43601  -0.43461  -0.42256
 Alpha  occ. eigenvalues --   -0.41253  -0.39856  -0.39276  -0.38977  -0.38411
 Alpha  occ. eigenvalues --   -0.38069  -0.37341  -0.36771  -0.36201  -0.36030
 Alpha  occ. eigenvalues --   -0.35149  -0.34896  -0.34668  -0.34471  -0.34100
 Alpha  occ. eigenvalues --   -0.31848
 Alpha virt. eigenvalues --   -0.12785  -0.11668  -0.10467  -0.10414  -0.10095
 Alpha virt. eigenvalues --   -0.09629  -0.09024  -0.07546  -0.05695  -0.04535
 Alpha virt. eigenvalues --   -0.03630  -0.02490  -0.02200  -0.01595  -0.00765
 Alpha virt. eigenvalues --    0.00165   0.00286   0.00823   0.01146   0.02006
 Alpha virt. eigenvalues --    0.02071   0.02429   0.03483   0.03809   0.04171
 Alpha virt. eigenvalues --    0.04414   0.04696   0.04857   0.05184   0.05285
 Alpha virt. eigenvalues --    0.05591   0.06003   0.06435   0.06513   0.07167
 Alpha virt. eigenvalues --    0.07468   0.07756   0.08085   0.08406   0.08719
 Alpha virt. eigenvalues --    0.08915   0.09093   0.09413   0.09676   0.09866
 Alpha virt. eigenvalues --    0.10340   0.10640   0.10853   0.11166   0.11531
 Alpha virt. eigenvalues --    0.11813   0.12435   0.13161   0.13891   0.14194
 Alpha virt. eigenvalues --    0.14534   0.14948   0.15199   0.15882   0.16462
 Alpha virt. eigenvalues --    0.16606   0.17350   0.18382   0.18893   0.20208
 Alpha virt. eigenvalues --    0.20597   0.20988   0.21807   0.22900   0.23316
 Alpha virt. eigenvalues --    0.23490   0.23792   0.24504   0.25733   0.26213
 Alpha virt. eigenvalues --    0.26429   0.27539   0.28231   0.28732   0.30002
 Alpha virt. eigenvalues --    0.32127   0.33495   0.35643   0.36145   0.36385
 Alpha virt. eigenvalues --    0.36787   0.37505   0.38434   0.39035   0.40596
 Alpha virt. eigenvalues --    0.41250   0.41382   0.41949   0.43116   0.43447
 Alpha virt. eigenvalues --    0.43914   0.44430   0.44865   0.45333   0.46103
 Alpha virt. eigenvalues --    0.46556   0.47082   0.47327   0.47862   0.48158
 Alpha virt. eigenvalues --    0.48412   0.48762   0.48997   0.49459   0.49959
 Alpha virt. eigenvalues --    0.50317   0.50519   0.51090   0.51328   0.51827
 Alpha virt. eigenvalues --    0.52191   0.52270   0.52530   0.52827   0.53058
 Alpha virt. eigenvalues --    0.54032   0.54165   0.54636   0.55320   0.55679
 Alpha virt. eigenvalues --    0.56295   0.56377   0.56527   0.56778   0.57363
 Alpha virt. eigenvalues --    0.58282   0.58699   0.58889   0.59559   0.59970
 Alpha virt. eigenvalues --    0.60734   0.60959   0.61187   0.61596   0.62471
 Alpha virt. eigenvalues --    0.62981   0.63211   0.63658   0.63999   0.65093
 Alpha virt. eigenvalues --    0.65581   0.66011   0.66316   0.66552   0.67392
 Alpha virt. eigenvalues --    0.68067   0.68684   0.69297   0.69960   0.70891
 Alpha virt. eigenvalues --    0.71182   0.71517   0.72027   0.72787   0.73000
 Alpha virt. eigenvalues --    0.73397   0.74173   0.74387   0.74808   0.75215
 Alpha virt. eigenvalues --    0.75579   0.75739   0.76348   0.76388   0.76769
 Alpha virt. eigenvalues --    0.77025   0.77764   0.78177   0.78266   0.78654
 Alpha virt. eigenvalues --    0.78780   0.79253   0.79421   0.79749   0.80338
 Alpha virt. eigenvalues --    0.80953   0.81162   0.81401   0.82224   0.82736
 Alpha virt. eigenvalues --    0.82800   0.83645   0.83912   0.84194   0.84765
 Alpha virt. eigenvalues --    0.84942   0.85693   0.86161   0.86531   0.86682
 Alpha virt. eigenvalues --    0.86887   0.87389   0.87912   0.88382   0.89056
 Alpha virt. eigenvalues --    0.89940   0.90354   0.90689   0.91303   0.91664
 Alpha virt. eigenvalues --    0.92458   0.92966   0.93770   0.94442   0.95047
 Alpha virt. eigenvalues --    0.95614   0.96041   0.97220   0.97860   0.98667
 Alpha virt. eigenvalues --    0.99016   0.99360   1.01067   1.01552   1.01642
 Alpha virt. eigenvalues --    1.03349   1.04123   1.04757   1.05432   1.05707
 Alpha virt. eigenvalues --    1.06279   1.07275   1.08158   1.08649   1.09097
 Alpha virt. eigenvalues --    1.09580   1.10546   1.11454   1.11586   1.11998
 Alpha virt. eigenvalues --    1.12665   1.13703   1.14764   1.15636   1.16586
 Alpha virt. eigenvalues --    1.17620   1.18171   1.18607   1.19447   1.19884
 Alpha virt. eigenvalues --    1.20450   1.21914   1.22856   1.23188   1.24474
 Alpha virt. eigenvalues --    1.25800   1.26261   1.26549   1.27611   1.27951
 Alpha virt. eigenvalues --    1.28962   1.29222   1.30023   1.30777   1.31982
 Alpha virt. eigenvalues --    1.32388   1.32669   1.33168   1.33600   1.33967
 Alpha virt. eigenvalues --    1.34439   1.35885   1.37386   1.37658   1.38321
 Alpha virt. eigenvalues --    1.39302   1.40145   1.40305   1.41222   1.41873
 Alpha virt. eigenvalues --    1.42772   1.43380   1.44031   1.45234   1.46748
 Alpha virt. eigenvalues --    1.47262   1.48307   1.49340   1.50527   1.51368
 Alpha virt. eigenvalues --    1.52867   1.53309   1.53877   1.55345   1.55885
 Alpha virt. eigenvalues --    1.56472   1.56908   1.57921   1.59697   1.60045
 Alpha virt. eigenvalues --    1.60564   1.61228   1.62095   1.62744   1.63155
 Alpha virt. eigenvalues --    1.63366   1.64673   1.65619   1.65750   1.66848
 Alpha virt. eigenvalues --    1.67546   1.67576   1.68315   1.68992   1.69451
 Alpha virt. eigenvalues --    1.70164   1.70589   1.71339   1.71488   1.71681
 Alpha virt. eigenvalues --    1.72535   1.72959   1.73412   1.73907   1.74622
 Alpha virt. eigenvalues --    1.75192   1.76332   1.76626   1.77151   1.77815
 Alpha virt. eigenvalues --    1.78336   1.78638   1.78856   1.80065   1.80630
 Alpha virt. eigenvalues --    1.81189   1.81550   1.81837   1.82462   1.82857
 Alpha virt. eigenvalues --    1.83809   1.84198   1.84450   1.84992   1.85679
 Alpha virt. eigenvalues --    1.86701   1.86763   1.87639   1.88581   1.88990
 Alpha virt. eigenvalues --    1.89212   1.89280   1.89824   1.90810   1.91330
 Alpha virt. eigenvalues --    1.92187   1.92889   1.93655   1.93991   1.94549
 Alpha virt. eigenvalues --    1.95903   1.96456   1.96609   1.97396   1.97921
 Alpha virt. eigenvalues --    1.98859   1.99618   2.00371   2.01637   2.02391
 Alpha virt. eigenvalues --    2.03810   2.04915   2.05480   2.05979   2.06310
 Alpha virt. eigenvalues --    2.06756   2.07116   2.07272   2.08233   2.10122
 Alpha virt. eigenvalues --    2.10920   2.11762   2.12300   2.14271   2.14772
 Alpha virt. eigenvalues --    2.15302   2.15871   2.16310   2.16677   2.17191
 Alpha virt. eigenvalues --    2.18771   2.19285   2.19473   2.20928   2.22119
 Alpha virt. eigenvalues --    2.22500   2.23560   2.24002   2.24895   2.26968
 Alpha virt. eigenvalues --    2.27167   2.27755   2.28584   2.29622   2.30380
 Alpha virt. eigenvalues --    2.30744   2.31300   2.32041   2.32724   2.33109
 Alpha virt. eigenvalues --    2.33707   2.35212   2.36802   2.37651   2.37891
 Alpha virt. eigenvalues --    2.38725   2.39061   2.39876   2.42289   2.43658
 Alpha virt. eigenvalues --    2.44977   2.46502   2.46753   2.47694   2.48331
 Alpha virt. eigenvalues --    2.49421   2.49743   2.50253   2.51097   2.51647
 Alpha virt. eigenvalues --    2.52441   2.52953   2.53366   2.53788   2.54048
 Alpha virt. eigenvalues --    2.54468   2.55924   2.56133   2.57932   2.59005
 Alpha virt. eigenvalues --    2.60655   2.61037   2.61784   2.62806   2.63260
 Alpha virt. eigenvalues --    2.64300   2.65424   2.66039   2.66707   2.67273
 Alpha virt. eigenvalues --    2.68344   2.69220   2.71601   2.74780   2.75811
 Alpha virt. eigenvalues --    2.76392   2.78478   2.81650   2.84448   2.85643
 Alpha virt. eigenvalues --    2.87896   2.89571   2.90040   2.91295   2.92874
 Alpha virt. eigenvalues --    2.92928   2.94227   2.95259   2.96090   2.96304
 Alpha virt. eigenvalues --    2.97769   2.98348   3.00329   3.04142   3.06383
 Alpha virt. eigenvalues --    3.09832   3.30901   3.71235   3.71355   3.77214
 Alpha virt. eigenvalues --    3.79313   3.80739   3.90414   3.92005   3.93729
 Alpha virt. eigenvalues --    3.95723   3.99389   4.02309   4.02870   4.03603
 Alpha virt. eigenvalues --    4.07389   4.08598   4.09425   4.12344   4.14306
 Alpha virt. eigenvalues --    4.15231   4.17730   4.20519   4.21229   4.23679
 Alpha virt. eigenvalues --    4.28075   4.28728   4.30864   4.32452   4.35073
 Alpha virt. eigenvalues --    4.37873   4.40390   4.42182   4.42827   4.49446
 Alpha virt. eigenvalues --    4.52591   4.55962   4.57200   4.62179   4.63542
 Alpha virt. eigenvalues --    4.68622
          Condensed to atoms (all electrons):
 Mulliken charges:
               1
     1  N   -0.813351
     2  C   -0.117734
     3  C    0.652266
     4  O   -0.509256
     5  C   -0.409341
     6  C    0.637713
     7  N   -0.736842
     8  O   -0.538239
     9  H    0.425226
    10  H    0.227986
    11  H    0.200733
    12  H    0.222709
    13  H    0.370706
    14  H    0.362012
    15  H    0.443203
    16  H    0.409289
    17  N   -0.641536
    18  C   -0.089370
    19  C    0.631026
    20  O   -0.524623
    21  C   -0.356404
    22  C    0.173517
    23  C   -0.175082
    24  C   -0.206327
    25  C   -0.141342
    26  C   -0.133893
    27  C   -0.160790
    28  H    0.362389
    29  H    0.220128
    30  H    0.145328
    31  H    0.199846
    32  H    0.157839
    33  H    0.133342
    34  H    0.159337
    35  H    0.148940
    36  H    0.148627
    37  N   -0.625110
    38  C   -0.060232
    39  C    0.639634
    40  O   -0.600918
    41  C   -0.395062
    42  C    0.604354
    43  N   -0.737556
    44  O   -0.514081
    45  H    0.383512
    46  H    0.207012
    47  H    0.208279
    48  H    0.196815
    49  H    0.363925
    50  H    0.356677
    51  N   -0.596738
    52  C   -0.086279
    53  C    0.669362
    54  O   -0.556471
    55  C   -0.274439
    56  C   -0.306851
    57  C   -0.118562
    58  N   -0.642875
    59  C    0.589603
    60  N   -0.675664
    61  N   -0.785607
    62  O   -0.539249
    63  H    0.424851
    64  H    0.420398
    65  H    0.193065
    66  H    0.169612
    67  H    0.166274
    68  H    0.158993
    69  H    0.219209
    70  H    0.146685
    71  H    0.180322
    72  H    0.328017
    73  H    0.317856
    74  H    0.372426
    75  H    0.320780
 Sum of Mulliken charges =   1.00000
 Mulliken charges with hydrogens summed into heavy atoms:
               1
     1  N    0.464367
     2  C    0.110252
     3  C    0.652266
     4  O   -0.509256
     5  C    0.014101
     6  C    0.637713
     7  N   -0.004124
     8  O   -0.538239
    17  N   -0.279147
    18  C    0.130757
    19  C    0.631026
    20  O   -0.524623
    21  C   -0.011230
    22  C    0.173517
    23  C   -0.017243
    24  C   -0.072984
    25  C    0.017995
    26  C    0.015047
    27  C   -0.012164
    37  N   -0.241599
    38  C    0.146781
    39  C    0.639634
    40  O   -0.600918
    41  C    0.010032
    42  C    0.604354
    43  N   -0.016954
    44  O   -0.514081
    51  N   -0.176340
    52  C    0.106785
    53  C    0.669362
    54  O   -0.556471
    55  C    0.061448
    56  C    0.071351
    57  C    0.208445
    58  N   -0.314858
    59  C    0.589603
    60  N   -0.357808
    61  N   -0.092400
    62  O   -0.114398
 Electronic spatial extent (au):  <R**2>=         137142.8948
 Charge=              1.0000 electrons
 Dipole moment (field-independent basis, Debye):
    X=            -36.3090    Y=             -0.0884    Z=            -37.7190  Tot=             52.3553
 Quadrupole moment (field-independent basis, Debye-Ang):
   XX=            125.7818   YY=           -223.8949   ZZ=            120.1682
   XY=            -14.8176   XZ=            309.2766   YZ=            -21.8039
 Traceless Quadrupole moment (field-independent basis, Debye-Ang):
   XX=            118.4301   YY=           -231.2466   ZZ=            112.8165
   XY=            -14.8176   XZ=            309.2766   YZ=            -21.8039
 Octapole moment (field-independent basis, Debye-Ang**2):
  XXX=           1084.1439  YYY=           1106.8305  ZZZ=           1833.4364  XYY=           1588.1974
  XXY=            580.3820  XXZ=          -1306.9600  XZZ=          -1181.1768  YZZ=            596.9303
  YYZ=           1806.6223  XYZ=            229.7550
 Hexadecapole moment (field-independent basis, Debye-Ang**3):
 XXXX=         -39592.3407 YYYY=          -8836.0291 ZZZZ=         -50800.0349 XXXY=          -9942.8798
 XXXZ=          -5028.8611 YYYX=          -6932.6408 YYYZ=          -8631.2219 ZZZX=         -11562.9251
 ZZZY=         -10057.7269 XXYY=         -14600.6167 XXZZ=           -964.3510 YYZZ=         -16427.5306
 XXYZ=          -5339.7041 YYXZ=         -12672.6449 ZZXY=          -4576.4573
 N-N= 5.187061504396D+03 E-N=-1.481367896934D+04  KE= 1.899806425817D+03
 Unable to Open any file for archive entry.
 1\1\GINC-AMR-176\SP\RB3LYP\6-31G(d)\C23H36N9O7(1+)\KENGMITH\06-Jun-202
 2\0\\# B3LYP/6-31G* empiricaldispersion=gd3 guess=read geom=check nosy
 mm integral(ultrafinegrid)\\Candidate Structure: Conf:135 Charge calc 
 in gas phase\\1,1\N,0,-7.7454431603,1.188573078,-7.3818969306\C,0,-9.0
 110870979,0.6172888429,-6.804886505\C,0,-8.893335767,-0.8459477397,-6.
 3654580997\O,0,-9.3679921309,-1.1727308799,-5.2861942695\C,0,-10.15640
 16238,0.7653707624,-7.809366317\C,0,-10.4019832987,2.2208990223,-8.196
 167556\N,0,-11.6303293251,2.4882919321,-8.6789592144\O,0,-9.5154987374
 ,3.0781845721,-8.0961413731\H,0,-7.9664688913,2.1842481341,-7.58966612
 57\H,0,-9.2144902813,1.1904655591,-5.8994791349\H,0,-9.9427047023,0.18
 69271437,-8.7167595589\H,0,-11.0525488925,0.3097802586,-7.3780868181\H
 ,0,-11.8458964786,3.4297228235,-8.9810389432\H,0,-12.3468123645,1.7775
 833848,-8.7376148741\H,0,-6.9496363733,1.0328911057,-6.7219399248\H,0,
 -7.4786019473,0.7219395683,-8.2652843524\N,0,-8.3479487269,-1.72844325
 43,-7.2488223982\C,0,-8.5825373314,-3.1626199904,-7.0800700067\C,0,-7.
 2814289763,-3.9886078214,-7.1205779637\O,0,-7.1953387802,-4.9618144904
 ,-7.8700935134\C,0,-9.5927379832,-3.6760883912,-8.1298459095\C,0,-10.8
 275604627,-2.8054603026,-8.2542224897\C,0,-11.6702729068,-2.5639837722
 ,-7.1581706174\C,0,-11.1553061503,-2.2213996932,-9.4852832836\C,0,-12.
 8069714362,-1.7652088711,-7.2921085082\C,0,-12.2954071599,-1.424721996
 3,-9.6278945274\C,0,-13.1259440852,-1.1930315882,-8.5290419614\H,0,-7.
 9445319539,-1.4173215286,-8.1277118586\H,0,-9.0080424326,-3.2664161529
 ,-6.0775494777\H,0,-9.0903351904,-3.7370549578,-9.1001245935\H,0,-9.85
 83844499,-4.7057795266,-7.8681824547\H,0,-11.4359586609,-2.9964399526,
 -6.1897715919\H,0,-10.5219693511,-2.4083183889,-10.3499503603\H,0,-13.
 4513543392,-1.6006268656,-6.4331242634\H,0,-12.541260944,-1.0039013996
 ,-10.5993290948\H,0,-14.030212923,-0.5992649259,-8.6386463054\N,0,-6.2
 542574102,-3.6466256361,-6.2923230511\C,0,-6.1075456864,-2.4448271205,
 -5.4831347681\C,0,-5.6636404665,-1.2055620923,-6.2859835604\O,0,-5.922
 885462,-0.0747349229,-5.8308930985\C,0,-5.1526586803,-2.6766298886,-4.
 2954010106\C,0,-3.7316308203,-3.0480818312,-4.7249932851\N,0,-2.778021
 5281,-2.9081665158,-3.7742772841\O,0,-3.4822072054,-3.456542071,-5.858
 8007055\H,0,-5.3935010214,-4.1686022011,-6.4440030527\H,0,-7.073364499
 5,-2.1745902461,-5.0520469148\H,0,-5.5550607603,-3.4882804174,-3.67677
 09501\H,0,-5.1465131811,-1.7701724198,-3.6803980618\H,0,-1.8408338107,
 -3.2258178487,-3.9841183105\H,0,-2.9851371674,-2.6143063851,-2.8309216
 77\N,0,-5.0240704293,-1.4162611579,-7.4473953396\C,0,-4.5178050978,-0.
 336646382,-8.273436444\C,0,-5.4225015522,-0.1369260774,-9.4891275089\O
 ,0,-6.6332296399,-0.3854211947,-9.503819581\C,0,-3.0044103117,-0.45854
 79491,-8.5569814975\C,0,-2.5047775317,-1.8152235548,-9.071015204\C,0,-
 3.0288610727,-2.2362012337,-10.4463265227\N,0,-4.5026687744,-2.3097706
 537,-10.5337067216\C,0,-5.1557639385,-3.4190147926,-9.9724453563\N,0,-
 4.5610057787,-4.1174756942,-9.0739184907\N,0,-6.4319817843,-3.61487626
 27,-10.4893164386\O,0,-4.8471065258,0.5829099206,-10.4554021568\H,0,-5
 .5243121481,0.7730216975,-11.1326882121\H,0,-4.7835563434,-2.372528628
 4,-7.7189777419\H,0,-4.6618984493,0.5868626889,-7.6940921328\H,0,-2.72
 72639812,0.3437094334,-9.2491338072\H,0,-2.5016382,-0.2463868784,-7.60
 70233972\H,0,-1.4124556427,-1.7500073014,-9.1510805533\H,0,-2.71021664
 14,-2.6035808417,-8.3428735997\H,0,-2.7225373488,-1.4980224199,-11.195
 3007989\H,0,-2.5890265107,-3.2044899586,-10.7131793191\H,0,-4.82453458
 2,-2.1379478227,-11.4808974927\H,0,-5.1756827209,-4.8547520633,-8.7279
 063789\H,0,-6.9962989286,-4.2577093303,-9.9427785852\H,0,-6.9303538696
 ,-2.7738587641,-10.7582090018\\Version=ES64L-G16RevC.01\HF=-1917.50309
 57\RMSD=7.038e-09\Dipole=-0.6544034,2.8213386,-0.1642728\Quadrupole=88
 .0498805,-171.9261633,83.8762829,-11.0164978,229.93955,-16.2106779\PG=
 C01 [X(C23H36N9O7)]\\@
 The archive entry for this job was punched.


 TIMES HAVE CHANGED. IN THE BIBLE WHEN AN ASS
 SPOKE IT WAS CONSIDERED A MIRACLE.
 Job cpu time:       0 days  0 hours  3 minutes 23.4 seconds.
 Elapsed time:       0 days  0 hours  0 minutes 51.6 seconds.
 File lengths (MBytes):  RWF=    344 Int=      0 D2E=      0 Chk=     48 Scr=     16
 Normal termination of Gaussian 16 at Mon Jun  6 02:41:43 2022.
