 Entering Gaussian System, Link 0=/opt/software/Gaussian/g16-AVX2-C.01/g16/g16
 Input=charge-conf-883.com
 Output=charge-conf-883.log
 Initial command:
 /opt/software/Gaussian/g16-AVX2-C.01/g16/l1.exe "/mnt/gs18/scratch/users/kengmith/Gau-10485.inp" -scrdir="/mnt/gs18/scratch/users/kengmith/"
 Entering Link 1 = /opt/software/Gaussian/g16-AVX2-C.01/g16/l1.exe PID=     10505.
  
 Copyright (c) 1988-2019, Gaussian, Inc.  All Rights Reserved.
  
 This is part of the Gaussian(R) 16 program.  It is based on
 the Gaussian(R) 09 system (copyright 2009, Gaussian, Inc.),
 the Gaussian(R) 03 system (copyright 2003, Gaussian, Inc.),
 the Gaussian(R) 98 system (copyright 1998, Gaussian, Inc.),
 the Gaussian(R) 94 system (copyright 1995, Gaussian, Inc.),
 the Gaussian 92(TM) system (copyright 1992, Gaussian, Inc.),
 the Gaussian 90(TM) system (copyright 1990, Gaussian, Inc.),
 the Gaussian 88(TM) system (copyright 1988, Gaussian, Inc.),
 the Gaussian 86(TM) system (copyright 1986, Carnegie Mellon
 University), and the Gaussian 82(TM) system (copyright 1983,
 Carnegie Mellon University). Gaussian is a federally registered
 trademark of Gaussian, Inc.
  
 This software contains proprietary and confidential information,
 including trade secrets, belonging to Gaussian, Inc.
  
 This software is provided under written license and may be
 used, copied, transmitted, or stored only in accord with that
 written license.
  
 The following legend is applicable only to US Government
 contracts under FAR:
  
                    RESTRICTED RIGHTS LEGEND
  
 Use, reproduction and disclosure by the US Government is
 subject to restrictions as set forth in subparagraphs (a)
 and (c) of the Commercial Computer Software - Restricted
 Rights clause in FAR 52.227-19.
  
 Gaussian, Inc.
 340 Quinnipiac St., Bldg. 40, Wallingford CT 06492
  
  
 ---------------------------------------------------------------
 Warning -- This program may not be used in any manner that
 competes with the business of Gaussian, Inc. or will provide
 assistance to any competitor of Gaussian, Inc.  The licensee
 of this program is prohibited from giving any competitor of
 Gaussian, Inc. access to this program.  By using this program,
 the user acknowledges that Gaussian, Inc. is engaged in the
 business of creating and licensing software in the field of
 computational chemistry and represents and warrants to the
 licensee that it is not a competitor of Gaussian, Inc. and that
 it will not use this program in any manner prohibited above.
 ---------------------------------------------------------------
  

 Cite this work as:
 Gaussian 16, Revision C.01,
 M. J. Frisch, G. W. Trucks, H. B. Schlegel, G. E. Scuseria, 
 M. A. Robb, J. R. Cheeseman, G. Scalmani, V. Barone, 
 G. A. Petersson, H. Nakatsuji, X. Li, M. Caricato, A. V. Marenich, 
 J. Bloino, B. G. Janesko, R. Gomperts, B. Mennucci, H. P. Hratchian, 
 J. V. Ortiz, A. F. Izmaylov, J. L. Sonnenberg, D. Williams-Young, 
 F. Ding, F. Lipparini, F. Egidi, J. Goings, B. Peng, A. Petrone, 
 T. Henderson, D. Ranasinghe, V. G. Zakrzewski, J. Gao, N. Rega, 
 G. Zheng, W. Liang, M. Hada, M. Ehara, K. Toyota, R. Fukuda, 
 J. Hasegawa, M. Ishida, T. Nakajima, Y. Honda, O. Kitao, H. Nakai, 
 T. Vreven, K. Throssell, J. A. Montgomery, Jr., J. E. Peralta, 
 F. Ogliaro, M. J. Bearpark, J. J. Heyd, E. N. Brothers, K. N. Kudin, 
 V. N. Staroverov, T. A. Keith, R. Kobayashi, J. Normand, 
 K. Raghavachari, A. P. Rendell, J. C. Burant, S. S. Iyengar, 
 J. Tomasi, M. Cossi, J. M. Millam, M. Klene, C. Adamo, R. Cammi, 
 J. W. Ochterski, R. L. Martin, K. Morokuma, O. Farkas, 
 J. B. Foresman, and D. J. Fox, Gaussian, Inc., Wallingford CT, 2019.
 
 ******************************************
 Gaussian 16:  ES64L-G16RevC.01  3-Jul-2019
                 6-Jun-2022 
 ******************************************
 %mem=8gb
 %nproc=4
 Will use up to    4 processors via shared memory.
 %chk=conf-883.chk
 ----------------------------------------------------------------------
 # B3LYP/6-31G* empiricaldispersion=gd3 guess=read geom=check nosymm in
 tegral(ultrafinegrid)
 ----------------------------------------------------------------------
 1/29=2,38=1,172=1/1;
 2/12=2,15=1,40=1/2;
 3/5=1,6=6,7=1,11=2,14=-4,25=1,30=1,74=-5,75=-5,116=-2,124=31/1,2,3;
 4/5=1/1;
 5/5=2,38=6/2;
 6/7=2,8=2,9=2,10=2,28=1/1;
 99/5=1,9=1/99;
 ------------------------------------------------------
 Candidate Structure: Conf:883 Charge calc in gas phase
 ------------------------------------------------------
 Structure from the checkpoint file:  "conf-883.chk"
 Charge =  1 Multiplicity = 1
 Redundant internal coordinates found in file.  (old form).
 N,0,-9.1491923077,-2.79384643,-9.6222545549
 C,0,-9.7736959669,-3.209694961,-8.3159215663
 C,0,-9.315646695,-2.3817440583,-7.1085141501
 O,0,-10.1586392754,-1.9634952211,-6.3281295114
 C,0,-9.5262073803,-4.6977398904,-8.0588416545
 C,0,-10.0782310132,-5.5774956788,-9.1781407024
 N,0,-10.3114032038,-6.8601236944,-8.8405028443
 O,0,-10.2631090179,-5.1356574238,-10.3182587431
 H,0,-9.6096067892,-3.3872297238,-10.3426158041
 H,0,-10.8408746289,-3.0119903658,-8.4244458682
 H,0,-8.4529876018,-4.8960388879,-7.94373366
 H,0,-9.9698118951,-4.9558396301,-7.0926235739
 H,0,-10.6580045886,-7.4982616825,-9.545436236
 H,0,-10.180141057,-7.196960223,-7.8965548629
 H,0,-9.2561434058,-1.7581408712,-9.7592583655
 H,0,-8.1370327145,-2.9878926033,-9.6597655884
 N,0,-7.9745311158,-2.2199486593,-6.9288912821
 C,0,-7.4464437658,-1.7896557911,-5.6319170751
 C,0,-6.4823305228,-0.5848286505,-5.7428063917
 O,0,-5.3745796312,-0.6483466588,-5.2137844669
 C,0,-6.7588524942,-2.9694314919,-4.9080344244
 C,0,-7.5619982646,-4.2539176577,-4.958835293
 C,0,-8.8536700744,-4.3327632713,-4.4150932705
 C,0,-7.0236339763,-5.4003600007,-5.5592448513
 C,0,-9.5800178514,-5.5235945531,-4.4653356594
 C,0,-7.7441039219,-6.5978619682,-5.6095417879
 C,0,-9.0273033495,-6.6628845443,-5.061825336
 H,0,-7.3137251959,-2.6203880874,-7.5837300132
 H,0,-8.323337827,-1.4649314162,-5.0643992942
 H,0,-5.770556728,-3.1240207388,-5.3528372384
 H,0,-6.5699053603,-2.6637440184,-3.8735413336
 H,0,-9.2993629345,-3.456738879,-3.9525552701
 H,0,-6.0166406225,-5.3637029954,-5.969947705
 H,0,-10.5727651563,-5.5656852566,-4.0260850995
 H,0,-7.2940333082,-7.4803815836,-6.0566213101
 H,0,-9.5811920522,-7.5985327563,-5.0688679603
 N,0,-6.9009607952,0.5442208068,-6.3893480971
 C,0,-8.0963335696,0.7124409745,-7.2011721477
 C,0,-7.9585731498,0.1260016643,-8.6208207714
 O,0,-8.9840038312,-0.1272686326,-9.2763208274
 C,0,-8.527861217,2.1927066903,-7.2564605886
 C,0,-7.4904701566,3.0614360592,-7.9647276594
 N,0,-7.0465321114,4.1480230144,-7.2919743225
 O,0,-7.1104477417,2.7695200342,-9.0971392273
 H,0,-6.1451909724,1.2402127409,-6.5023577418
 H,0,-8.9292981332,0.1697117522,-6.7487877829
 H,0,-8.7451394089,2.5306839039,-6.2384578532
 H,0,-9.4531331232,2.2471566807,-7.8391201151
 H,0,-6.2669831062,4.6585811854,-7.686084782
 H,0,-7.2542039732,4.294003572,-6.3153233276
 N,0,-6.712107626,-0.1715509837,-9.0375029226
 C,0,-6.4081809865,-0.5623060059,-10.4061349437
 C,0,-5.5541994327,-1.8248400989,-10.3544042728
 O,0,-4.4571640097,-2.0034462544,-10.8102179462
 C,0,-5.8319910018,0.5747797183,-11.2744223264
 C,0,-4.3993064149,1.0864820302,-11.0319826508
 C,0,-4.089299003,1.6787487153,-9.6549113213
 N,0,-3.9074706889,0.6090213557,-8.6487397202
 C,0,-3.7225935783,0.9649854928,-7.3081966808
 N,0,-4.3747418368,1.9737313309,-6.826496336
 N,0,-2.863165007,0.1555319634,-6.5904303483
 O,0,-6.2083754605,-2.8540453271,-9.6779304866
 H,0,-5.6102627919,-3.6256579034,-9.7270879914
 H,0,-5.9064693795,0.1708618624,-8.5151359351
 H,0,-7.3649741057,-0.8488925669,-10.8570161127
 H,0,-5.8928686311,0.2369147642,-12.3162004731
 H,0,-6.5357073237,1.4052475706,-11.1591609839
 H,0,-3.6742357885,0.3018021339,-11.2758948012
 H,0,-4.2361070461,1.8847324479,-11.7656160265
 H,0,-3.1760565127,2.2865648388,-9.7129167176
 H,0,-4.8997443277,2.3256070037,-9.319848614
 H,0,-3.2538933798,-0.0971379612,-8.9741788689
 H,0,-4.1106886608,2.1161516984,-5.8507228434
 H,0,-3.1777399925,-0.0185981785,-5.6420052618
 H,0,-2.5331608408,-0.6903360489,-7.0390570721
 Recover connectivity data from disk.
                           ----------------------------
                           !    Current Parameters    !
                           ! (Angstroms and Degrees)  !
 --------------------------                            --------------------------
 ! Name  Definition              Value                                          !
 --------------------------------------------------------------------------------
 ! R1    R(1,2)                  1.5065                                         !
 ! R2    R(1,9)                  1.0407                                         !
 ! R3    R(1,15)                 1.0502                                         !
 ! R4    R(1,16)                 1.0313                                         !
 ! R5    R(2,3)                  1.534                                          !
 ! R6    R(2,5)                  1.5302                                         !
 ! R7    R(2,10)                 1.0907                                         !
 ! R8    R(3,4)                  1.2225                                         !
 ! R9    R(3,17)                 1.3627                                         !
 ! R10   R(5,6)                  1.5269                                         !
 ! R11   R(5,11)                 1.0974                                         !
 ! R12   R(5,12)                 1.0941                                         !
 ! R13   R(6,7)                  1.3467                                         !
 ! R14   R(6,8)                  1.2366                                         !
 ! R15   R(7,13)                 1.0121                                         !
 ! R16   R(7,14)                 1.0108                                         !
 ! R17   R(17,18)                1.465                                          !
 ! R18   R(17,28)                1.0128                                         !
 ! R19   R(18,19)                1.5471                                         !
 ! R20   R(18,21)                1.5455                                         !
 ! R21   R(18,29)                1.0938                                         !
 ! R22   R(19,20)                1.2292                                         !
 ! R23   R(19,37)                1.3668                                         !
 ! R24   R(21,22)                1.5158                                         !
 ! R25   R(21,30)                1.0947                                         !
 ! R26   R(21,31)                1.0951                                         !
 ! R27   R(22,23)                1.4037                                         !
 ! R28   R(22,24)                1.4017                                         !
 ! R29   R(23,25)                1.3958                                         !
 ! R30   R(23,32)                1.0863                                         !
 ! R31   R(24,26)                1.3984                                         !
 ! R32   R(24,33)                1.0881                                         !
 ! R33   R(25,27)                1.3997                                         !
 ! R34   R(25,34)                1.0864                                         !
 ! R35   R(26,27)                1.3967                                         !
 ! R36   R(26,35)                1.0869                                         !
 ! R37   R(27,36)                1.0873                                         !
 ! R38   R(37,38)                1.4547                                         !
 ! R39   R(37,45)                1.0336                                         !
 ! R40   R(38,39)                1.5422                                         !
 ! R41   R(38,41)                1.5429                                         !
 ! R42   R(38,46)                1.0923                                         !
 ! R43   R(39,40)                1.2431                                         !
 ! R44   R(39,51)                1.3475                                         !
 ! R45   R(41,42)                1.5273                                         !
 ! R46   R(41,47)                1.0944                                         !
 ! R47   R(41,48)                1.0948                                         !
 ! R48   R(42,43)                1.3529                                         !
 ! R49   R(42,44)                1.2296                                         !
 ! R50   R(43,49)                1.0118                                         !
 ! R51   R(43,50)                1.0091                                         !
 ! R52   R(51,52)                1.4554                                         !
 ! R53   R(51,64)                1.0194                                         !
 ! R54   R(52,53)                1.5251                                         !
 ! R55   R(52,55)                1.5424                                         !
 ! R56   R(52,65)                1.0958                                         !
 ! R57   R(53,54)                1.2013                                         !
 ! R58   R(53,62)                1.3946                                         !
 ! R59   R(55,56)                1.5405                                         !
 ! R60   R(55,66)                1.0969                                         !
 ! R61   R(55,67)                1.0946                                         !
 ! R62   R(56,57)                1.5308                                         !
 ! R63   R(56,68)                1.0959                                         !
 ! R64   R(56,69)                1.0964                                         !
 ! R65   R(57,58)                1.4798                                         !
 ! R66   R(57,70)                1.0986                                         !
 ! R67   R(57,71)                1.0897                                         !
 ! R68   R(58,59)                1.3993                                         !
 ! R69   R(58,72)                1.0157                                         !
 ! R70   R(59,60)                1.2942                                         !
 ! R71   R(59,61)                1.3817                                         !
 ! R72   R(60,73)                1.0209                                         !
 ! R73   R(61,74)                1.0143                                         !
 ! R74   R(61,75)                1.0127                                         !
 ! R75   R(62,63)                0.9775                                         !
 ! A1    A(2,1,9)              105.0372                                         !
 ! A2    A(2,1,15)             110.0685                                         !
 ! A3    A(2,1,16)             112.7348                                         !
 ! A4    A(9,1,15)             115.2753                                         !
 ! A5    A(9,1,16)             107.5629                                         !
 ! A6    A(15,1,16)            106.3064                                         !
 ! A7    A(1,2,3)              114.1898                                         !
 ! A8    A(1,2,5)              110.308                                          !
 ! A9    A(1,2,10)             105.6214                                         !
 ! A10   A(3,2,5)              110.1408                                         !
 ! A11   A(3,2,10)             105.8207                                         !
 ! A12   A(5,2,10)             110.5614                                         !
 ! A13   A(2,3,4)              118.7632                                         !
 ! A14   A(2,3,17)             117.4964                                         !
 ! A15   A(4,3,17)             123.6318                                         !
 ! A16   A(2,5,6)              112.2502                                         !
 ! A17   A(2,5,11)             110.5788                                         !
 ! A18   A(2,5,12)             108.1917                                         !
 ! A19   A(6,5,11)             109.0458                                         !
 ! A20   A(6,5,12)             111.3997                                         !
 ! A21   A(11,5,12)            105.1447                                         !
 ! A22   A(5,6,7)              115.3134                                         !
 ! A23   A(5,6,8)              121.602                                          !
 ! A24   A(7,6,8)              123.0635                                         !
 ! A25   A(6,7,13)             119.0262                                         !
 ! A26   A(6,7,14)             121.9409                                         !
 ! A27   A(13,7,14)            119.0004                                         !
 ! A28   A(3,17,18)            120.4193                                         !
 ! A29   A(3,17,28)            120.6587                                         !
 ! A30   A(18,17,28)           116.9579                                         !
 ! A31   A(17,18,19)           112.9501                                         !
 ! A32   A(17,18,21)           110.5375                                         !
 ! A33   A(17,18,29)           104.9246                                         !
 ! A34   A(19,18,21)           110.5364                                         !
 ! A35   A(19,18,29)           107.7934                                         !
 ! A36   A(21,18,29)           109.8929                                         !
 ! A37   A(18,19,20)           119.3741                                         !
 ! A38   A(18,19,37)           119.1018                                         !
 ! A39   A(20,19,37)           121.4864                                         !
 ! A40   A(18,21,22)           113.2939                                         !
 ! A41   A(18,21,30)           108.6097                                         !
 ! A42   A(18,21,31)           107.8256                                         !
 ! A43   A(22,21,30)           110.1853                                         !
 ! A44   A(22,21,31)           111.0769                                         !
 ! A45   A(30,21,31)           105.5136                                         !
 ! A46   A(21,22,23)           121.4802                                         !
 ! A47   A(21,22,24)           120.2623                                         !
 ! A48   A(23,22,24)           118.2574                                         !
 ! A49   A(22,23,25)           120.8538                                         !
 ! A50   A(22,23,32)           119.8149                                         !
 ! A51   A(25,23,32)           119.3306                                         !
 ! A52   A(22,24,26)           121.1928                                         !
 ! A53   A(22,24,33)           119.3122                                         !
 ! A54   A(26,24,33)           119.4753                                         !
 ! A55   A(23,25,27)           120.2831                                         !
 ! A56   A(23,25,34)           119.606                                          !
 ! A57   A(27,25,34)           120.1055                                         !
 ! A58   A(24,26,27)           119.9395                                         !
 ! A59   A(24,26,35)           119.7863                                         !
 ! A60   A(27,26,35)           120.2616                                         !
 ! A61   A(25,27,26)           119.4717                                         !
 ! A62   A(25,27,36)           120.1325                                         !
 ! A63   A(26,27,36)           120.366                                          !
 ! A64   A(19,37,38)           127.676                                          !
 ! A65   A(19,37,45)           112.5821                                         !
 ! A66   A(38,37,45)           117.5127                                         !
 ! A67   A(37,38,39)           113.3497                                         !
 ! A68   A(37,38,41)           111.1472                                         !
 ! A69   A(37,38,46)           109.7582                                         !
 ! A70   A(39,38,41)           110.9059                                         !
 ! A71   A(39,38,46)           105.0961                                         !
 ! A72   A(41,38,46)           106.157                                          !
 ! A73   A(38,39,40)           119.288                                          !
 ! A74   A(38,39,51)           116.8239                                         !
 ! A75   A(40,39,51)           123.7094                                         !
 ! A76   A(38,41,42)           111.862                                          !
 ! A77   A(38,41,47)           108.5711                                         !
 ! A78   A(38,41,48)           107.6481                                         !
 ! A79   A(42,41,47)           112.9894                                         !
 ! A80   A(42,41,48)           107.3957                                         !
 ! A81   A(47,41,48)           108.1734                                         !
 ! A82   A(41,42,43)           116.6876                                         !
 ! A83   A(41,42,44)           120.1306                                         !
 ! A84   A(43,42,44)           123.1757                                         !
 ! A85   A(42,43,49)           117.6719                                         !
 ! A86   A(42,43,50)           122.0009                                         !
 ! A87   A(49,43,50)           117.5525                                         !
 ! A88   A(39,51,52)           122.9039                                         !
 ! A89   A(39,51,64)           119.8951                                         !
 ! A90   A(52,51,64)           114.0179                                         !
 ! A91   A(51,52,53)           107.8963                                         !
 ! A92   A(51,52,55)           114.1715                                         !
 ! A93   A(51,52,65)           105.9501                                         !
 ! A94   A(53,52,55)           114.8485                                         !
 ! A95   A(53,52,65)           106.6399                                         !
 ! A96   A(55,52,65)           106.6993                                         !
 ! A97   A(52,53,54)           128.4296                                         !
 ! A98   A(52,53,62)           111.3914                                         !
 ! A99   A(54,53,62)           120.1787                                         !
 ! A100  A(52,55,56)           120.2459                                         !
 ! A101  A(52,55,66)           106.6699                                         !
 ! A102  A(52,55,67)           105.0631                                         !
 ! A103  A(56,55,66)           107.6618                                         !
 ! A104  A(56,55,67)           109.2269                                         !
 ! A105  A(66,55,67)           107.3387                                         !
 ! A106  A(55,56,57)           117.2862                                         !
 ! A107  A(55,56,68)           110.0266                                         !
 ! A108  A(55,56,69)           105.96                                           !
 ! A109  A(57,56,68)           110.0764                                         !
 ! A110  A(57,56,69)           106.8647                                         !
 ! A111  A(68,56,69)           105.8968                                         !
 ! A112  A(56,57,58)           110.908                                          !
 ! A113  A(56,57,70)           109.5683                                         !
 ! A114  A(56,57,71)           110.8337                                         !
 ! A115  A(58,57,70)           109.4949                                         !
 ! A116  A(58,57,71)           108.1451                                         !
 ! A117  A(70,57,71)           107.8222                                         !
 ! A118  A(57,58,59)           118.9303                                         !
 ! A119  A(57,58,72)           111.3325                                         !
 ! A120  A(59,58,72)           113.5027                                         !
 ! A121  A(58,59,60)           119.2284                                         !
 ! A122  A(58,59,61)           115.5207                                         !
 ! A123  A(60,59,61)           125.2205                                         !
 ! A124  A(59,60,73)           109.5221                                         !
 ! A125  A(59,61,74)           113.1673                                         !
 ! A126  A(59,61,75)           117.5082                                         !
 ! A127  A(74,61,75)           111.8319                                         !
 ! A128  A(53,62,63)           105.7321                                         !
 ! D1    D(9,1,2,3)           -175.6169                                         !
 ! D2    D(9,1,2,5)             59.7215                                         !
 ! D3    D(9,1,2,10)           -59.7721                                         !
 ! D4    D(15,1,2,3)           -50.9483                                         !
 ! D5    D(15,1,2,5)          -175.6099                                         !
 ! D6    D(15,1,2,10)           64.8965                                         !
 ! D7    D(16,1,2,3)            67.5533                                         !
 ! D8    D(16,1,2,5)           -57.1082                                         !
 ! D9    D(16,1,2,10)         -176.6019                                         !
 ! D10   D(1,2,3,4)            133.2375                                         !
 ! D11   D(1,2,3,17)           -50.413                                          !
 ! D12   D(5,2,3,4)           -102.0119                                         !
 ! D13   D(5,2,3,17)            74.3375                                         !
 ! D14   D(10,2,3,4)            17.5089                                         !
 ! D15   D(10,2,3,17)         -166.1416                                         !
 ! D16   D(1,2,5,6)            -58.1413                                         !
 ! D17   D(1,2,5,11)            63.8786                                         !
 ! D18   D(1,2,5,12)           178.5321                                         !
 ! D19   D(3,2,5,6)            174.9098                                         !
 ! D20   D(3,2,5,11)           -63.0703                                         !
 ! D21   D(3,2,5,12)            51.5832                                         !
 ! D22   D(10,2,5,6)            58.3126                                         !
 ! D23   D(10,2,5,11)         -179.6675                                         !
 ! D24   D(10,2,5,12)          -65.014                                          !
 ! D25   D(2,3,17,18)         -162.4266                                         !
 ! D26   D(2,3,17,28)            1.1455                                         !
 ! D27   D(4,3,17,18)           13.7296                                         !
 ! D28   D(4,3,17,28)          177.3018                                         !
 ! D29   D(2,5,6,7)           -158.4912                                         !
 ! D30   D(2,5,6,8)             23.1294                                         !
 ! D31   D(11,5,6,7)            78.6205                                         !
 ! D32   D(11,5,6,8)           -99.7588                                         !
 ! D33   D(12,5,6,7)           -36.9831                                         !
 ! D34   D(12,5,6,8)           144.6375                                         !
 ! D35   D(5,6,7,13)          -178.6258                                         !
 ! D36   D(5,6,7,14)             3.4731                                         !
 ! D37   D(8,6,7,13)            -0.2728                                         !
 ! D38   D(8,6,7,14)          -178.174                                          !
 ! D39   D(3,17,18,19)        -128.9216                                         !
 ! D40   D(3,17,18,21)         106.645                                          !
 ! D41   D(3,17,18,29)         -11.7728                                         !
 ! D42   D(28,17,18,19)         66.9174                                         !
 ! D43   D(28,17,18,21)        -57.5161                                         !
 ! D44   D(28,17,18,29)       -175.9338                                         !
 ! D45   D(17,18,19,20)       -128.489                                          !
 ! D46   D(17,18,19,37)         53.7097                                         !
 ! D47   D(21,18,19,20)         -4.055                                          !
 ! D48   D(21,18,19,37)        178.1437                                         !
 ! D49   D(29,18,19,20)        116.0665                                         !
 ! D50   D(29,18,19,37)        -61.7349                                         !
 ! D51   D(17,18,21,22)        -44.989                                          !
 ! D52   D(17,18,21,30)         77.7887                                         !
 ! D53   D(17,18,21,31)       -168.337                                          !
 ! D54   D(19,18,21,22)       -170.7913                                         !
 ! D55   D(19,18,21,30)        -48.0136                                         !
 ! D56   D(19,18,21,31)         65.8607                                         !
 ! D57   D(29,18,21,22)         70.3544                                         !
 ! D58   D(29,18,21,30)       -166.8679                                         !
 ! D59   D(29,18,21,31)        -52.9936                                         !
 ! D60   D(18,19,37,38)        -10.8107                                         !
 ! D61   D(18,19,37,45)       -173.2264                                         !
 ! D62   D(20,19,37,38)        171.4362                                         !
 ! D63   D(20,19,37,45)          9.0204                                         !
 ! D64   D(18,21,22,23)        -60.0057                                         !
 ! D65   D(18,21,22,24)        119.8876                                         !
 ! D66   D(30,21,22,23)        178.0929                                         !
 ! D67   D(30,21,22,24)         -2.0138                                         !
 ! D68   D(31,21,22,23)         61.5357                                         !
 ! D69   D(31,21,22,24)       -118.571                                          !
 ! D70   D(21,22,23,25)       -179.7947                                         !
 ! D71   D(21,22,23,32)          0.5023                                         !
 ! D72   D(24,22,23,25)          0.31                                           !
 ! D73   D(24,22,23,32)       -179.393                                          !
 ! D74   D(21,22,24,26)        179.5972                                         !
 ! D75   D(21,22,24,33)          1.2215                                         !
 ! D76   D(23,22,24,26)         -0.5061                                         !
 ! D77   D(23,22,24,33)       -178.8818                                         !
 ! D78   D(22,23,25,27)          0.0178                                         !
 ! D79   D(22,23,25,34)        179.167                                          !
 ! D80   D(32,23,25,27)        179.7222                                         !
 ! D81   D(32,23,25,34)         -1.1286                                         !
 ! D82   D(22,24,26,27)          0.3732                                         !
 ! D83   D(22,24,26,35)       -178.3409                                         !
 ! D84   D(33,24,26,27)        178.7463                                         !
 ! D85   D(33,24,26,35)          0.0322                                         !
 ! D86   D(23,25,27,26)         -0.1591                                         !
 ! D87   D(23,25,27,36)        177.8629                                         !
 ! D88   D(34,25,27,26)       -179.304                                          !
 ! D89   D(34,25,27,36)         -1.2821                                         !
 ! D90   D(24,26,27,25)         -0.0335                                         !
 ! D91   D(24,26,27,36)       -178.0507                                         !
 ! D92   D(35,26,27,25)        178.6745                                         !
 ! D93   D(35,26,27,36)          0.6572                                         !
 ! D94   D(19,37,38,39)        -78.2264                                         !
 ! D95   D(19,37,38,41)        156.0612                                         !
 ! D96   D(19,37,38,46)         38.9338                                         !
 ! D97   D(45,37,38,39)         83.442                                          !
 ! D98   D(45,37,38,41)        -42.2703                                         !
 ! D99   D(45,37,38,46)       -159.3977                                         !
 ! D100  D(37,38,39,40)        160.461                                          !
 ! D101  D(37,38,39,51)        -14.8623                                         !
 ! D102  D(41,38,39,40)        -73.698                                          !
 ! D103  D(41,38,39,51)        110.9788                                         !
 ! D104  D(46,38,39,40)         40.6053                                         !
 ! D105  D(46,38,39,51)       -134.7179                                         !
 ! D106  D(37,38,41,42)         64.8465                                         !
 ! D107  D(37,38,41,47)        -60.5157                                         !
 ! D108  D(37,38,41,48)       -177.3984                                         !
 ! D109  D(39,38,41,42)        -62.2145                                         !
 ! D110  D(39,38,41,47)        172.4233                                         !
 ! D111  D(39,38,41,48)         55.5406                                         !
 ! D112  D(46,38,41,42)       -175.8504                                         !
 ! D113  D(46,38,41,47)         58.7874                                         !
 ! D114  D(46,38,41,48)        -58.0953                                         !
 ! D115  D(38,39,51,52)       -171.6412                                         !
 ! D116  D(38,39,51,64)        -13.0218                                         !
 ! D117  D(40,39,51,52)         13.2627                                         !
 ! D118  D(40,39,51,64)        171.8821                                         !
 ! D119  D(38,41,42,43)       -126.5419                                         !
 ! D120  D(38,41,42,44)         54.3238                                         !
 ! D121  D(47,41,42,43)         -3.6545                                         !
 ! D122  D(47,41,42,44)        177.2112                                         !
 ! D123  D(48,41,42,43)        115.5521                                         !
 ! D124  D(48,41,42,44)        -63.5822                                         !
 ! D125  D(41,42,43,49)        171.4328                                         !
 ! D126  D(41,42,43,50)         10.7717                                         !
 ! D127  D(44,42,43,49)         -9.4618                                         !
 ! D128  D(44,42,43,50)       -170.1229                                         !
 ! D129  D(39,51,52,53)       -130.9206                                         !
 ! D130  D(39,51,52,55)        100.1062                                         !
 ! D131  D(39,51,52,65)        -17.0133                                         !
 ! D132  D(64,51,52,53)         69.3229                                         !
 ! D133  D(64,51,52,55)        -59.6503                                         !
 ! D134  D(64,51,52,65)       -176.7698                                         !
 ! D135  D(51,52,53,54)       -122.1256                                         !
 ! D136  D(51,52,53,62)         58.1135                                         !
 ! D137  D(55,52,53,54)          6.4635                                         !
 ! D138  D(55,52,53,62)       -173.2975                                         !
 ! D139  D(65,52,53,54)        124.4271                                         !
 ! D140  D(65,52,53,62)        -55.3339                                         !
 ! D141  D(51,52,55,56)         71.5658                                         !
 ! D142  D(51,52,55,66)       -165.6679                                         !
 ! D143  D(51,52,55,67)        -51.9175                                         !
 ! D144  D(53,52,55,56)        -53.817                                          !
 ! D145  D(53,52,55,66)         68.9494                                         !
 ! D146  D(53,52,55,67)       -177.3003                                         !
 ! D147  D(65,52,55,56)       -171.7471                                         !
 ! D148  D(65,52,55,66)        -48.9807                                         !
 ! D149  D(65,52,55,67)         64.7696                                         !
 ! D150  D(52,53,62,63)        177.6412                                         !
 ! D151  D(54,53,62,63)         -2.1422                                         !
 ! D152  D(52,55,56,57)        -60.637                                          !
 ! D153  D(52,55,56,68)         66.1707                                         !
 ! D154  D(52,55,56,69)       -179.7837                                         !
 ! D155  D(66,55,56,57)        177.0771                                         !
 ! D156  D(66,55,56,68)        -56.1152                                         !
 ! D157  D(66,55,56,69)         57.9304                                         !
 ! D158  D(67,55,56,57)         60.8273                                         !
 ! D159  D(67,55,56,68)       -172.365                                          !
 ! D160  D(67,55,56,69)        -58.3194                                         !
 ! D161  D(55,56,57,58)         77.3056                                         !
 ! D162  D(55,56,57,70)       -161.701                                          !
 ! D163  D(55,56,57,71)        -42.8316                                         !
 ! D164  D(68,56,57,58)        -49.4777                                         !
 ! D165  D(68,56,57,70)         71.5157                                         !
 ! D166  D(68,56,57,71)       -169.6149                                         !
 ! D167  D(69,56,57,58)       -164.0304                                         !
 ! D168  D(69,56,57,70)        -43.037                                          !
 ! D169  D(69,56,57,71)         75.8325                                         !
 ! D170  D(56,57,58,59)       -174.9455                                         !
 ! D171  D(56,57,58,72)         50.2228                                         !
 ! D172  D(70,57,58,59)         64.0178                                         !
 ! D173  D(70,57,58,72)        -70.8138                                         !
 ! D174  D(71,57,58,59)        -53.2203                                         !
 ! D175  D(71,57,58,72)        171.9481                                         !
 ! D176  D(57,58,59,60)         37.1832                                         !
 ! D177  D(57,58,59,61)       -144.719                                          !
 ! D178  D(72,58,59,60)        171.0997                                         !
 ! D179  D(72,58,59,61)        -10.8025                                         !
 ! D180  D(58,59,60,73)       -178.474                                          !
 ! D181  D(61,59,60,73)          3.6273                                         !
 ! D182  D(58,59,61,74)       -140.6615                                         !
 ! D183  D(58,59,61,75)         -7.9034                                         !
 ! D184  D(60,59,61,74)         37.3064                                         !
 ! D185  D(60,59,61,75)        170.0646                                         !
 --------------------------------------------------------------------------------
 Symmetry turned off by external request.
 Stoichiometry    C23H36N9O7(1+)
 Framework group  C1[X(C23H36N9O7)]
 Deg. of freedom   219
 Full point group                 C1      NOp   1
                          Input orientation:                          
 ---------------------------------------------------------------------
 Center     Atomic      Atomic             Coordinates (Angstroms)
 Number     Number       Type             X           Y           Z
 ---------------------------------------------------------------------
      1          7           0       -9.149192   -2.793846   -9.622255
      2          6           0       -9.773696   -3.209695   -8.315922
      3          6           0       -9.315647   -2.381744   -7.108514
      4          8           0      -10.158639   -1.963495   -6.328130
      5          6           0       -9.526207   -4.697740   -8.058842
      6          6           0      -10.078231   -5.577496   -9.178141
      7          7           0      -10.311403   -6.860124   -8.840503
      8          8           0      -10.263109   -5.135657  -10.318259
      9          1           0       -9.609607   -3.387230  -10.342616
     10          1           0      -10.840875   -3.011990   -8.424446
     11          1           0       -8.452988   -4.896039   -7.943734
     12          1           0       -9.969812   -4.955840   -7.092624
     13          1           0      -10.658005   -7.498262   -9.545436
     14          1           0      -10.180141   -7.196960   -7.896555
     15          1           0       -9.256143   -1.758141   -9.759258
     16          1           0       -8.137033   -2.987893   -9.659766
     17          7           0       -7.974531   -2.219949   -6.928891
     18          6           0       -7.446444   -1.789656   -5.631917
     19          6           0       -6.482331   -0.584829   -5.742806
     20          8           0       -5.374580   -0.648347   -5.213784
     21          6           0       -6.758852   -2.969431   -4.908034
     22          6           0       -7.561998   -4.253918   -4.958835
     23          6           0       -8.853670   -4.332763   -4.415093
     24          6           0       -7.023634   -5.400360   -5.559245
     25          6           0       -9.580018   -5.523595   -4.465336
     26          6           0       -7.744104   -6.597862   -5.609542
     27          6           0       -9.027303   -6.662885   -5.061825
     28          1           0       -7.313725   -2.620388   -7.583730
     29          1           0       -8.323338   -1.464931   -5.064399
     30          1           0       -5.770557   -3.124021   -5.352837
     31          1           0       -6.569905   -2.663744   -3.873541
     32          1           0       -9.299363   -3.456739   -3.952555
     33          1           0       -6.016641   -5.363703   -5.969948
     34          1           0      -10.572765   -5.565685   -4.026085
     35          1           0       -7.294033   -7.480382   -6.056621
     36          1           0       -9.581192   -7.598533   -5.068868
     37          7           0       -6.900961    0.544221   -6.389348
     38          6           0       -8.096334    0.712441   -7.201172
     39          6           0       -7.958573    0.126002   -8.620821
     40          8           0       -8.984004   -0.127269   -9.276321
     41          6           0       -8.527861    2.192707   -7.256461
     42          6           0       -7.490470    3.061436   -7.964728
     43          7           0       -7.046532    4.148023   -7.291974
     44          8           0       -7.110448    2.769520   -9.097139
     45          1           0       -6.145191    1.240213   -6.502358
     46          1           0       -8.929298    0.169712   -6.748788
     47          1           0       -8.745139    2.530684   -6.238458
     48          1           0       -9.453133    2.247157   -7.839120
     49          1           0       -6.266983    4.658581   -7.686085
     50          1           0       -7.254204    4.294004   -6.315323
     51          7           0       -6.712108   -0.171551   -9.037503
     52          6           0       -6.408181   -0.562306  -10.406135
     53          6           0       -5.554199   -1.824840  -10.354404
     54          8           0       -4.457164   -2.003446  -10.810218
     55          6           0       -5.831991    0.574780  -11.274422
     56          6           0       -4.399306    1.086482  -11.031983
     57          6           0       -4.089299    1.678749   -9.654911
     58          7           0       -3.907471    0.609021   -8.648740
     59          6           0       -3.722594    0.964985   -7.308197
     60          7           0       -4.374742    1.973731   -6.826496
     61          7           0       -2.863165    0.155532   -6.590430
     62          8           0       -6.208375   -2.854045   -9.677930
     63          1           0       -5.610263   -3.625658   -9.727088
     64          1           0       -5.906469    0.170862   -8.515136
     65          1           0       -7.364974   -0.848893  -10.857016
     66          1           0       -5.892869    0.236915  -12.316200
     67          1           0       -6.535707    1.405248  -11.159161
     68          1           0       -3.674236    0.301802  -11.275895
     69          1           0       -4.236107    1.884732  -11.765616
     70          1           0       -3.176057    2.286565   -9.712917
     71          1           0       -4.899744    2.325607   -9.319849
     72          1           0       -3.253893   -0.097138   -8.974179
     73          1           0       -4.110689    2.116152   -5.850723
     74          1           0       -3.177740   -0.018598   -5.642005
     75          1           0       -2.533161   -0.690336   -7.039057
 ---------------------------------------------------------------------
 Rotational constants (GHZ):           0.1493898           0.0701031           0.0645738
 Standard basis: 6-31G(d) (6D, 7F)
   657 basis functions,  1236 primitive gaussians,   657 cartesian basis functions
   146 alpha electrons      146 beta electrons
       nuclear repulsion energy      5141.1812819618 Hartrees.
 NAtoms=   75 NActive=   75 NUniq=   75 SFac= 1.00D+00 NAtFMM=   60 NAOKFM=T Big=T
 Integral buffers will be    131072 words long.
 Raffenetti 2 integral format.
 Two-electron integral symmetry is turned off.
 Nuclear repulsion after empirical dispersion term =     5141.0569688701 Hartrees.
 One-electron integrals computed using PRISM.
 NBasis=   657 RedAO= T EigKep=  4.65D-04  NBF=   657
 NBsUse=   657 1.00D-06 EigRej= -1.00D+00 NBFU=   657
 Initial guess from the checkpoint file:  "conf-883.chk"
 B after Tr=     0.000000    0.000000    0.000000
         Rot=    1.000000    0.000000    0.000000    0.000000 Ang=   0.00 deg.
 Requested convergence on RMS density matrix=1.00D-08 within 128 cycles.
 Requested convergence on MAX density matrix=1.00D-06.
 Requested convergence on             energy=1.00D-06.
 No special actions if energy rises.
 SCF Done:  E(RB3LYP) =  -1917.48948129     A.U. after    1 cycles
            NFock=  1  Conv=0.16D-08     -V/T= 2.0093

 **********************************************************************

            Population analysis using the SCF Density.

 **********************************************************************

 Alpha  occ. eigenvalues --  -19.34246 -19.27993 -19.24873 -19.24177 -19.23934
 Alpha  occ. eigenvalues --  -19.22018 -19.20621 -14.55303 -14.48782 -14.48323
 Alpha  occ. eigenvalues --  -14.47222 -14.45460 -14.44847 -14.44803 -14.43622
 Alpha  occ. eigenvalues --  -14.37730 -10.45569 -10.42433 -10.41771 -10.40761
 Alpha  occ. eigenvalues --  -10.39496 -10.38487 -10.38390 -10.37768 -10.35906
 Alpha  occ. eigenvalues --  -10.34606 -10.34581 -10.33461 -10.30100 -10.29973
 Alpha  occ. eigenvalues --  -10.29559 -10.29400 -10.29372 -10.29249 -10.29234
 Alpha  occ. eigenvalues --  -10.29128 -10.28862 -10.28496 -10.27333  -1.24057
 Alpha  occ. eigenvalues --   -1.16795  -1.16318  -1.15544  -1.15433  -1.13815
 Alpha  occ. eigenvalues --   -1.12413  -1.10870  -1.07036  -1.05286  -1.04622
 Alpha  occ. eigenvalues --   -1.03318  -1.02210  -0.99605  -0.97899  -0.95755
 Alpha  occ. eigenvalues --   -0.93360  -0.92414  -0.90175  -0.89110  -0.87867
 Alpha  occ. eigenvalues --   -0.84761  -0.84594  -0.84402  -0.81184  -0.78295
 Alpha  occ. eigenvalues --   -0.78135  -0.76636  -0.73160  -0.72933  -0.72071
 Alpha  occ. eigenvalues --   -0.71495  -0.70839  -0.70452  -0.69303  -0.68895
 Alpha  occ. eigenvalues --   -0.68378  -0.68042  -0.67897  -0.67716  -0.65934
 Alpha  occ. eigenvalues --   -0.65343  -0.64759  -0.63358  -0.62774  -0.62673
 Alpha  occ. eigenvalues --   -0.61861  -0.61532  -0.60869  -0.60708  -0.59882
 Alpha  occ. eigenvalues --   -0.59620  -0.58709  -0.58365  -0.57486  -0.56483
 Alpha  occ. eigenvalues --   -0.56159  -0.55560  -0.55395  -0.55131  -0.55000
 Alpha  occ. eigenvalues --   -0.54785  -0.54399  -0.53963  -0.53770  -0.53295
 Alpha  occ. eigenvalues --   -0.52916  -0.52662  -0.52443  -0.52304  -0.51940
 Alpha  occ. eigenvalues --   -0.51771  -0.51282  -0.50822  -0.49830  -0.49773
 Alpha  occ. eigenvalues --   -0.49217  -0.48896  -0.48436  -0.47698  -0.46968
 Alpha  occ. eigenvalues --   -0.46773  -0.46586  -0.46260  -0.45895  -0.45581
 Alpha  occ. eigenvalues --   -0.44218  -0.43963  -0.43744  -0.43334  -0.42857
 Alpha  occ. eigenvalues --   -0.40555  -0.39730  -0.39610  -0.39339  -0.38719
 Alpha  occ. eigenvalues --   -0.37851  -0.37430  -0.36550  -0.35978  -0.35604
 Alpha  occ. eigenvalues --   -0.35427  -0.35249  -0.34815  -0.34495  -0.34237
 Alpha  occ. eigenvalues --   -0.31818
 Alpha virt. eigenvalues --   -0.13293  -0.11921  -0.10831  -0.10584  -0.10161
 Alpha virt. eigenvalues --   -0.09883  -0.08828  -0.07425  -0.06769  -0.05017
 Alpha virt. eigenvalues --   -0.03840  -0.02826  -0.02626  -0.01405  -0.01097
 Alpha virt. eigenvalues --   -0.00386   0.00167   0.00837   0.01097   0.02109
 Alpha virt. eigenvalues --    0.02615   0.03016   0.03266   0.03415   0.03933
 Alpha virt. eigenvalues --    0.04105   0.04315   0.04373   0.04879   0.05134
 Alpha virt. eigenvalues --    0.05629   0.06063   0.06318   0.06682   0.06913
 Alpha virt. eigenvalues --    0.07027   0.07343   0.07617   0.07691   0.07927
 Alpha virt. eigenvalues --    0.08424   0.08666   0.09061   0.09499   0.09676
 Alpha virt. eigenvalues --    0.09934   0.10549   0.10702   0.11004   0.11260
 Alpha virt. eigenvalues --    0.11782   0.12470   0.13225   0.13577   0.13770
 Alpha virt. eigenvalues --    0.14170   0.14341   0.14786   0.15729   0.16432
 Alpha virt. eigenvalues --    0.17286   0.17369   0.18979   0.19466   0.19817
 Alpha virt. eigenvalues --    0.20263   0.20415   0.20873   0.22123   0.22618
 Alpha virt. eigenvalues --    0.23015   0.23394   0.24435   0.24913   0.26098
 Alpha virt. eigenvalues --    0.26507   0.27444   0.28104   0.29196   0.30782
 Alpha virt. eigenvalues --    0.31958   0.32988   0.34738   0.35940   0.36029
 Alpha virt. eigenvalues --    0.36444   0.37259   0.38618   0.39806   0.40452
 Alpha virt. eigenvalues --    0.41433   0.41926   0.42265   0.43035   0.43237
 Alpha virt. eigenvalues --    0.43578   0.44475   0.44878   0.45162   0.45416
 Alpha virt. eigenvalues --    0.45733   0.45939   0.47155   0.47283   0.47764
 Alpha virt. eigenvalues --    0.48143   0.48327   0.49269   0.49368   0.49860
 Alpha virt. eigenvalues --    0.50012   0.50331   0.50504   0.50916   0.51547
 Alpha virt. eigenvalues --    0.51652   0.51803   0.52351   0.52642   0.53052
 Alpha virt. eigenvalues --    0.53479   0.53950   0.54081   0.55117   0.55637
 Alpha virt. eigenvalues --    0.55760   0.56395   0.56753   0.57364   0.57533
 Alpha virt. eigenvalues --    0.58068   0.58738   0.59235   0.59567   0.59984
 Alpha virt. eigenvalues --    0.60246   0.60678   0.61033   0.61625   0.62269
 Alpha virt. eigenvalues --    0.62502   0.63005   0.63306   0.63892   0.64883
 Alpha virt. eigenvalues --    0.65533   0.65910   0.66802   0.67824   0.68057
 Alpha virt. eigenvalues --    0.68785   0.69215   0.69412   0.69871   0.70197
 Alpha virt. eigenvalues --    0.71138   0.71445   0.72152   0.72926   0.73477
 Alpha virt. eigenvalues --    0.73660   0.73983   0.74637   0.75020   0.75099
 Alpha virt. eigenvalues --    0.75154   0.75586   0.76044   0.76165   0.76582
 Alpha virt. eigenvalues --    0.77325   0.77427   0.77586   0.78632   0.78844
 Alpha virt. eigenvalues --    0.79578   0.79758   0.79941   0.80047   0.80158
 Alpha virt. eigenvalues --    0.80528   0.80942   0.81253   0.81778   0.82513
 Alpha virt. eigenvalues --    0.82706   0.82859   0.83233   0.83495   0.83836
 Alpha virt. eigenvalues --    0.84503   0.85111   0.85404   0.85640   0.86000
 Alpha virt. eigenvalues --    0.86895   0.87386   0.87562   0.88825   0.89177
 Alpha virt. eigenvalues --    0.89387   0.89986   0.90570   0.91042   0.91945
 Alpha virt. eigenvalues --    0.92630   0.93115   0.93983   0.94553   0.94774
 Alpha virt. eigenvalues --    0.94880   0.95755   0.96408   0.97039   0.97895
 Alpha virt. eigenvalues --    0.98051   0.98899   0.99471   1.00673   1.00958
 Alpha virt. eigenvalues --    1.01825   1.03329   1.03495   1.04103   1.04835
 Alpha virt. eigenvalues --    1.05411   1.05521   1.06707   1.08044   1.08405
 Alpha virt. eigenvalues --    1.08608   1.09555   1.10157   1.10993   1.12714
 Alpha virt. eigenvalues --    1.13418   1.13555   1.14727   1.15208   1.15768
 Alpha virt. eigenvalues --    1.16046   1.17539   1.18525   1.18876   1.19382
 Alpha virt. eigenvalues --    1.20652   1.22029   1.22478   1.23341   1.24027
 Alpha virt. eigenvalues --    1.24838   1.25599   1.26536   1.26678   1.27217
 Alpha virt. eigenvalues --    1.27730   1.28547   1.29222   1.30234   1.30715
 Alpha virt. eigenvalues --    1.31422   1.32448   1.32846   1.33479   1.34396
 Alpha virt. eigenvalues --    1.35380   1.35705   1.36739   1.36846   1.38047
 Alpha virt. eigenvalues --    1.38582   1.39008   1.39684   1.40587   1.41235
 Alpha virt. eigenvalues --    1.41881   1.43213   1.45087   1.45760   1.46271
 Alpha virt. eigenvalues --    1.48379   1.49370   1.50090   1.50689   1.51037
 Alpha virt. eigenvalues --    1.52408   1.52932   1.54117   1.55120   1.55380
 Alpha virt. eigenvalues --    1.55955   1.57335   1.58452   1.59265   1.59860
 Alpha virt. eigenvalues --    1.60439   1.60761   1.61680   1.62525   1.63412
 Alpha virt. eigenvalues --    1.64028   1.64742   1.65134   1.65518   1.66089
 Alpha virt. eigenvalues --    1.66820   1.67381   1.67513   1.68147   1.69247
 Alpha virt. eigenvalues --    1.69417   1.69992   1.70469   1.71006   1.71580
 Alpha virt. eigenvalues --    1.71862   1.72250   1.73189   1.73324   1.73525
 Alpha virt. eigenvalues --    1.74666   1.74979   1.75386   1.75889   1.76522
 Alpha virt. eigenvalues --    1.77618   1.78328   1.78512   1.78976   1.79226
 Alpha virt. eigenvalues --    1.79935   1.80096   1.80689   1.80820   1.82337
 Alpha virt. eigenvalues --    1.82392   1.83841   1.83911   1.84961   1.85304
 Alpha virt. eigenvalues --    1.85838   1.86146   1.87237   1.87311   1.88032
 Alpha virt. eigenvalues --    1.88172   1.88576   1.89547   1.90520   1.91449
 Alpha virt. eigenvalues --    1.91844   1.92414   1.92837   1.94459   1.94863
 Alpha virt. eigenvalues --    1.95643   1.96171   1.96664   1.96922   1.97324
 Alpha virt. eigenvalues --    1.98196   1.98884   2.01172   2.01424   2.02225
 Alpha virt. eigenvalues --    2.03492   2.04601   2.04888   2.05278   2.05649
 Alpha virt. eigenvalues --    2.06739   2.07162   2.07512   2.07769   2.09563
 Alpha virt. eigenvalues --    2.10069   2.11117   2.12117   2.13484   2.13519
 Alpha virt. eigenvalues --    2.14885   2.16126   2.17013   2.17781   2.18272
 Alpha virt. eigenvalues --    2.18967   2.19310   2.20064   2.20946   2.21866
 Alpha virt. eigenvalues --    2.23210   2.24197   2.24367   2.24607   2.25803
 Alpha virt. eigenvalues --    2.26539   2.26900   2.27573   2.28295   2.28920
 Alpha virt. eigenvalues --    2.29369   2.30431   2.31033   2.31668   2.32718
 Alpha virt. eigenvalues --    2.34449   2.35596   2.36509   2.37383   2.37944
 Alpha virt. eigenvalues --    2.38197   2.39747   2.41381   2.41927   2.42511
 Alpha virt. eigenvalues --    2.42748   2.45244   2.45649   2.47828   2.48387
 Alpha virt. eigenvalues --    2.49372   2.49440   2.50160   2.50716   2.51947
 Alpha virt. eigenvalues --    2.52357   2.52600   2.52994   2.53590   2.54899
 Alpha virt. eigenvalues --    2.55574   2.55992   2.57902   2.59491   2.59835
 Alpha virt. eigenvalues --    2.60347   2.60837   2.61355   2.62054   2.62924
 Alpha virt. eigenvalues --    2.64016   2.64804   2.65333   2.65499   2.66353
 Alpha virt. eigenvalues --    2.68185   2.68333   2.69345   2.73798   2.75091
 Alpha virt. eigenvalues --    2.76304   2.79560   2.80161   2.82878   2.85464
 Alpha virt. eigenvalues --    2.87471   2.88087   2.89465   2.90055   2.91113
 Alpha virt. eigenvalues --    2.91864   2.93659   2.93734   2.95875   2.96323
 Alpha virt. eigenvalues --    2.97197   2.98720   2.99752   3.03455   3.05761
 Alpha virt. eigenvalues --    3.10315   3.30509   3.70819   3.72531   3.73915
 Alpha virt. eigenvalues --    3.74557   3.83092   3.87706   3.92507   3.95256
 Alpha virt. eigenvalues --    3.96696   3.98620   4.01878   4.03093   4.04634
 Alpha virt. eigenvalues --    4.06927   4.08682   4.09691   4.10273   4.12202
 Alpha virt. eigenvalues --    4.13185   4.16347   4.20804   4.22060   4.23774
 Alpha virt. eigenvalues --    4.26903   4.28516   4.31230   4.31721   4.36396
 Alpha virt. eigenvalues --    4.36998   4.38867   4.40662   4.43703   4.48170
 Alpha virt. eigenvalues --    4.49619   4.55073   4.58167   4.61094   4.63503
 Alpha virt. eigenvalues --    4.72832
          Condensed to atoms (all electrons):
 Mulliken charges:
               1
     1  N   -0.815393
     2  C   -0.117646
     3  C    0.651065
     4  O   -0.504222
     5  C   -0.407442
     6  C    0.636402
     7  N   -0.736425
     8  O   -0.535078
     9  H    0.427796
    10  H    0.232541
    11  H    0.188057
    12  H    0.224600
    13  H    0.372457
    14  H    0.362083
    15  H    0.450592
    16  H    0.408923
    17  N   -0.624870
    18  C   -0.088153
    19  C    0.616654
    20  O   -0.528032
    21  C   -0.360078
    22  C    0.173703
    23  C   -0.176385
    24  C   -0.210688
    25  C   -0.141895
    26  C   -0.133245
    27  C   -0.160483
    28  H    0.339487
    29  H    0.219086
    30  H    0.158322
    31  H    0.196363
    32  H    0.158669
    33  H    0.130851
    34  H    0.160400
    35  H    0.149126
    36  H    0.149220
    37  N   -0.661537
    38  C   -0.070744
    39  C    0.676773
    40  O   -0.599186
    41  C   -0.362410
    42  C    0.608157
    43  N   -0.725463
    44  O   -0.520580
    45  H    0.397873
    46  H    0.206682
    47  H    0.167312
    48  H    0.215875
    49  H    0.363163
    50  H    0.350734
    51  N   -0.611306
    52  C   -0.075635
    53  C    0.607949
    54  O   -0.419037
    55  C   -0.272702
    56  C   -0.300777
    57  C   -0.155352
    58  N   -0.658436
    59  C    0.627822
    60  N   -0.696382
    61  N   -0.742471
    62  O   -0.621987
    63  H    0.430847
    64  H    0.406829
    65  H    0.177691
    66  H    0.159333
    67  H    0.206540
    68  H    0.164333
    69  H    0.168293
    70  H    0.161946
    71  H    0.223440
    72  H    0.323709
    73  H    0.296670
    74  H    0.364042
    75  H    0.321631
 Sum of Mulliken charges =   1.00000
 Mulliken charges with hydrogens summed into heavy atoms:
               1
     1  N    0.471918
     2  C    0.114895
     3  C    0.651065
     4  O   -0.504222
     5  C    0.005215
     6  C    0.636402
     7  N   -0.001886
     8  O   -0.535078
    17  N   -0.285382
    18  C    0.130933
    19  C    0.616654
    20  O   -0.528032
    21  C   -0.005393
    22  C    0.173703
    23  C   -0.017716
    24  C   -0.079837
    25  C    0.018505
    26  C    0.015881
    27  C   -0.011263
    37  N   -0.263664
    38  C    0.135938
    39  C    0.676773
    40  O   -0.599186
    41  C    0.020777
    42  C    0.608157
    43  N   -0.011566
    44  O   -0.520580
    51  N   -0.204477
    52  C    0.102056
    53  C    0.607949
    54  O   -0.419037
    55  C    0.093170
    56  C    0.031849
    57  C    0.230034
    58  N   -0.334727
    59  C    0.627822
    60  N   -0.399711
    61  N   -0.056798
    62  O   -0.191140
 Electronic spatial extent (au):  <R**2>=         138146.6650
 Charge=              1.0000 electrons
 Dipole moment (field-independent basis, Debye):
    X=            -35.5459    Y=            -13.7178    Z=            -38.0559  Tot=             53.8511
 Quadrupole moment (field-independent basis, Debye-Ang):
   XX=             61.8185   YY=           -108.2334   ZZ=             91.0353
   XY=            127.3857   XZ=            275.4612   YZ=            116.3151
 Traceless Quadrupole moment (field-independent basis, Debye-Ang):
   XX=             46.9450   YY=           -123.1069   ZZ=             76.1618
   XY=            127.3857   XZ=            275.4612   YZ=            116.3151
 Octapole moment (field-independent basis, Debye-Ang**2):
  XXX=           2448.4819  YYY=            438.4217  ZZZ=           2484.0423  XYY=            572.7793
  XXY=           -889.3560  XXZ=           -441.1185  XZZ=           -615.7853  YZZ=           -626.4462
  YYZ=            863.8542  XYZ=          -1061.8061
 Hexadecapole moment (field-independent basis, Debye-Ang**3):
 XXXX=         -55333.8615 YYYY=          -9649.6107 ZZZZ=         -61776.7731 XXXY=           2450.6937
 XXXZ=         -19015.3211 YYYX=          -3604.4859 YYYZ=          -2129.3531 ZZZX=         -18231.2401
 ZZZY=           1014.8163 XXYY=          -5305.1685 XXZZ=          -9754.0919 YYZZ=         -10254.1424
 XXYZ=           7689.9969 YYXZ=          -4553.7803 ZZXY=           5646.3386
 N-N= 5.141056968870D+03 E-N=-1.472140790258D+04  KE= 1.899780506857D+03
 Unable to Open any file for archive entry.
 1\1\GINC-AMR-071\SP\RB3LYP\6-31G(d)\C23H36N9O7(1+)\KENGMITH\06-Jun-202
 2\0\\# B3LYP/6-31G* empiricaldispersion=gd3 guess=read geom=check nosy
 mm integral(ultrafinegrid)\\Candidate Structure: Conf:883 Charge calc 
 in gas phase\\1,1\N,0,-9.1491923077,-2.79384643,-9.6222545549\C,0,-9.7
 736959669,-3.209694961,-8.3159215663\C,0,-9.315646695,-2.3817440583,-7
 .1085141501\O,0,-10.1586392754,-1.9634952211,-6.3281295114\C,0,-9.5262
 073803,-4.6977398904,-8.0588416545\C,0,-10.0782310132,-5.5774956788,-9
 .1781407024\N,0,-10.3114032038,-6.8601236944,-8.8405028443\O,0,-10.263
 1090179,-5.1356574238,-10.3182587431\H,0,-9.6096067892,-3.3872297238,-
 10.3426158041\H,0,-10.8408746289,-3.0119903658,-8.4244458682\H,0,-8.45
 29876018,-4.8960388879,-7.94373366\H,0,-9.9698118951,-4.9558396301,-7.
 0926235739\H,0,-10.6580045886,-7.4982616825,-9.545436236\H,0,-10.18014
 1057,-7.196960223,-7.8965548629\H,0,-9.2561434058,-1.7581408712,-9.759
 2583655\H,0,-8.1370327145,-2.9878926033,-9.6597655884\N,0,-7.974531115
 8,-2.2199486593,-6.9288912821\C,0,-7.4464437658,-1.7896557911,-5.63191
 70751\C,0,-6.4823305228,-0.5848286505,-5.7428063917\O,0,-5.3745796312,
 -0.6483466588,-5.2137844669\C,0,-6.7588524942,-2.9694314919,-4.9080344
 244\C,0,-7.5619982646,-4.2539176577,-4.958835293\C,0,-8.8536700744,-4.
 3327632713,-4.4150932705\C,0,-7.0236339763,-5.4003600007,-5.5592448513
 \C,0,-9.5800178514,-5.5235945531,-4.4653356594\C,0,-7.7441039219,-6.59
 78619682,-5.6095417879\C,0,-9.0273033495,-6.6628845443,-5.061825336\H,
 0,-7.3137251959,-2.6203880874,-7.5837300132\H,0,-8.323337827,-1.464931
 4162,-5.0643992942\H,0,-5.770556728,-3.1240207388,-5.3528372384\H,0,-6
 .5699053603,-2.6637440184,-3.8735413336\H,0,-9.2993629345,-3.456738879
 ,-3.9525552701\H,0,-6.0166406225,-5.3637029954,-5.969947705\H,0,-10.57
 27651563,-5.5656852566,-4.0260850995\H,0,-7.2940333082,-7.4803815836,-
 6.0566213101\H,0,-9.5811920522,-7.5985327563,-5.0688679603\N,0,-6.9009
 607952,0.5442208068,-6.3893480971\C,0,-8.0963335696,0.7124409745,-7.20
 11721477\C,0,-7.9585731498,0.1260016643,-8.6208207714\O,0,-8.984003831
 2,-0.1272686326,-9.2763208274\C,0,-8.527861217,2.1927066903,-7.2564605
 886\C,0,-7.4904701566,3.0614360592,-7.9647276594\N,0,-7.0465321114,4.1
 480230144,-7.2919743225\O,0,-7.1104477417,2.7695200342,-9.0971392273\H
 ,0,-6.1451909724,1.2402127409,-6.5023577418\H,0,-8.9292981332,0.169711
 7522,-6.7487877829\H,0,-8.7451394089,2.5306839039,-6.2384578532\H,0,-9
 .4531331232,2.2471566807,-7.8391201151\H,0,-6.2669831062,4.6585811854,
 -7.686084782\H,0,-7.2542039732,4.294003572,-6.3153233276\N,0,-6.712107
 626,-0.1715509837,-9.0375029226\C,0,-6.4081809865,-0.5623060059,-10.40
 61349437\C,0,-5.5541994327,-1.8248400989,-10.3544042728\O,0,-4.4571640
 097,-2.0034462544,-10.8102179462\C,0,-5.8319910018,0.5747797183,-11.27
 44223264\C,0,-4.3993064149,1.0864820302,-11.0319826508\C,0,-4.08929900
 3,1.6787487153,-9.6549113213\N,0,-3.9074706889,0.6090213557,-8.6487397
 202\C,0,-3.7225935783,0.9649854928,-7.3081966808\N,0,-4.3747418368,1.9
 737313309,-6.826496336\N,0,-2.863165007,0.1555319634,-6.5904303483\O,0
 ,-6.2083754605,-2.8540453271,-9.6779304866\H,0,-5.6102627919,-3.625657
 9034,-9.7270879914\H,0,-5.9064693795,0.1708618624,-8.5151359351\H,0,-7
 .3649741057,-0.8488925669,-10.8570161127\H,0,-5.8928686311,0.236914764
 2,-12.3162004731\H,0,-6.5357073237,1.4052475706,-11.1591609839\H,0,-3.
 6742357885,0.3018021339,-11.2758948012\H,0,-4.2361070461,1.8847324479,
 -11.7656160265\H,0,-3.1760565127,2.2865648388,-9.7129167176\H,0,-4.899
 7443277,2.3256070037,-9.319848614\H,0,-3.2538933798,-0.0971379612,-8.9
 741788689\H,0,-4.1106886608,2.1161516984,-5.8507228434\H,0,-3.17773999
 25,-0.0185981785,-5.6420052618\H,0,-2.5331608408,-0.6903360489,-7.0390
 570721\\Version=ES64L-G16RevC.01\HF=-1917.4894813\RMSD=1.581e-09\Dipol
 e=-0.3268765,-2.5444794,-0.2761613\Quadrupole=34.9024856,-91.5269325,5
 6.6244468,94.7081111,204.7986149,86.4774228\PG=C01 [X(C23H36N9O7)]\\@
 The archive entry for this job was punched.


 The earth never tires,
 The earth is rude, silent, incomprehensible at first,
 Nature is rude and incomprehensible at first,
 Be not discouraged, keep on,
 There are divine things well envelop'd,
 I swear to you there are divine things more beautiful than words can tell.
                                 -- Walt Whitman
 Job cpu time:       0 days  0 hours  1 minutes 55.0 seconds.
 Elapsed time:       0 days  0 hours  0 minutes 30.1 seconds.
 File lengths (MBytes):  RWF=    344 Int=      0 D2E=      0 Chk=     48 Scr=     16
 Normal termination of Gaussian 16 at Mon Jun  6 02:47:24 2022.
