 Entering Gaussian System, Link 0=/opt/software/Gaussian/g16-AVX2-C.01/g16/g16
 Input=charge-conf-771.com
 Output=charge-conf-771.log
 Initial command:
 /opt/software/Gaussian/g16-AVX2-C.01/g16/l1.exe "/mnt/gs18/scratch/users/kengmith/Gau-139476.inp" -scrdir="/mnt/gs18/scratch/users/kengmith/"
 Entering Link 1 = /opt/software/Gaussian/g16-AVX2-C.01/g16/l1.exe PID=    139534.
  
 Copyright (c) 1988-2019, Gaussian, Inc.  All Rights Reserved.
  
 This is part of the Gaussian(R) 16 program.  It is based on
 the Gaussian(R) 09 system (copyright 2009, Gaussian, Inc.),
 the Gaussian(R) 03 system (copyright 2003, Gaussian, Inc.),
 the Gaussian(R) 98 system (copyright 1998, Gaussian, Inc.),
 the Gaussian(R) 94 system (copyright 1995, Gaussian, Inc.),
 the Gaussian 92(TM) system (copyright 1992, Gaussian, Inc.),
 the Gaussian 90(TM) system (copyright 1990, Gaussian, Inc.),
 the Gaussian 88(TM) system (copyright 1988, Gaussian, Inc.),
 the Gaussian 86(TM) system (copyright 1986, Carnegie Mellon
 University), and the Gaussian 82(TM) system (copyright 1983,
 Carnegie Mellon University). Gaussian is a federally registered
 trademark of Gaussian, Inc.
  
 This software contains proprietary and confidential information,
 including trade secrets, belonging to Gaussian, Inc.
  
 This software is provided under written license and may be
 used, copied, transmitted, or stored only in accord with that
 written license.
  
 The following legend is applicable only to US Government
 contracts under FAR:
  
                    RESTRICTED RIGHTS LEGEND
  
 Use, reproduction and disclosure by the US Government is
 subject to restrictions as set forth in subparagraphs (a)
 and (c) of the Commercial Computer Software - Restricted
 Rights clause in FAR 52.227-19.
  
 Gaussian, Inc.
 340 Quinnipiac St., Bldg. 40, Wallingford CT 06492
  
  
 ---------------------------------------------------------------
 Warning -- This program may not be used in any manner that
 competes with the business of Gaussian, Inc. or will provide
 assistance to any competitor of Gaussian, Inc.  The licensee
 of this program is prohibited from giving any competitor of
 Gaussian, Inc. access to this program.  By using this program,
 the user acknowledges that Gaussian, Inc. is engaged in the
 business of creating and licensing software in the field of
 computational chemistry and represents and warrants to the
 licensee that it is not a competitor of Gaussian, Inc. and that
 it will not use this program in any manner prohibited above.
 ---------------------------------------------------------------
  

 Cite this work as:
 Gaussian 16, Revision C.01,
 M. J. Frisch, G. W. Trucks, H. B. Schlegel, G. E. Scuseria, 
 M. A. Robb, J. R. Cheeseman, G. Scalmani, V. Barone, 
 G. A. Petersson, H. Nakatsuji, X. Li, M. Caricato, A. V. Marenich, 
 J. Bloino, B. G. Janesko, R. Gomperts, B. Mennucci, H. P. Hratchian, 
 J. V. Ortiz, A. F. Izmaylov, J. L. Sonnenberg, D. Williams-Young, 
 F. Ding, F. Lipparini, F. Egidi, J. Goings, B. Peng, A. Petrone, 
 T. Henderson, D. Ranasinghe, V. G. Zakrzewski, J. Gao, N. Rega, 
 G. Zheng, W. Liang, M. Hada, M. Ehara, K. Toyota, R. Fukuda, 
 J. Hasegawa, M. Ishida, T. Nakajima, Y. Honda, O. Kitao, H. Nakai, 
 T. Vreven, K. Throssell, J. A. Montgomery, Jr., J. E. Peralta, 
 F. Ogliaro, M. J. Bearpark, J. J. Heyd, E. N. Brothers, K. N. Kudin, 
 V. N. Staroverov, T. A. Keith, R. Kobayashi, J. Normand, 
 K. Raghavachari, A. P. Rendell, J. C. Burant, S. S. Iyengar, 
 J. Tomasi, M. Cossi, J. M. Millam, M. Klene, C. Adamo, R. Cammi, 
 J. W. Ochterski, R. L. Martin, K. Morokuma, O. Farkas, 
 J. B. Foresman, and D. J. Fox, Gaussian, Inc., Wallingford CT, 2019.
 
 ******************************************
 Gaussian 16:  ES64L-G16RevC.01  3-Jul-2019
                 6-Jun-2022 
 ******************************************
 %mem=8gb
 %nproc=4
 Will use up to    4 processors via shared memory.
 %chk=conf-771.chk
 ----------------------------------------------------------------------
 # B3LYP/6-31G* empiricaldispersion=gd3 guess=read geom=check nosymm in
 tegral(ultrafinegrid)
 ----------------------------------------------------------------------
 1/29=2,38=1,172=1/1;
 2/12=2,15=1,40=1/2;
 3/5=1,6=6,7=1,11=2,14=-4,25=1,30=1,74=-5,75=-5,116=-2,124=31/1,2,3;
 4/5=1/1;
 5/5=2,38=6/2;
 6/7=2,8=2,9=2,10=2,28=1/1;
 99/5=1,9=1/99;
 ------------------------------------------------------
 Candidate Structure: Conf:771 Charge calc in gas phase
 ------------------------------------------------------
 Structure from the checkpoint file:  "conf-771.chk"
 Charge =  1 Multiplicity = 1
 Redundant internal coordinates found in file.  (old form).
 N,0,-7.5228397161,-3.8560256033,-9.8640671108
 C,0,-7.8973974092,-4.6348117057,-8.6291822215
 C,0,-8.3602155624,-3.7823367554,-7.4390803778
 O,0,-9.2777666386,-4.2047804464,-6.7491665617
 C,0,-6.7101316966,-5.5052931128,-8.2059264159
 C,0,-6.2692271183,-6.4555646209,-9.3184174224
 N,0,-5.4349031212,-7.441545682,-8.9365459812
 O,0,-6.6396582736,-6.3038285112,-10.4882511886
 H,0,-8.2303801772,-3.1403766783,-10.1208004929
 H,0,-8.7479226972,-5.2568873631,-8.9111213658
 H,0,-5.861825829,-4.8731879459,-7.9146812747
 H,0,-6.9935559365,-6.0596015141,-7.3060720769
 H,0,-5.0762730762,-8.0782592648,-9.6364322981
 H,0,-5.1214069122,-7.5386776936,-7.9809657119
 H,0,-6.6419705263,-3.328186853,-9.7364306968
 H,0,-7.3561000705,-4.5781781932,-10.5936028947
 N,0,-7.6769975344,-2.6366542244,-7.172860109
 C,0,-7.7451125874,-2.0357832169,-5.8431927988
 C,0,-8.4809180433,-0.6886430016,-5.7110834929
 O,0,-8.2636743849,-0.0170321117,-4.6984864842
 C,0,-6.3087441994,-1.9088496639,-5.2748351407
 C,0,-5.5312142747,-3.2014226613,-5.4069798027
 C,0,-5.920873793,-4.3477241214,-4.6988598837
 C,0,-4.4276472387,-3.2882605797,-6.2664267381
 C,0,-5.2205781154,-5.5468318291,-4.8390884902
 C,0,-3.7173071339,-4.4849650344,-6.4044546503
 C,0,-4.1131963022,-5.6188164102,-5.6908213132
 H,0,-6.8818061747,-2.3677362611,-7.7477860825
 H,0,-8.3207039531,-2.7339077775,-5.225816143
 H,0,-5.7891713605,-1.1037613339,-5.809367174
 H,0,-6.3901894469,-1.5919973438,-4.2322520351
 H,0,-6.7736238766,-4.3007881714,-4.0257826975
 H,0,-4.117325413,-2.4120633195,-6.8307918405
 H,0,-5.5279300148,-6.4189520329,-4.2685231986
 H,0,-2.85264937,-4.526100484,-7.0612198332
 H,0,-3.5469544442,-6.5432179608,-5.7749034479
 N,0,-9.3663103079,-0.2483906891,-6.6471628311
 C,0,-9.7354033196,-0.7940809046,-7.9436573002
 C,0,-8.6264291721,-0.6900622087,-8.9999287798
 O,0,-8.7074892282,-1.3533347199,-10.0519862416
 C,0,-10.9965464745,-0.0721232711,-8.4884142669
 C,0,-10.7731948345,1.4331307067,-8.5921827819
 N,0,-10.5861197519,1.9363175027,-9.8344172996
 O,0,-10.7084794724,2.1227012677,-7.5742371832
 H,0,-9.7662783494,0.6664050278,-6.4387265822
 H,0,-9.9947170858,-1.8499540203,-7.8542632341
 H,0,-11.8212175706,-0.2395112679,-7.7902409807
 H,0,-11.2505637514,-0.5308815171,-9.4476560215
 H,0,-10.4077590767,2.9274921208,-9.9304384805
 H,0,-10.7134313202,1.384373629,-10.6694852889
 N,0,-7.6170260876,0.1637529275,-8.7704586076
 C,0,-6.6060550196,0.3841283929,-9.7821765553
 C,0,-5.8243683909,-0.9030571585,-10.0458461048
 O,0,-5.7191854119,-1.8252572827,-9.2468899641
 C,0,-5.6466160166,1.531329337,-9.3906775549
 C,0,-4.8373151543,1.2892720695,-8.0926522181
 C,0,-5.3167169789,2.1365772112,-6.9058547704
 N,0,-6.6915279662,1.8228557939,-6.4739267331
 C,0,-7.7035116778,2.7903707477,-6.6615412247
 N,0,-7.6970620977,3.4760611258,-7.7508377681
 N,0,-8.6124023251,2.8631854442,-5.6262003688
 O,0,-5.1928137309,-0.9972447268,-11.2166302793
 H,0,-5.3514152279,-0.21306927,-11.771897124
 H,0,-7.5268472126,0.6886920184,-7.8914518607
 H,0,-7.1121702124,0.6476637485,-10.7210017098
 H,0,-4.9691610772,1.6941631584,-10.2372512036
 H,0,-6.2618674447,2.4324039796,-9.2808688126
 H,0,-4.8564790245,0.2276170238,-7.8119277031
 H,0,-3.7839638394,1.5350918618,-8.2706883891
 H,0,-4.6443598889,1.9716511353,-6.0562454872
 H,0,-5.2694755812,3.1965323695,-7.1704980679
 H,0,-6.7329888105,1.3857333266,-5.5603002062
 H,0,-8.4679709414,4.1434970389,-7.7559669228
 H,0,-9.5386328804,3.1677714571,-5.8991179459
 H,0,-8.620471334,2.0983060675,-4.9566387577
 Recover connectivity data from disk.
                           ----------------------------
                           !    Current Parameters    !
                           ! (Angstroms and Degrees)  !
 --------------------------                            --------------------------
 ! Name  Definition              Value                                          !
 --------------------------------------------------------------------------------
 ! R1    R(1,2)                  1.5072                                         !
 ! R2    R(1,9)                  1.0386                                         !
 ! R3    R(1,15)                 1.0348                                         !
 ! R4    R(1,16)                 1.04                                           !
 ! R5    R(2,3)                  1.5353                                         !
 ! R6    R(2,5)                  1.5318                                         !
 ! R7    R(2,10)                 1.0908                                         !
 ! R8    R(3,4)                  1.2232                                         !
 ! R9    R(3,17)                 1.3602                                         !
 ! R10   R(5,6)                  1.5281                                         !
 ! R11   R(5,11)                 1.0973                                         !
 ! R12   R(5,12)                 1.0942                                         !
 ! R13   R(6,7)                  1.3469                                         !
 ! R14   R(6,8)                  1.2364                                         !
 ! R15   R(7,13)                 1.0119                                         !
 ! R16   R(7,14)                 1.0104                                         !
 ! R17   R(17,18)                1.4607                                         !
 ! R18   R(17,28)                1.0174                                         !
 ! R19   R(18,19)                1.5407                                         !
 ! R20   R(18,21)                1.5499                                         !
 ! R21   R(18,29)                1.0954                                         !
 ! R22   R(19,20)                1.2343                                         !
 ! R23   R(19,37)                1.3616                                         !
 ! R24   R(21,22)                1.5142                                         !
 ! R25   R(21,30)                1.0972                                         !
 ! R26   R(21,31)                1.0927                                         !
 ! R27   R(22,23)                1.4026                                         !
 ! R28   R(22,24)                1.4014                                         !
 ! R29   R(23,25)                1.3957                                         !
 ! R30   R(23,32)                1.0874                                         !
 ! R31   R(24,26)                1.3985                                         !
 ! R32   R(24,33)                1.0874                                         !
 ! R33   R(25,27)                1.3989                                         !
 ! R34   R(25,34)                1.0866                                         !
 ! R35   R(26,27)                1.397                                          !
 ! R36   R(26,35)                1.0866                                         !
 ! R37   R(27,36)                1.0873                                         !
 ! R38   R(37,38)                1.4543                                         !
 ! R39   R(37,45)                1.0199                                         !
 ! R40   R(38,39)                1.535                                          !
 ! R41   R(38,41)                1.5519                                         !
 ! R42   R(38,46)                1.0909                                         !
 ! R43   R(39,40)                1.2463                                         !
 ! R44   R(39,51)                1.3418                                         !
 ! R45   R(41,42)                1.5253                                         !
 ! R46   R(41,47)                1.0934                                         !
 ! R47   R(41,48)                1.0932                                         !
 ! R48   R(42,43)                1.3533                                         !
 ! R49   R(42,44)                1.2312                                         !
 ! R50   R(43,49)                1.0117                                         !
 ! R51   R(43,50)                1.0091                                         !
 ! R52   R(51,52)                1.4471                                         !
 ! R53   R(51,64)                1.0278                                         !
 ! R54   R(52,53)                1.5289                                         !
 ! R55   R(52,55)                1.5459                                         !
 ! R56   R(52,65)                1.0986                                         !
 ! R57   R(53,54)                1.2247                                         !
 ! R58   R(53,62)                1.3336                                         !
 ! R59   R(55,56)                1.5487                                         !
 ! R60   R(55,66)                1.0964                                         !
 ! R61   R(55,67)                1.0966                                         !
 ! R62   R(56,57)                1.535                                          !
 ! R63   R(56,68)                1.0983                                         !
 ! R64   R(56,69)                1.0962                                         !
 ! R65   R(57,58)                1.4748                                         !
 ! R66   R(57,70)                1.0959                                         !
 ! R67   R(57,71)                1.0935                                         !
 ! R68   R(58,59)                1.4126                                         !
 ! R69   R(58,72)                1.0137                                         !
 ! R70   R(59,60)                1.2872                                         !
 ! R71   R(59,61)                1.3796                                         !
 ! R72   R(60,73)                1.0197                                         !
 ! R73   R(61,74)                1.0125                                         !
 ! R74   R(61,75)                1.0166                                         !
 ! R75   R(62,63)                0.9739                                         !
 ! A1    A(2,1,9)              112.9089                                         !
 ! A2    A(2,1,15)             111.9651                                         !
 ! A3    A(2,1,16)             104.8205                                         !
 ! A4    A(9,1,15)             105.0059                                         !
 ! A5    A(9,1,16)             114.4752                                         !
 ! A6    A(15,1,16)            107.7128                                         !
 ! A7    A(1,2,3)              115.0304                                         !
 ! A8    A(1,2,5)              109.1107                                         !
 ! A9    A(1,2,10)             106.0616                                         !
 ! A10   A(3,2,5)              109.5715                                         !
 ! A11   A(3,2,10)             106.3768                                         !
 ! A12   A(5,2,10)             110.59                                           !
 ! A13   A(2,3,4)              118.1345                                         !
 ! A14   A(2,3,17)             117.9017                                         !
 ! A15   A(4,3,17)             123.8654                                         !
 ! A16   A(2,5,6)              112.0774                                         !
 ! A17   A(2,5,11)             110.1932                                         !
 ! A18   A(2,5,12)             108.321                                          !
 ! A19   A(6,5,11)             109.1724                                         !
 ! A20   A(6,5,12)             111.0031                                         !
 ! A21   A(11,5,12)            105.8902                                         !
 ! A22   A(5,6,7)              115.3127                                         !
 ! A23   A(5,6,8)              121.7394                                         !
 ! A24   A(7,6,8)              122.9343                                         !
 ! A25   A(6,7,13)             118.9525                                         !
 ! A26   A(6,7,14)             122.0545                                         !
 ! A27   A(13,7,14)            118.928                                          !
 ! A28   A(3,17,18)            120.0797                                         !
 ! A29   A(3,17,28)            120.3038                                         !
 ! A30   A(18,17,28)           116.2376                                         !
 ! A31   A(17,18,19)           117.3876                                         !
 ! A32   A(17,18,21)           108.9215                                         !
 ! A33   A(17,18,29)           105.9851                                         !
 ! A34   A(19,18,21)           109.849                                          !
 ! A35   A(19,18,29)           104.9509                                         !
 ! A36   A(21,18,29)           109.42                                           !
 ! A37   A(18,19,20)           117.5192                                         !
 ! A38   A(18,19,37)           122.2979                                         !
 ! A39   A(20,19,37)           120.165                                          !
 ! A40   A(18,21,22)           111.9601                                         !
 ! A41   A(18,21,30)           108.6806                                         !
 ! A42   A(18,21,31)           107.7311                                         !
 ! A43   A(22,21,30)           109.9191                                         !
 ! A44   A(22,21,31)           111.6584                                         !
 ! A45   A(30,21,31)           106.6998                                         !
 ! A46   A(21,22,23)           120.7265                                         !
 ! A47   A(21,22,24)           120.7149                                         !
 ! A48   A(23,22,24)           118.5375                                         !
 ! A49   A(22,23,25)           120.7999                                         !
 ! A50   A(22,23,32)           119.6758                                         !
 ! A51   A(25,23,32)           119.5223                                         !
 ! A52   A(22,24,26)           120.899                                          !
 ! A53   A(22,24,33)           119.5418                                         !
 ! A54   A(26,24,33)           119.5588                                         !
 ! A55   A(23,25,27)           120.1708                                         !
 ! A56   A(23,25,34)           119.6635                                         !
 ! A57   A(27,25,34)           120.1548                                         !
 ! A58   A(24,26,27)           120.0112                                         !
 ! A59   A(24,26,35)           119.7521                                         !
 ! A60   A(27,26,35)           120.2346                                         !
 ! A61   A(25,27,26)           119.5767                                         !
 ! A62   A(25,27,36)           120.2043                                         !
 ! A63   A(26,27,36)           120.1954                                         !
 ! A64   A(19,37,38)           131.0412                                         !
 ! A65   A(19,37,45)           113.86                                           !
 ! A66   A(38,37,45)           114.785                                          !
 ! A67   A(37,38,39)           113.8705                                         !
 ! A68   A(37,38,41)           110.1589                                         !
 ! A69   A(37,38,46)           110.5151                                         !
 ! A70   A(39,38,41)           108.3013                                         !
 ! A71   A(39,38,46)           107.0794                                         !
 ! A72   A(41,38,46)           106.6101                                         !
 ! A73   A(38,39,40)           119.8546                                         !
 ! A74   A(38,39,51)           117.9628                                         !
 ! A75   A(40,39,51)           122.1344                                         !
 ! A76   A(38,41,42)           111.3449                                         !
 ! A77   A(38,41,47)           108.5148                                         !
 ! A78   A(38,41,48)           107.5541                                         !
 ! A79   A(42,41,47)           107.756                                          !
 ! A80   A(42,41,48)           112.8589                                         !
 ! A81   A(47,41,48)           108.7104                                         !
 ! A82   A(41,42,43)           116.7209                                         !
 ! A83   A(41,42,44)           120.2762                                         !
 ! A84   A(43,42,44)           122.9169                                         !
 ! A85   A(42,43,49)           118.4114                                         !
 ! A86   A(42,43,50)           122.6049                                         !
 ! A87   A(49,43,50)           118.6599                                         !
 ! A88   A(39,51,52)           120.1897                                         !
 ! A89   A(39,51,64)           122.4964                                         !
 ! A90   A(52,51,64)           117.3123                                         !
 ! A91   A(51,52,53)           110.4596                                         !
 ! A92   A(51,52,55)           111.6866                                         !
 ! A93   A(51,52,65)           108.1872                                         !
 ! A94   A(53,52,55)           110.5568                                         !
 ! A95   A(53,52,65)           106.8652                                         !
 ! A96   A(55,52,65)           108.9238                                         !
 ! A97   A(52,53,54)           124.4289                                         !
 ! A98   A(52,53,62)           116.9365                                         !
 ! A99   A(54,53,62)           118.6122                                         !
 ! A100  A(52,55,56)           114.8721                                         !
 ! A101  A(52,55,66)           107.3461                                         !
 ! A102  A(52,55,67)           106.6739                                         !
 ! A103  A(56,55,66)           110.3332                                         !
 ! A104  A(56,55,67)           109.7364                                         !
 ! A105  A(66,55,67)           107.5745                                         !
 ! A106  A(55,56,57)           113.4867                                         !
 ! A107  A(55,56,68)           110.8665                                         !
 ! A108  A(55,56,69)           109.3276                                         !
 ! A109  A(57,56,68)           109.2992                                         !
 ! A110  A(57,56,69)           107.5712                                         !
 ! A111  A(68,56,69)           105.9644                                         !
 ! A112  A(56,57,58)           113.5875                                         !
 ! A113  A(56,57,70)           108.9476                                         !
 ! A114  A(56,57,71)           109.5387                                         !
 ! A115  A(58,57,70)           108.2306                                         !
 ! A116  A(58,57,71)           108.5022                                         !
 ! A117  A(70,57,71)           107.8773                                         !
 ! A118  A(57,58,59)           118.8967                                         !
 ! A119  A(57,58,72)           113.1928                                         !
 ! A120  A(59,58,72)           112.6914                                         !
 ! A121  A(58,59,60)           118.2735                                         !
 ! A122  A(58,59,61)           114.1073                                         !
 ! A123  A(60,59,61)           127.6101                                         !
 ! A124  A(59,60,73)           110.4354                                         !
 ! A125  A(59,61,74)           114.5988                                         !
 ! A126  A(59,61,75)           117.3746                                         !
 ! A127  A(74,61,75)           113.367                                          !
 ! A128  A(53,62,63)           111.504                                          !
 ! D1    D(9,1,2,3)            -47.7623                                         !
 ! D2    D(9,1,2,5)           -171.3397                                         !
 ! D3    D(9,1,2,10)            69.5124                                         !
 ! D4    D(15,1,2,3)            70.5015                                         !
 ! D5    D(15,1,2,5)           -53.0759                                         !
 ! D6    D(15,1,2,10)         -172.2238                                         !
 ! D7    D(16,1,2,3)          -173.0071                                         !
 ! D8    D(16,1,2,5)            63.4156                                         !
 ! D9    D(16,1,2,10)          -55.7324                                         !
 ! D10   D(1,2,3,4)            141.7428                                         !
 ! D11   D(1,2,3,17)           -41.723                                          !
 ! D12   D(5,2,3,4)            -94.9246                                         !
 ! D13   D(5,2,3,17)            81.6096                                         !
 ! D14   D(10,2,3,4)            24.6466                                         !
 ! D15   D(10,2,3,17)         -158.8192                                         !
 ! D16   D(1,2,5,6)            -57.5424                                         !
 ! D17   D(1,2,5,11)            64.2461                                         !
 ! D18   D(1,2,5,12)           179.6558                                         !
 ! D19   D(3,2,5,6)            175.7008                                         !
 ! D20   D(3,2,5,11)           -62.5107                                         !
 ! D21   D(3,2,5,12)            52.899                                          !
 ! D22   D(10,2,5,6)            58.7502                                         !
 ! D23   D(10,2,5,11)         -179.4613                                         !
 ! D24   D(10,2,5,12)          -64.0516                                         !
 ! D25   D(2,3,17,18)         -158.9099                                         !
 ! D26   D(2,3,17,28)           -0.4336                                         !
 ! D27   D(4,3,17,18)           17.4091                                         !
 ! D28   D(4,3,17,28)          175.8854                                         !
 ! D29   D(2,5,6,7)           -166.2655                                         !
 ! D30   D(2,5,6,8)             15.0399                                         !
 ! D31   D(11,5,6,7)            71.3635                                         !
 ! D32   D(11,5,6,8)          -107.3312                                         !
 ! D33   D(12,5,6,7)           -44.9954                                         !
 ! D34   D(12,5,6,8)           136.31                                           !
 ! D35   D(5,6,7,13)          -177.3567                                         !
 ! D36   D(5,6,7,14)            -0.3208                                         !
 ! D37   D(8,6,7,13)             1.3205                                         !
 ! D38   D(8,6,7,14)           178.3564                                         !
 ! D39   D(3,17,18,19)        -111.5972                                         !
 ! D40   D(3,17,18,21)         122.8225                                         !
 ! D41   D(3,17,18,29)           5.1886                                         !
 ! D42   D(28,17,18,19)         89.0822                                         !
 ! D43   D(28,17,18,21)        -36.4981                                         !
 ! D44   D(28,17,18,29)       -154.1319                                         !
 ! D45   D(17,18,19,20)       -162.2146                                         !
 ! D46   D(17,18,19,37)         19.3211                                         !
 ! D47   D(21,18,19,20)        -37.0944                                         !
 ! D48   D(21,18,19,37)        144.4413                                         !
 ! D49   D(29,18,19,20)         80.4395                                         !
 ! D50   D(29,18,19,37)        -98.0248                                         !
 ! D51   D(17,18,21,22)        -48.981                                          !
 ! D52   D(17,18,21,30)         72.6269                                         !
 ! D53   D(17,18,21,31)       -172.123                                          !
 ! D54   D(19,18,21,22)       -178.8284                                         !
 ! D55   D(19,18,21,30)        -57.2205                                         !
 ! D56   D(19,18,21,31)         58.0296                                         !
 ! D57   D(29,18,21,22)         66.4569                                         !
 ! D58   D(29,18,21,30)       -171.9351                                         !
 ! D59   D(29,18,21,31)        -56.6851                                         !
 ! D60   D(18,19,37,38)         -5.8966                                         !
 ! D61   D(18,19,37,45)       -179.0174                                         !
 ! D62   D(20,19,37,38)        175.6787                                         !
 ! D63   D(20,19,37,45)          2.5578                                         !
 ! D64   D(18,21,22,23)        -65.5225                                         !
 ! D65   D(18,21,22,24)        112.785                                          !
 ! D66   D(30,21,22,23)        173.5843                                         !
 ! D67   D(30,21,22,24)         -8.1082                                         !
 ! D68   D(31,21,22,23)         55.3707                                         !
 ! D69   D(31,21,22,24)       -126.3217                                         !
 ! D70   D(21,22,23,25)        178.769                                          !
 ! D71   D(21,22,23,32)         -1.7489                                         !
 ! D72   D(24,22,23,25)          0.4253                                         !
 ! D73   D(24,22,23,32)        179.9074                                         !
 ! D74   D(21,22,24,26)       -179.1682                                         !
 ! D75   D(21,22,24,33)          1.0619                                         !
 ! D76   D(23,22,24,26)         -0.8243                                         !
 ! D77   D(23,22,24,33)        179.4058                                         !
 ! D78   D(22,23,25,27)          0.1363                                         !
 ! D79   D(22,23,25,34)        178.9386                                         !
 ! D80   D(32,23,25,27)       -179.3466                                         !
 ! D81   D(32,23,25,34)         -0.5443                                         !
 ! D82   D(22,24,26,27)          0.6618                                         !
 ! D83   D(22,24,26,35)       -178.799                                          !
 ! D84   D(33,24,26,27)       -179.5683                                         !
 ! D85   D(33,24,26,35)          0.9709                                         !
 ! D86   D(23,25,27,26)         -0.3094                                         !
 ! D87   D(23,25,27,36)        177.9275                                         !
 ! D88   D(34,25,27,26)       -179.1058                                         !
 ! D89   D(34,25,27,36)         -0.8689                                         !
 ! D90   D(24,26,27,25)         -0.0851                                         !
 ! D91   D(24,26,27,36)       -178.3222                                         !
 ! D92   D(35,26,27,25)        179.3731                                         !
 ! D93   D(35,26,27,36)          1.136                                          !
 ! D94   D(19,37,38,39)        -69.592                                          !
 ! D95   D(19,37,38,41)        168.5206                                         !
 ! D96   D(19,37,38,46)         50.9721                                         !
 ! D97   D(45,37,38,39)        103.4782                                         !
 ! D98   D(45,37,38,41)        -18.4092                                         !
 ! D99   D(45,37,38,46)       -135.9577                                         !
 ! D100  D(37,38,39,40)        165.3442                                         !
 ! D101  D(37,38,39,51)        -17.126                                          !
 ! D102  D(41,38,39,40)        -71.7473                                         !
 ! D103  D(41,38,39,51)        105.7826                                         !
 ! D104  D(46,38,39,40)         42.8727                                         !
 ! D105  D(46,38,39,51)       -139.5974                                         !
 ! D106  D(37,38,41,42)         57.3078                                         !
 ! D107  D(37,38,41,47)        -61.1273                                         !
 ! D108  D(37,38,41,48)       -178.5629                                         !
 ! D109  D(39,38,41,42)        -67.8245                                         !
 ! D110  D(39,38,41,47)        173.7405                                         !
 ! D111  D(39,38,41,48)         56.3048                                         !
 ! D112  D(46,38,41,42)        177.2476                                         !
 ! D113  D(46,38,41,47)         58.8126                                         !
 ! D114  D(46,38,41,48)        -58.6231                                         !
 ! D115  D(38,39,51,52)       -174.784                                          !
 ! D116  D(38,39,51,64)          4.7358                                         !
 ! D117  D(40,39,51,52)          2.6861                                         !
 ! D118  D(40,39,51,64)       -177.7942                                         !
 ! D119  D(38,41,42,43)        105.2764                                         !
 ! D120  D(38,41,42,44)        -71.4502                                         !
 ! D121  D(47,41,42,43)       -135.8339                                         !
 ! D122  D(47,41,42,44)         47.4395                                         !
 ! D123  D(48,41,42,43)        -15.7987                                         !
 ! D124  D(48,41,42,44)        167.4747                                         !
 ! D125  D(41,42,43,49)       -178.177                                          !
 ! D126  D(41,42,43,50)          8.4498                                         !
 ! D127  D(44,42,43,49)         -1.5447                                         !
 ! D128  D(44,42,43,50)       -174.9179                                         !
 ! D129  D(39,51,52,53)        -63.8931                                         !
 ! D130  D(39,51,52,55)        172.6238                                         !
 ! D131  D(39,51,52,65)         52.7548                                         !
 ! D132  D(64,51,52,53)        116.5627                                         !
 ! D133  D(64,51,52,55)         -6.9204                                         !
 ! D134  D(64,51,52,65)       -126.7893                                         !
 ! D135  D(51,52,53,54)        -23.5583                                         !
 ! D136  D(51,52,53,62)        158.1942                                         !
 ! D137  D(55,52,53,54)        100.5765                                         !
 ! D138  D(55,52,53,62)        -77.671                                          !
 ! D139  D(65,52,53,54)       -141.0237                                         !
 ! D140  D(65,52,53,62)         40.7288                                         !
 ! D141  D(51,52,55,56)         61.6657                                         !
 ! D142  D(51,52,55,66)       -175.2377                                         !
 ! D143  D(51,52,55,67)        -60.1648                                         !
 ! D144  D(53,52,55,56)        -61.7623                                         !
 ! D145  D(53,52,55,66)         61.3343                                         !
 ! D146  D(53,52,55,67)        176.4072                                         !
 ! D147  D(65,52,55,56)       -178.8997                                         !
 ! D148  D(65,52,55,66)        -55.803                                          !
 ! D149  D(65,52,55,67)         59.2698                                         !
 ! D150  D(52,53,62,63)         -2.0357                                         !
 ! D151  D(54,53,62,63)        179.6109                                         !
 ! D152  D(52,55,56,57)       -107.0497                                         !
 ! D153  D(52,55,56,68)         16.4059                                         !
 ! D154  D(52,55,56,69)        132.869                                          !
 ! D155  D(66,55,56,57)        131.4667                                         !
 ! D156  D(66,55,56,68)       -105.0777                                         !
 ! D157  D(66,55,56,69)         11.3855                                         !
 ! D158  D(67,55,56,57)         13.1037                                         !
 ! D159  D(67,55,56,68)        136.5593                                         !
 ! D160  D(67,55,56,69)       -106.9776                                         !
 ! D161  D(55,56,57,58)         64.0428                                         !
 ! D162  D(55,56,57,70)       -175.239                                          !
 ! D163  D(55,56,57,71)        -57.4492                                         !
 ! D164  D(68,56,57,58)        -60.2662                                         !
 ! D165  D(68,56,57,70)         60.452                                          !
 ! D166  D(68,56,57,71)        178.2418                                         !
 ! D167  D(69,56,57,58)       -174.8842                                         !
 ! D168  D(69,56,57,70)        -54.166                                          !
 ! D169  D(69,56,57,71)         63.6237                                         !
 ! D170  D(56,57,58,59)       -112.4008                                         !
 ! D171  D(56,57,58,72)        111.8858                                         !
 ! D172  D(70,57,58,59)        126.4784                                         !
 ! D173  D(70,57,58,72)         -9.235                                          !
 ! D174  D(71,57,58,59)          9.668                                          !
 ! D175  D(71,57,58,72)       -126.0454                                         !
 ! D176  D(57,58,59,60)         39.5257                                         !
 ! D177  D(57,58,59,61)       -141.4893                                         !
 ! D178  D(72,58,59,60)        175.4453                                         !
 ! D179  D(72,58,59,61)         -5.5696                                         !
 ! D180  D(58,59,60,73)       -179.2634                                         !
 ! D181  D(61,59,60,73)          1.906                                          !
 ! D182  D(58,59,61,74)       -151.1859                                         !
 ! D183  D(58,59,61,75)        -14.4449                                         !
 ! D184  D(60,59,61,74)         27.6857                                         !
 ! D185  D(60,59,61,75)        164.4267                                         !
 --------------------------------------------------------------------------------
 Symmetry turned off by external request.
 Stoichiometry    C23H36N9O7(1+)
 Framework group  C1[X(C23H36N9O7)]
 Deg. of freedom   219
 Full point group                 C1      NOp   1
                          Input orientation:                          
 ---------------------------------------------------------------------
 Center     Atomic      Atomic             Coordinates (Angstroms)
 Number     Number       Type             X           Y           Z
 ---------------------------------------------------------------------
      1          7           0       -7.522840   -3.856026   -9.864067
      2          6           0       -7.897397   -4.634812   -8.629182
      3          6           0       -8.360216   -3.782337   -7.439080
      4          8           0       -9.277767   -4.204780   -6.749167
      5          6           0       -6.710132   -5.505293   -8.205926
      6          6           0       -6.269227   -6.455565   -9.318417
      7          7           0       -5.434903   -7.441546   -8.936546
      8          8           0       -6.639658   -6.303829  -10.488251
      9          1           0       -8.230380   -3.140377  -10.120800
     10          1           0       -8.747923   -5.256887   -8.911121
     11          1           0       -5.861826   -4.873188   -7.914681
     12          1           0       -6.993556   -6.059602   -7.306072
     13          1           0       -5.076273   -8.078259   -9.636432
     14          1           0       -5.121407   -7.538678   -7.980966
     15          1           0       -6.641971   -3.328187   -9.736431
     16          1           0       -7.356100   -4.578178  -10.593603
     17          7           0       -7.676998   -2.636654   -7.172860
     18          6           0       -7.745113   -2.035783   -5.843193
     19          6           0       -8.480918   -0.688643   -5.711083
     20          8           0       -8.263674   -0.017032   -4.698486
     21          6           0       -6.308744   -1.908850   -5.274835
     22          6           0       -5.531214   -3.201423   -5.406980
     23          6           0       -5.920874   -4.347724   -4.698860
     24          6           0       -4.427647   -3.288261   -6.266427
     25          6           0       -5.220578   -5.546832   -4.839088
     26          6           0       -3.717307   -4.484965   -6.404455
     27          6           0       -4.113196   -5.618816   -5.690821
     28          1           0       -6.881806   -2.367736   -7.747786
     29          1           0       -8.320704   -2.733908   -5.225816
     30          1           0       -5.789171   -1.103761   -5.809367
     31          1           0       -6.390189   -1.591997   -4.232252
     32          1           0       -6.773624   -4.300788   -4.025783
     33          1           0       -4.117325   -2.412063   -6.830792
     34          1           0       -5.527930   -6.418952   -4.268523
     35          1           0       -2.852649   -4.526100   -7.061220
     36          1           0       -3.546954   -6.543218   -5.774903
     37          7           0       -9.366310   -0.248391   -6.647163
     38          6           0       -9.735403   -0.794081   -7.943657
     39          6           0       -8.626429   -0.690062   -8.999929
     40          8           0       -8.707489   -1.353335  -10.051986
     41          6           0      -10.996546   -0.072123   -8.488414
     42          6           0      -10.773195    1.433131   -8.592183
     43          7           0      -10.586120    1.936318   -9.834417
     44          8           0      -10.708479    2.122701   -7.574237
     45          1           0       -9.766278    0.666405   -6.438727
     46          1           0       -9.994717   -1.849954   -7.854263
     47          1           0      -11.821218   -0.239511   -7.790241
     48          1           0      -11.250564   -0.530882   -9.447656
     49          1           0      -10.407759    2.927492   -9.930438
     50          1           0      -10.713431    1.384374  -10.669485
     51          7           0       -7.617026    0.163753   -8.770459
     52          6           0       -6.606055    0.384128   -9.782177
     53          6           0       -5.824368   -0.903057  -10.045846
     54          8           0       -5.719185   -1.825257   -9.246890
     55          6           0       -5.646616    1.531329   -9.390678
     56          6           0       -4.837315    1.289272   -8.092652
     57          6           0       -5.316717    2.136577   -6.905855
     58          7           0       -6.691528    1.822856   -6.473927
     59          6           0       -7.703512    2.790371   -6.661541
     60          7           0       -7.697062    3.476061   -7.750838
     61          7           0       -8.612402    2.863185   -5.626200
     62          8           0       -5.192814   -0.997245  -11.216630
     63          1           0       -5.351415   -0.213069  -11.771897
     64          1           0       -7.526847    0.688692   -7.891452
     65          1           0       -7.112170    0.647664  -10.721002
     66          1           0       -4.969161    1.694163  -10.237251
     67          1           0       -6.261867    2.432404   -9.280869
     68          1           0       -4.856479    0.227617   -7.811928
     69          1           0       -3.783964    1.535092   -8.270688
     70          1           0       -4.644360    1.971651   -6.056245
     71          1           0       -5.269476    3.196532   -7.170498
     72          1           0       -6.732989    1.385733   -5.560300
     73          1           0       -8.467971    4.143497   -7.755967
     74          1           0       -9.538633    3.167771   -5.899118
     75          1           0       -8.620471    2.098306   -4.956639
 ---------------------------------------------------------------------
 Rotational constants (GHZ):           0.1503034           0.0740595           0.0700917
 Standard basis: 6-31G(d) (6D, 7F)
   657 basis functions,  1236 primitive gaussians,   657 cartesian basis functions
   146 alpha electrons      146 beta electrons
       nuclear repulsion energy      5211.4909941961 Hartrees.
 NAtoms=   75 NActive=   75 NUniq=   75 SFac= 1.00D+00 NAtFMM=   60 NAOKFM=T Big=T
 Integral buffers will be    131072 words long.
 Raffenetti 2 integral format.
 Two-electron integral symmetry is turned off.
 Nuclear repulsion after empirical dispersion term =     5211.3635351011 Hartrees.
 One-electron integrals computed using PRISM.
 NBasis=   657 RedAO= T EigKep=  4.60D-04  NBF=   657
 NBsUse=   657 1.00D-06 EigRej= -1.00D+00 NBFU=   657
 Initial guess from the checkpoint file:  "conf-771.chk"
 B after Tr=     0.000000    0.000000    0.000000
         Rot=    1.000000    0.000000    0.000000    0.000000 Ang=   0.00 deg.
 Requested convergence on RMS density matrix=1.00D-08 within 128 cycles.
 Requested convergence on MAX density matrix=1.00D-06.
 Requested convergence on             energy=1.00D-06.
 No special actions if energy rises.
 SCF Done:  E(RB3LYP) =  -1917.49893624     A.U. after    1 cycles
            NFock=  1  Conv=0.24D-08     -V/T= 2.0093

 **********************************************************************

            Population analysis using the SCF Density.

 **********************************************************************

 Alpha  occ. eigenvalues --  -19.33748 -19.28425 -19.24864 -19.24417 -19.23911
 Alpha  occ. eigenvalues --  -19.22566 -19.22550 -14.55187 -14.48130 -14.47886
 Alpha  occ. eigenvalues --  -14.47850 -14.46929 -14.46869 -14.43754 -14.41844
 Alpha  occ. eigenvalues --  -14.36514 -10.46414 -10.41981 -10.41510 -10.41409
 Alpha  occ. eigenvalues --  -10.40312 -10.40294 -10.38234 -10.36699 -10.36349
 Alpha  occ. eigenvalues --  -10.36029 -10.34772 -10.32926 -10.31476 -10.30690
 Alpha  occ. eigenvalues --  -10.29999 -10.29984 -10.29787 -10.29138 -10.29077
 Alpha  occ. eigenvalues --  -10.29025 -10.28981 -10.28844 -10.28699  -1.24743
 Alpha  occ. eigenvalues --   -1.16901  -1.16270  -1.15928  -1.15854  -1.14639
 Alpha  occ. eigenvalues --   -1.14225  -1.10725  -1.05989  -1.05418  -1.04677
 Alpha  occ. eigenvalues --   -1.03195  -1.02856  -1.01547  -0.96814  -0.95645
 Alpha  occ. eigenvalues --   -0.92084  -0.92031  -0.91352  -0.89503  -0.89006
 Alpha  occ. eigenvalues --   -0.84775  -0.84468  -0.84288  -0.80869  -0.79504
 Alpha  occ. eigenvalues --   -0.77738  -0.76809  -0.75531  -0.72885  -0.72496
 Alpha  occ. eigenvalues --   -0.71528  -0.71078  -0.70480  -0.70240  -0.69830
 Alpha  occ. eigenvalues --   -0.69633  -0.68625  -0.68042  -0.67069  -0.66204
 Alpha  occ. eigenvalues --   -0.65582  -0.64744  -0.64434  -0.64099  -0.62592
 Alpha  occ. eigenvalues --   -0.62268  -0.61686  -0.61005  -0.60469  -0.59966
 Alpha  occ. eigenvalues --   -0.59549  -0.59434  -0.58373  -0.57793  -0.57652
 Alpha  occ. eigenvalues --   -0.56606  -0.56104  -0.55622  -0.55422  -0.55359
 Alpha  occ. eigenvalues --   -0.55111  -0.54604  -0.54124  -0.53832  -0.53232
 Alpha  occ. eigenvalues --   -0.53066  -0.52639  -0.52316  -0.52043  -0.51818
 Alpha  occ. eigenvalues --   -0.51651  -0.51036  -0.50791  -0.50394  -0.49855
 Alpha  occ. eigenvalues --   -0.49690  -0.49306  -0.49079  -0.48875  -0.48033
 Alpha  occ. eigenvalues --   -0.47444  -0.47214  -0.46640  -0.45853  -0.45236
 Alpha  occ. eigenvalues --   -0.44939  -0.44225  -0.43867  -0.43802  -0.43244
 Alpha  occ. eigenvalues --   -0.41905  -0.40252  -0.39299  -0.39143  -0.38790
 Alpha  occ. eigenvalues --   -0.38661  -0.37943  -0.37393  -0.36695  -0.35959
 Alpha  occ. eigenvalues --   -0.35781  -0.35131  -0.34795  -0.34461  -0.34353
 Alpha  occ. eigenvalues --   -0.30796
 Alpha virt. eigenvalues --   -0.13829  -0.12260  -0.11141  -0.10394  -0.10249
 Alpha virt. eigenvalues --   -0.09486  -0.09217  -0.08704  -0.06846  -0.04069
 Alpha virt. eigenvalues --   -0.03722  -0.03062  -0.02446  -0.02123  -0.00204
 Alpha virt. eigenvalues --    0.00027   0.00725   0.01158   0.01254   0.01763
 Alpha virt. eigenvalues --    0.01984   0.02322   0.02920   0.03304   0.03378
 Alpha virt. eigenvalues --    0.03496   0.04243   0.04599   0.04890   0.04975
 Alpha virt. eigenvalues --    0.05450   0.05607   0.05770   0.06169   0.06495
 Alpha virt. eigenvalues --    0.07132   0.07436   0.07587   0.07819   0.08162
 Alpha virt. eigenvalues --    0.08228   0.08418   0.09043   0.09577   0.09601
 Alpha virt. eigenvalues --    0.10140   0.10395   0.10715   0.10859   0.11189
 Alpha virt. eigenvalues --    0.11545   0.12333   0.12437   0.13157   0.13404
 Alpha virt. eigenvalues --    0.13704   0.14638   0.14760   0.15223   0.16533
 Alpha virt. eigenvalues --    0.16837   0.18100   0.18454   0.20477   0.20808
 Alpha virt. eigenvalues --    0.21273   0.21609   0.22272   0.22478   0.23026
 Alpha virt. eigenvalues --    0.23429   0.23864   0.24450   0.25364   0.25487
 Alpha virt. eigenvalues --    0.27430   0.28442   0.28729   0.29483   0.30539
 Alpha virt. eigenvalues --    0.32152   0.32667   0.35008   0.35620   0.36293
 Alpha virt. eigenvalues --    0.36492   0.36984   0.37936   0.38770   0.39707
 Alpha virt. eigenvalues --    0.40442   0.41232   0.41707   0.42764   0.42986
 Alpha virt. eigenvalues --    0.43598   0.44233   0.44825   0.45189   0.45438
 Alpha virt. eigenvalues --    0.45867   0.46370   0.46917   0.47318   0.47667
 Alpha virt. eigenvalues --    0.48309   0.48393   0.48747   0.49132   0.49880
 Alpha virt. eigenvalues --    0.50352   0.50508   0.50691   0.51215   0.51440
 Alpha virt. eigenvalues --    0.51564   0.51794   0.52326   0.52848   0.52925
 Alpha virt. eigenvalues --    0.53514   0.53990   0.54122   0.54437   0.55143
 Alpha virt. eigenvalues --    0.55318   0.56005   0.56339   0.56652   0.56922
 Alpha virt. eigenvalues --    0.57577   0.57896   0.58476   0.59483   0.59579
 Alpha virt. eigenvalues --    0.60251   0.60858   0.61186   0.61316   0.62195
 Alpha virt. eigenvalues --    0.62703   0.63158   0.63736   0.64060   0.64340
 Alpha virt. eigenvalues --    0.64568   0.65770   0.66138   0.66767   0.67228
 Alpha virt. eigenvalues --    0.67989   0.68510   0.68994   0.70118   0.70516
 Alpha virt. eigenvalues --    0.71446   0.71743   0.72116   0.72875   0.72972
 Alpha virt. eigenvalues --    0.73303   0.74067   0.74121   0.74230   0.74632
 Alpha virt. eigenvalues --    0.75017   0.75347   0.75857   0.76371   0.76552
 Alpha virt. eigenvalues --    0.76690   0.76950   0.77153   0.77700   0.77985
 Alpha virt. eigenvalues --    0.78255   0.78692   0.79271   0.79333   0.79965
 Alpha virt. eigenvalues --    0.80206   0.80345   0.80840   0.81348   0.82220
 Alpha virt. eigenvalues --    0.82396   0.83016   0.83249   0.83536   0.84451
 Alpha virt. eigenvalues --    0.84596   0.85001   0.85939   0.86371   0.86828
 Alpha virt. eigenvalues --    0.87531   0.87857   0.88094   0.88396   0.88708
 Alpha virt. eigenvalues --    0.89067   0.90633   0.91285   0.91475   0.92488
 Alpha virt. eigenvalues --    0.92726   0.93186   0.94040   0.94577   0.94902
 Alpha virt. eigenvalues --    0.95183   0.96123   0.96858   0.97826   0.98083
 Alpha virt. eigenvalues --    0.99216   0.99319   1.00737   1.00898   1.01897
 Alpha virt. eigenvalues --    1.02782   1.03594   1.04431   1.04744   1.05484
 Alpha virt. eigenvalues --    1.06062   1.06651   1.06826   1.07600   1.08335
 Alpha virt. eigenvalues --    1.08664   1.09736   1.10110   1.10404   1.12044
 Alpha virt. eigenvalues --    1.12685   1.13180   1.14228   1.15510   1.15965
 Alpha virt. eigenvalues --    1.16447   1.17801   1.18372   1.18694   1.18783
 Alpha virt. eigenvalues --    1.20619   1.22045   1.23102   1.23913   1.24103
 Alpha virt. eigenvalues --    1.24769   1.25477   1.26502   1.27093   1.27818
 Alpha virt. eigenvalues --    1.28064   1.28814   1.30297   1.30617   1.30971
 Alpha virt. eigenvalues --    1.31719   1.32623   1.33595   1.33999   1.34273
 Alpha virt. eigenvalues --    1.34660   1.35343   1.36246   1.36803   1.37327
 Alpha virt. eigenvalues --    1.37991   1.38925   1.39314   1.40309   1.40995
 Alpha virt. eigenvalues --    1.41229   1.41844   1.42618   1.43482   1.45029
 Alpha virt. eigenvalues --    1.46515   1.47449   1.48599   1.50351   1.51023
 Alpha virt. eigenvalues --    1.51997   1.53100   1.53354   1.54228   1.55719
 Alpha virt. eigenvalues --    1.55998   1.57069   1.58537   1.59425   1.60299
 Alpha virt. eigenvalues --    1.60496   1.61255   1.62008   1.62212   1.62643
 Alpha virt. eigenvalues --    1.63383   1.64020   1.64674   1.65439   1.65986
 Alpha virt. eigenvalues --    1.66430   1.67535   1.67700   1.67994   1.68477
 Alpha virt. eigenvalues --    1.69566   1.69689   1.70577   1.70818   1.71628
 Alpha virt. eigenvalues --    1.72052   1.72763   1.73312   1.73788   1.74422
 Alpha virt. eigenvalues --    1.74767   1.75330   1.75784   1.76032   1.76606
 Alpha virt. eigenvalues --    1.77610   1.78584   1.79327   1.79545   1.80098
 Alpha virt. eigenvalues --    1.81128   1.81317   1.81506   1.82525   1.82983
 Alpha virt. eigenvalues --    1.83630   1.83892   1.84817   1.85934   1.86210
 Alpha virt. eigenvalues --    1.86692   1.87038   1.87354   1.88224   1.88295
 Alpha virt. eigenvalues --    1.89026   1.89934   1.90175   1.90636   1.91300
 Alpha virt. eigenvalues --    1.91393   1.92303   1.93355   1.94212   1.94388
 Alpha virt. eigenvalues --    1.95205   1.96381   1.96554   1.96839   1.97892
 Alpha virt. eigenvalues --    1.98468   1.99574   2.00066   2.00294   2.01572
 Alpha virt. eigenvalues --    2.02398   2.02782   2.03680   2.04631   2.05427
 Alpha virt. eigenvalues --    2.05989   2.06607   2.07108   2.08636   2.08871
 Alpha virt. eigenvalues --    2.09641   2.10340   2.11373   2.12842   2.13696
 Alpha virt. eigenvalues --    2.14536   2.15361   2.16357   2.16974   2.18727
 Alpha virt. eigenvalues --    2.19176   2.19983   2.20725   2.21383   2.21904
 Alpha virt. eigenvalues --    2.22337   2.22787   2.24409   2.24888   2.26880
 Alpha virt. eigenvalues --    2.27598   2.27831   2.27989   2.29664   2.30235
 Alpha virt. eigenvalues --    2.30771   2.31210   2.31861   2.32627   2.33299
 Alpha virt. eigenvalues --    2.34401   2.35324   2.36661   2.36949   2.37691
 Alpha virt. eigenvalues --    2.38309   2.38986   2.40465   2.41225   2.42193
 Alpha virt. eigenvalues --    2.42543   2.44255   2.47009   2.47907   2.48350
 Alpha virt. eigenvalues --    2.48986   2.49382   2.49989   2.50127   2.50647
 Alpha virt. eigenvalues --    2.51612   2.52520   2.53776   2.54246   2.54589
 Alpha virt. eigenvalues --    2.55601   2.56006   2.57426   2.57584   2.58043
 Alpha virt. eigenvalues --    2.60348   2.60974   2.61624   2.62197   2.63126
 Alpha virt. eigenvalues --    2.63579   2.64401   2.65175   2.65394   2.66125
 Alpha virt. eigenvalues --    2.67798   2.68912   2.70011   2.72474   2.73466
 Alpha virt. eigenvalues --    2.75037   2.79183   2.79454   2.81571   2.84179
 Alpha virt. eigenvalues --    2.87817   2.88770   2.89608   2.90680   2.92022
 Alpha virt. eigenvalues --    2.92253   2.93613   2.94493   2.94708   2.95661
 Alpha virt. eigenvalues --    2.96575   2.96788   3.00208   3.03307   3.07581
 Alpha virt. eigenvalues --    3.11625   3.30761   3.70980   3.71709   3.74888
 Alpha virt. eigenvalues --    3.77912   3.77949   3.87213   3.91541   3.94424
 Alpha virt. eigenvalues --    3.98187   4.00029   4.01808   4.03925   4.04296
 Alpha virt. eigenvalues --    4.06068   4.07745   4.09467   4.11645   4.13432
 Alpha virt. eigenvalues --    4.15300   4.16299   4.19821   4.22980   4.24632
 Alpha virt. eigenvalues --    4.26246   4.27245   4.29446   4.32763   4.35106
 Alpha virt. eigenvalues --    4.35762   4.37216   4.40697   4.45412   4.48551
 Alpha virt. eigenvalues --    4.49771   4.59604   4.62851   4.63212   4.66289
 Alpha virt. eigenvalues --    4.69329
          Condensed to atoms (all electrons):
 Mulliken charges:
               1
     1  N   -0.802540
     2  C   -0.117122
     3  C    0.619619
     4  O   -0.496865
     5  C   -0.415755
     6  C    0.636233
     7  N   -0.736029
     8  O   -0.535356
     9  H    0.434845
    10  H    0.226846
    11  H    0.219077
    12  H    0.220273
    13  H    0.371546
    14  H    0.361445
    15  H    0.422833
    16  H    0.428746
    17  N   -0.668652
    18  C   -0.060093
    19  C    0.639492
    20  O   -0.538172
    21  C   -0.395367
    22  C    0.178911
    23  C   -0.180531
    24  C   -0.209470
    25  C   -0.139534
    26  C   -0.140204
    27  C   -0.153151
    28  H    0.393184
    29  H    0.226407
    30  H    0.155947
    31  H    0.208800
    32  H    0.153699
    33  H    0.147075
    34  H    0.156963
    35  H    0.152831
    36  H    0.146576
    37  N   -0.651089
    38  C   -0.041157
    39  C    0.633421
    40  O   -0.612294
    41  C   -0.383958
    42  C    0.603832
    43  N   -0.731621
    44  O   -0.524188
    45  H    0.380101
    46  H    0.201309
    47  H    0.214083
    48  H    0.181466
    49  H    0.364329
    50  H    0.356372
    51  N   -0.623605
    52  C   -0.076895
    53  C    0.658603
    54  O   -0.518941
    55  C   -0.324053
    56  C   -0.301003
    57  C   -0.135618
    58  N   -0.664304
    59  C    0.583178
    60  N   -0.657320
    61  N   -0.775441
    62  O   -0.536095
    63  H    0.441462
    64  H    0.441275
    65  H    0.176919
    66  H    0.146153
    67  H    0.245017
    68  H    0.148348
    69  H    0.165310
    70  H    0.157382
    71  H    0.195787
    72  H    0.352656
    73  H    0.286116
    74  H    0.356584
    75  H    0.355370
 Sum of Mulliken charges =   1.00000
 Mulliken charges with hydrogens summed into heavy atoms:
               1
     1  N    0.483885
     2  C    0.109723
     3  C    0.619619
     4  O   -0.496865
     5  C    0.023594
     6  C    0.636233
     7  N   -0.003038
     8  O   -0.535356
    17  N   -0.275468
    18  C    0.166314
    19  C    0.639492
    20  O   -0.538172
    21  C   -0.030620
    22  C    0.178911
    23  C   -0.026833
    24  C   -0.062394
    25  C    0.017429
    26  C    0.012627
    27  C   -0.006575
    37  N   -0.270987
    38  C    0.160152
    39  C    0.633421
    40  O   -0.612294
    41  C    0.011590
    42  C    0.603832
    43  N   -0.010920
    44  O   -0.524188
    51  N   -0.182330
    52  C    0.100024
    53  C    0.658603
    54  O   -0.518941
    55  C    0.067117
    56  C    0.012654
    57  C    0.217551
    58  N   -0.311648
    59  C    0.583178
    60  N   -0.371204
    61  N   -0.063487
    62  O   -0.094632
 Electronic spatial extent (au):  <R**2>=         136993.3831
 Charge=              1.0000 electrons
 Dipole moment (field-independent basis, Debye):
    X=            -32.6938    Y=            -11.3226    Z=            -43.9743  Tot=             55.9538
 Quadrupole moment (field-independent basis, Debye-Ang):
   XX=             26.3985   YY=           -135.9325   ZZ=            193.3975
   XY=             52.0473   XZ=            311.7336   YZ=             79.5402
 Traceless Quadrupole moment (field-independent basis, Debye-Ang):
   XX=             -1.5560   YY=           -163.8870   ZZ=            165.4430
   XY=             52.0473   XZ=            311.7336   YZ=             79.5402
 Octapole moment (field-independent basis, Debye-Ang**2):
  XXX=           2715.4783  YYY=            395.0594  ZZZ=           1064.1413  XYY=           1185.0177
  XXY=            157.0871  XXZ=           -767.1803  XZZ=          -1431.1332  YZZ=           -193.0496
  YYZ=           1035.2500  XYZ=           -343.2617
 Hexadecapole moment (field-independent basis, Debye-Ang**3):
 XXXX=         -55474.6399 YYYY=         -10426.3950 ZZZZ=         -42374.8626 XXXY=          -5975.5417
 XXXZ=         -15603.1312 YYYX=          -3190.3709 YYYZ=          -2996.9856 ZZZX=          -7048.7376
 ZZZY=          -4668.9621 XXYY=         -12918.0424 XXZZ=          -1561.6174 YYZZ=         -11086.0006
 XXYZ=          -1586.9327 YYXZ=          -9070.9539 ZZXY=             67.3297
 N-N= 5.211363535101D+03 E-N=-1.486125548313D+04  KE= 1.899832764636D+03
 Unable to Open any file for archive entry.
 1\1\GINC-VIM-002\SP\RB3LYP\6-31G(d)\C23H36N9O7(1+)\KENGMITH\06-Jun-202
 2\0\\# B3LYP/6-31G* empiricaldispersion=gd3 guess=read geom=check nosy
 mm integral(ultrafinegrid)\\Candidate Structure: Conf:771 Charge calc 
 in gas phase\\1,1\N,0,-7.5228397161,-3.8560256033,-9.8640671108\C,0,-7
 .8973974092,-4.6348117057,-8.6291822215\C,0,-8.3602155624,-3.782336755
 4,-7.4390803778\O,0,-9.2777666386,-4.2047804464,-6.7491665617\C,0,-6.7
 101316966,-5.5052931128,-8.2059264159\C,0,-6.2692271183,-6.4555646209,
 -9.3184174224\N,0,-5.4349031212,-7.441545682,-8.9365459812\O,0,-6.6396
 582736,-6.3038285112,-10.4882511886\H,0,-8.2303801772,-3.1403766783,-1
 0.1208004929\H,0,-8.7479226972,-5.2568873631,-8.9111213658\H,0,-5.8618
 25829,-4.8731879459,-7.9146812747\H,0,-6.9935559365,-6.0596015141,-7.3
 060720769\H,0,-5.0762730762,-8.0782592648,-9.6364322981\H,0,-5.1214069
 122,-7.5386776936,-7.9809657119\H,0,-6.6419705263,-3.328186853,-9.7364
 306968\H,0,-7.3561000705,-4.5781781932,-10.5936028947\N,0,-7.676997534
 4,-2.6366542244,-7.172860109\C,0,-7.7451125874,-2.0357832169,-5.843192
 7988\C,0,-8.4809180433,-0.6886430016,-5.7110834929\O,0,-8.2636743849,-
 0.0170321117,-4.6984864842\C,0,-6.3087441994,-1.9088496639,-5.27483514
 07\C,0,-5.5312142747,-3.2014226613,-5.4069798027\C,0,-5.920873793,-4.3
 477241214,-4.6988598837\C,0,-4.4276472387,-3.2882605797,-6.2664267381\
 C,0,-5.2205781154,-5.5468318291,-4.8390884902\C,0,-3.7173071339,-4.484
 9650344,-6.4044546503\C,0,-4.1131963022,-5.6188164102,-5.6908213132\H,
 0,-6.8818061747,-2.3677362611,-7.7477860825\H,0,-8.3207039531,-2.73390
 77775,-5.225816143\H,0,-5.7891713605,-1.1037613339,-5.809367174\H,0,-6
 .3901894469,-1.5919973438,-4.2322520351\H,0,-6.7736238766,-4.300788171
 4,-4.0257826975\H,0,-4.117325413,-2.4120633195,-6.8307918405\H,0,-5.52
 79300148,-6.4189520329,-4.2685231986\H,0,-2.85264937,-4.526100484,-7.0
 612198332\H,0,-3.5469544442,-6.5432179608,-5.7749034479\N,0,-9.3663103
 079,-0.2483906891,-6.6471628311\C,0,-9.7354033196,-0.7940809046,-7.943
 6573002\C,0,-8.6264291721,-0.6900622087,-8.9999287798\O,0,-8.707489228
 2,-1.3533347199,-10.0519862416\C,0,-10.9965464745,-0.0721232711,-8.488
 4142669\C,0,-10.7731948345,1.4331307067,-8.5921827819\N,0,-10.58611975
 19,1.9363175027,-9.8344172996\O,0,-10.7084794724,2.1227012677,-7.57423
 71832\H,0,-9.7662783494,0.6664050278,-6.4387265822\H,0,-9.9947170858,-
 1.8499540203,-7.8542632341\H,0,-11.8212175706,-0.2395112679,-7.7902409
 807\H,0,-11.2505637514,-0.5308815171,-9.4476560215\H,0,-10.4077590767,
 2.9274921208,-9.9304384805\H,0,-10.7134313202,1.384373629,-10.66948528
 89\N,0,-7.6170260876,0.1637529275,-8.7704586076\C,0,-6.6060550196,0.38
 41283929,-9.7821765553\C,0,-5.8243683909,-0.9030571585,-10.0458461048\
 O,0,-5.7191854119,-1.8252572827,-9.2468899641\C,0,-5.6466160166,1.5313
 29337,-9.3906775549\C,0,-4.8373151543,1.2892720695,-8.0926522181\C,0,-
 5.3167169789,2.1365772112,-6.9058547704\N,0,-6.6915279662,1.8228557939
 ,-6.4739267331\C,0,-7.7035116778,2.7903707477,-6.6615412247\N,0,-7.697
 0620977,3.4760611258,-7.7508377681\N,0,-8.6124023251,2.8631854442,-5.6
 262003688\O,0,-5.1928137309,-0.9972447268,-11.2166302793\H,0,-5.351415
 2279,-0.21306927,-11.771897124\H,0,-7.5268472126,0.6886920184,-7.89145
 18607\H,0,-7.1121702124,0.6476637485,-10.7210017098\H,0,-4.9691610772,
 1.6941631584,-10.2372512036\H,0,-6.2618674447,2.4324039796,-9.28086881
 26\H,0,-4.8564790245,0.2276170238,-7.8119277031\H,0,-3.7839638394,1.53
 50918618,-8.2706883891\H,0,-4.6443598889,1.9716511353,-6.0562454872\H,
 0,-5.2694755812,3.1965323695,-7.1704980679\H,0,-6.7329888105,1.3857333
 266,-5.5603002062\H,0,-8.4679709414,4.1434970389,-7.7559669228\H,0,-9.
 5386328804,3.1677714571,-5.8991179459\H,0,-8.620471334,2.0983060675,-4
 .9566387577\\Version=ES64L-G16RevC.01\HF=-1917.4989362\RMSD=2.422e-09\
 Dipole=0.851909,-1.5913489,-2.6717604\Quadrupole=-1.1568207,-121.84598
 45,123.0028052,38.6959057,231.7663206,59.1361908\PG=C01 [X(C23H36N9O7)
 ]\\@
 The archive entry for this job was punched.


 EDUCATION IS NOT TRAINING BUT RATHER THE PROCESS THAT EQUIPS YOU TO
 ENTERTAIN YOURSELF, A FRIEND, OR AN IDEA.  -- WALLACE STERLING
 Job cpu time:       0 days  0 hours  2 minutes 50.7 seconds.
 Elapsed time:       0 days  0 hours  0 minutes 43.7 seconds.
 File lengths (MBytes):  RWF=    344 Int=      0 D2E=      0 Chk=     48 Scr=     16
 Normal termination of Gaussian 16 at Mon Jun  6 02:47:38 2022.
