 Entering Gaussian System, Link 0=/opt/software/Gaussian/g16-AVX2-C.01/g16/g16
 Input=charge-conf-14.com
 Output=charge-conf-14.log
 Initial command:
 /opt/software/Gaussian/g16-AVX2-C.01/g16/l1.exe "/mnt/gs18/scratch/users/kengmith/Gau-23515.inp" -scrdir="/mnt/gs18/scratch/users/kengmith/"
 Entering Link 1 = /opt/software/Gaussian/g16-AVX2-C.01/g16/l1.exe PID=     23629.
  
 Copyright (c) 1988-2019, Gaussian, Inc.  All Rights Reserved.
  
 This is part of the Gaussian(R) 16 program.  It is based on
 the Gaussian(R) 09 system (copyright 2009, Gaussian, Inc.),
 the Gaussian(R) 03 system (copyright 2003, Gaussian, Inc.),
 the Gaussian(R) 98 system (copyright 1998, Gaussian, Inc.),
 the Gaussian(R) 94 system (copyright 1995, Gaussian, Inc.),
 the Gaussian 92(TM) system (copyright 1992, Gaussian, Inc.),
 the Gaussian 90(TM) system (copyright 1990, Gaussian, Inc.),
 the Gaussian 88(TM) system (copyright 1988, Gaussian, Inc.),
 the Gaussian 86(TM) system (copyright 1986, Carnegie Mellon
 University), and the Gaussian 82(TM) system (copyright 1983,
 Carnegie Mellon University). Gaussian is a federally registered
 trademark of Gaussian, Inc.
  
 This software contains proprietary and confidential information,
 including trade secrets, belonging to Gaussian, Inc.
  
 This software is provided under written license and may be
 used, copied, transmitted, or stored only in accord with that
 written license.
  
 The following legend is applicable only to US Government
 contracts under FAR:
  
                    RESTRICTED RIGHTS LEGEND
  
 Use, reproduction and disclosure by the US Government is
 subject to restrictions as set forth in subparagraphs (a)
 and (c) of the Commercial Computer Software - Restricted
 Rights clause in FAR 52.227-19.
  
 Gaussian, Inc.
 340 Quinnipiac St., Bldg. 40, Wallingford CT 06492
  
  
 ---------------------------------------------------------------
 Warning -- This program may not be used in any manner that
 competes with the business of Gaussian, Inc. or will provide
 assistance to any competitor of Gaussian, Inc.  The licensee
 of this program is prohibited from giving any competitor of
 Gaussian, Inc. access to this program.  By using this program,
 the user acknowledges that Gaussian, Inc. is engaged in the
 business of creating and licensing software in the field of
 computational chemistry and represents and warrants to the
 licensee that it is not a competitor of Gaussian, Inc. and that
 it will not use this program in any manner prohibited above.
 ---------------------------------------------------------------
  

 Cite this work as:
 Gaussian 16, Revision C.01,
 M. J. Frisch, G. W. Trucks, H. B. Schlegel, G. E. Scuseria, 
 M. A. Robb, J. R. Cheeseman, G. Scalmani, V. Barone, 
 G. A. Petersson, H. Nakatsuji, X. Li, M. Caricato, A. V. Marenich, 
 J. Bloino, B. G. Janesko, R. Gomperts, B. Mennucci, H. P. Hratchian, 
 J. V. Ortiz, A. F. Izmaylov, J. L. Sonnenberg, D. Williams-Young, 
 F. Ding, F. Lipparini, F. Egidi, J. Goings, B. Peng, A. Petrone, 
 T. Henderson, D. Ranasinghe, V. G. Zakrzewski, J. Gao, N. Rega, 
 G. Zheng, W. Liang, M. Hada, M. Ehara, K. Toyota, R. Fukuda, 
 J. Hasegawa, M. Ishida, T. Nakajima, Y. Honda, O. Kitao, H. Nakai, 
 T. Vreven, K. Throssell, J. A. Montgomery, Jr., J. E. Peralta, 
 F. Ogliaro, M. J. Bearpark, J. J. Heyd, E. N. Brothers, K. N. Kudin, 
 V. N. Staroverov, T. A. Keith, R. Kobayashi, J. Normand, 
 K. Raghavachari, A. P. Rendell, J. C. Burant, S. S. Iyengar, 
 J. Tomasi, M. Cossi, J. M. Millam, M. Klene, C. Adamo, R. Cammi, 
 J. W. Ochterski, R. L. Martin, K. Morokuma, O. Farkas, 
 J. B. Foresman, and D. J. Fox, Gaussian, Inc., Wallingford CT, 2019.
 
 ******************************************
 Gaussian 16:  ES64L-G16RevC.01  3-Jul-2019
                 6-Jun-2022 
 ******************************************
 %mem=8gb
 %nproc=4
 Will use up to    4 processors via shared memory.
 %chk=conf-14.chk
 ----------------------------------------------------------------------
 # B3LYP/6-31G* empiricaldispersion=gd3 guess=read geom=check nosymm in
 tegral(ultrafinegrid)
 ----------------------------------------------------------------------
 1/29=2,38=1,172=1/1;
 2/12=2,15=1,40=1/2;
 3/5=1,6=6,7=1,11=2,14=-4,25=1,30=1,74=-5,75=-5,116=-2,124=31/1,2,3;
 4/5=1/1;
 5/5=2,38=6/2;
 6/7=2,8=2,9=2,10=2,28=1/1;
 99/5=1,9=1/99;
 -----------------------------------------------------
 Candidate Structure: Conf:14 Charge calc in gas phase
 -----------------------------------------------------
 Structure from the checkpoint file:  "conf-14.chk"
 Charge =  1 Multiplicity = 1
 Redundant internal coordinates found in file.  (old form).
 N,0,-7.4040998303,-5.4658449548,-7.2681437223
 C,0,-6.2457305554,-4.5268831107,-7.0299490527
 C,0,-6.8020911428,-3.4467579101,-6.0887819067
 O,0,-7.3522197301,-3.8492260155,-5.0615250833
 C,0,-5.6303450753,-4.119068441,-8.3649688424
 C,0,-5.1249171686,-5.3346214979,-9.141619988
 N,0,-4.1002298613,-5.1120889148,-9.9855990851
 O,0,-5.6533695707,-6.447243027,-9.018300118
 H,0,-8.1655905828,-4.916832204,-7.7311574781
 H,0,-5.5139701928,-5.0861893683,-6.4392761867
 H,0,-6.3786798447,-3.60921991,-8.9783686273
 H,0,-4.8241701144,-3.4052178329,-8.1738417495
 H,0,-3.7607604943,-5.8792926504,-10.5519182311
 H,0,-3.6564581955,-4.2094906047,-10.0762674502
 H,0,-7.0431043499,-6.2187945733,-7.8956279677
 H,0,-7.742537825,-5.8168810707,-6.3665925943
 N,0,-6.7153298521,-2.1557072684,-6.454492082
 C,0,-6.894929081,-1.0786021269,-5.4845320619
 C,0,-8.1141341289,-0.1721991835,-5.7442445627
 O,0,-8.0382215298,1.0341769051,-5.5043577396
 C,0,-5.5925913267,-0.2375906501,-5.4262814751
 C,0,-4.3770102885,-1.1352978273,-5.3744198762
 C,0,-4.0437438017,-1.8251578239,-4.2023827527
 C,0,-3.622330859,-1.3694951143,-6.5331012577
 C,0,-2.9859718024,-2.7362223664,-4.1874485142
 C,0,-2.5611690638,-2.2782088344,-6.5200580642
 C,0,-2.2433971264,-2.9685799617,-5.34779595
 H,0,-6.3130419738,-1.8923438568,-7.3550650962
 H,0,-7.0664584231,-1.5676668591,-4.5193088313
 H,0,-5.5545888499,0.4019050869,-6.3141549065
 H,0,-5.6544231896,0.4253850474,-4.5592843697
 H,0,-4.6186028983,-1.6520163951,-3.2952788782
 H,0,-3.8773301404,-0.8473138662,-7.4527985757
 H,0,-2.7380492075,-3.2599103517,-3.2685365093
 H,0,-1.9732402928,-2.4357576238,-7.4211526965
 H,0,-1.4149670892,-3.6711551768,-5.333661514
 N,0,-9.2939015236,-0.6905915003,-6.1862979761
 C,0,-9.6141177665,-2.0065068112,-6.7153941492
 C,0,-8.9800257238,-2.2956470871,-8.087771544
 O,0,-8.8563410344,-3.47275827,-8.487374677
 C,0,-11.1494578191,-2.1550219603,-6.8545852238
 C,0,-11.747306638,-1.126934185,-7.8178753542
 N,0,-12.5883576065,-1.6056043056,-8.765173723
 O,0,-11.4565847228,0.0688710752,-7.741331878
 H,0,-9.9988119299,0.0202936502,-6.3788775249
 H,0,-9.2694490069,-2.7832130283,-6.0293343941
 H,0,-11.6059798619,-1.9996785876,-5.8704873427
 H,0,-11.3640224009,-3.1800138564,-7.169832836
 H,0,-13.084042475,-0.9373953461,-9.3419245536
 H,0,-12.9064030655,-2.5637860474,-8.772471693
 N,0,-8.6478295375,-1.226257434,-8.8134897888
 C,0,-8.0965422408,-1.2873503877,-10.1504715113
 C,0,-6.5930216697,-0.9407656212,-10.0973015244
 O,0,-5.919958276,-1.1632456182,-9.1064466836
 C,0,-8.9969777657,-0.5358309212,-11.1585675521
 C,0,-9.0158139665,1.0045079065,-11.1615851911
 C,0,-9.4299642586,1.7480112994,-9.8810989107
 N,0,-8.5295738137,1.5994058774,-8.7100987772
 C,0,-7.2153497763,2.1268200098,-8.7853040907
 N,0,-6.6055207338,2.1434949197,-9.9176934586
 N,0,-6.7396309811,2.5807018515,-7.5748110306
 O,0,-5.9958309524,-0.5647403005,-11.2286912421
 H,0,-6.6294921423,-0.1616018841,-11.8454107957
 H,0,-8.7166569766,-0.2699115753,-8.4365277353
 H,0,-8.1085196981,-2.3469339033,-10.4388435332
 H,0,-8.7268203127,-0.874451581,-12.1691077923
 H,0,-10.0085007664,-0.9222715652,-10.9837150233
 H,0,-8.0500950762,1.4071979858,-11.4710058632
 H,0,-9.7428995842,1.2994060734,-11.9292743771
 H,0,-9.521662864,2.8105473226,-10.1419195637
 H,0,-10.4081103088,1.3953939323,-9.5387389821
 H,0,-9.0018384434,1.9336518277,-7.8733130759
 H,0,-5.6562064338,2.5040390346,-9.8206277447
 H,0,-5.7501282735,2.779308867,-7.5255492756
 H,0,-7.1465907642,2.2239293075,-6.7129951502
 Recover connectivity data from disk.
                           ----------------------------
                           !    Current Parameters    !
                           ! (Angstroms and Degrees)  !
 --------------------------                            --------------------------
 ! Name  Definition              Value                                          !
 --------------------------------------------------------------------------------
 ! R1    R(1,2)                  1.51                                           !
 ! R2    R(1,9)                  1.0467                                         !
 ! R3    R(1,15)                 1.0445                                         !
 ! R4    R(1,16)                 1.025                                          !
 ! R5    R(2,3)                  1.5369                                         !
 ! R6    R(2,5)                  1.5255                                         !
 ! R7    R(2,10)                 1.0942                                         !
 ! R8    R(3,4)                  1.2328                                         !
 ! R9    R(3,17)                 1.3446                                         !
 ! R10   R(5,6)                  1.5285                                         !
 ! R11   R(5,11)                 1.0937                                         !
 ! R12   R(5,12)                 1.0936                                         !
 ! R13   R(6,7)                  1.346                                          !
 ! R14   R(6,8)                  1.2379                                         !
 ! R15   R(7,13)                 1.0122                                         !
 ! R16   R(7,14)                 1.0099                                         !
 ! R17   R(17,18)                1.4606                                         !
 ! R18   R(17,28)                1.0209                                         !
 ! R19   R(18,19)                1.5413                                         !
 ! R20   R(18,21)                1.5514                                         !
 ! R21   R(18,29)                1.0956                                         !
 ! R22   R(19,20)                1.2323                                         !
 ! R23   R(19,37)                1.3623                                         !
 ! R24   R(21,22)                1.512                                          !
 ! R25   R(21,30)                1.0949                                         !
 ! R26   R(21,31)                1.0932                                         !
 ! R27   R(22,23)                1.4002                                         !
 ! R28   R(22,24)                1.4025                                         !
 ! R29   R(23,25)                1.3961                                         !
 ! R30   R(23,32)                1.0878                                         !
 ! R31   R(24,26)                1.3971                                         !
 ! R32   R(24,33)                1.0879                                         !
 ! R33   R(25,27)                1.3971                                         !
 ! R34   R(25,34)                1.0863                                         !
 ! R35   R(26,27)                1.3971                                         !
 ! R36   R(26,35)                1.0874                                         !
 ! R37   R(27,36)                1.0863                                         !
 ! R38   R(37,38)                1.454                                          !
 ! R39   R(37,45)                1.0195                                         !
 ! R40   R(38,39)                1.5392                                         !
 ! R41   R(38,41)                1.5488                                         !
 ! R42   R(38,46)                1.0921                                         !
 ! R43   R(39,40)                1.2492                                         !
 ! R44   R(39,51)                1.3344                                         !
 ! R45   R(41,42)                1.5305                                         !
 ! R46   R(41,47)                1.0959                                         !
 ! R47   R(41,48)                1.0936                                         !
 ! R48   R(42,43)                1.3542                                         !
 ! R49   R(42,44)                1.233                                          !
 ! R50   R(43,49)                1.0123                                         !
 ! R51   R(43,50)                1.0096                                         !
 ! R52   R(51,52)                1.4475                                         !
 ! R53   R(51,64)                1.0303                                         !
 ! R54   R(52,53)                1.5439                                         !
 ! R55   R(52,55)                1.5466                                         !
 ! R56   R(52,65)                1.0982                                         !
 ! R57   R(53,54)                1.2183                                         !
 ! R58   R(53,62)                1.3334                                         !
 ! R59   R(55,56)                1.5405                                         !
 ! R60   R(55,66)                1.0995                                         !
 ! R61   R(55,67)                1.0969                                         !
 ! R62   R(56,57)                1.5375                                         !
 ! R63   R(56,68)                1.0911                                         !
 ! R64   R(56,69)                1.0977                                         !
 ! R65   R(57,58)                1.4846                                         !
 ! R66   R(57,70)                1.0979                                         !
 ! R67   R(57,71)                1.0947                                         !
 ! R68   R(58,59)                1.4181                                         !
 ! R69   R(58,72)                1.0173                                         !
 ! R70   R(59,60)                1.2863                                         !
 ! R71   R(59,61)                1.3775                                         !
 ! R72   R(60,73)                1.0201                                         !
 ! R73   R(61,74)                1.0104                                         !
 ! R74   R(61,75)                1.0177                                         !
 ! R75   R(62,63)                0.9718                                         !
 ! A1    A(2,1,9)              107.5598                                         !
 ! A2    A(2,1,15)             106.1339                                         !
 ! A3    A(2,1,16)             109.1178                                         !
 ! A4    A(9,1,15)             111.3331                                         !
 ! A5    A(9,1,16)             109.1776                                         !
 ! A6    A(15,1,16)            113.3062                                         !
 ! A7    A(1,2,3)              104.8276                                         !
 ! A8    A(1,2,5)              109.7325                                         !
 ! A9    A(1,2,10)             106.2802                                         !
 ! A10   A(3,2,5)              119.6077                                         !
 ! A11   A(3,2,10)             105.7099                                         !
 ! A12   A(5,2,10)             109.8335                                         !
 ! A13   A(2,3,4)              116.2555                                         !
 ! A14   A(2,3,17)             119.0044                                         !
 ! A15   A(4,3,17)             124.6707                                         !
 ! A16   A(2,5,6)              111.4358                                         !
 ! A17   A(2,5,11)             109.841                                          !
 ! A18   A(2,5,12)             108.5972                                         !
 ! A19   A(6,5,11)             108.1801                                         !
 ! A20   A(6,5,12)             111.355                                          !
 ! A21   A(11,5,12)            107.3439                                         !
 ! A22   A(5,6,7)              116.0307                                         !
 ! A23   A(5,6,8)              121.5343                                         !
 ! A24   A(7,6,8)              122.4142                                         !
 ! A25   A(6,7,13)             118.7383                                         !
 ! A26   A(6,7,14)             122.5873                                         !
 ! A27   A(13,7,14)            118.6745                                         !
 ! A28   A(3,17,18)            121.2995                                         !
 ! A29   A(3,17,28)            120.8662                                         !
 ! A30   A(18,17,28)           116.362                                          !
 ! A31   A(17,18,19)           114.7753                                         !
 ! A32   A(17,18,21)           108.7531                                         !
 ! A33   A(17,18,29)           105.9703                                         !
 ! A34   A(19,18,21)           110.5839                                         !
 ! A35   A(19,18,29)           106.6865                                         !
 ! A36   A(21,18,29)           109.8983                                         !
 ! A37   A(18,19,20)           119.6153                                         !
 ! A38   A(18,19,37)           121.0596                                         !
 ! A39   A(20,19,37)           119.2753                                         !
 ! A40   A(18,21,22)           110.7518                                         !
 ! A41   A(18,21,30)           108.3805                                         !
 ! A42   A(18,21,31)           108.1234                                         !
 ! A43   A(22,21,30)           110.2851                                         !
 ! A44   A(22,21,31)           112.2306                                         !
 ! A45   A(30,21,31)           106.9114                                         !
 ! A46   A(21,22,23)           120.8348                                         !
 ! A47   A(21,22,24)           120.2261                                         !
 ! A48   A(23,22,24)           118.7628                                         !
 ! A49   A(22,23,25)           120.7163                                         !
 ! A50   A(22,23,32)           119.5908                                         !
 ! A51   A(25,23,32)           119.6924                                         !
 ! A52   A(22,24,26)           120.6374                                         !
 ! A53   A(22,24,33)           119.4819                                         !
 ! A54   A(26,24,33)           119.875                                          !
 ! A55   A(23,25,27)           120.1561                                         !
 ! A56   A(23,25,34)           119.7717                                         !
 ! A57   A(27,25,34)           120.0712                                         !
 ! A58   A(24,26,27)           120.1323                                         !
 ! A59   A(24,26,35)           119.8117                                         !
 ! A60   A(27,26,35)           120.0495                                         !
 ! A61   A(25,27,26)           119.5923                                         !
 ! A62   A(25,27,36)           120.1387                                         !
 ! A63   A(26,27,36)           120.2629                                         !
 ! A64   A(19,37,38)           130.7809                                         !
 ! A65   A(19,37,45)           113.2495                                         !
 ! A66   A(38,37,45)           114.2088                                         !
 ! A67   A(37,38,39)           113.8121                                         !
 ! A68   A(37,38,41)           109.7435                                         !
 ! A69   A(37,38,46)           110.2154                                         !
 ! A70   A(39,38,41)           108.0741                                         !
 ! A71   A(39,38,46)           107.2472                                         !
 ! A72   A(41,38,46)           107.5246                                         !
 ! A73   A(38,39,40)           120.1993                                         !
 ! A74   A(38,39,51)           115.908                                          !
 ! A75   A(40,39,51)           123.8156                                         !
 ! A76   A(38,41,42)           112.2962                                         !
 ! A77   A(38,41,47)           108.5822                                         !
 ! A78   A(38,41,48)           108.0757                                         !
 ! A79   A(42,41,47)           107.8938                                         !
 ! A80   A(42,41,48)           111.8092                                         !
 ! A81   A(47,41,48)           108.0577                                         !
 ! A82   A(41,42,43)           116.4524                                         !
 ! A83   A(41,42,44)           121.3524                                         !
 ! A84   A(43,42,44)           122.1856                                         !
 ! A85   A(42,43,49)           117.99                                           !
 ! A86   A(42,43,50)           122.4231                                         !
 ! A87   A(49,43,50)           117.9092                                         !
 ! A88   A(39,51,52)           124.2865                                         !
 ! A89   A(39,51,64)           121.8897                                         !
 ! A90   A(52,51,64)           113.7398                                         !
 ! A91   A(51,52,53)           109.246                                          !
 ! A92   A(51,52,55)           111.0893                                         !
 ! A93   A(51,52,65)           106.2073                                         !
 ! A94   A(53,52,55)           118.7094                                         !
 ! A95   A(53,52,65)           103.6662                                         !
 ! A96   A(55,52,65)           106.9379                                         !
 ! A97   A(52,53,54)           121.6702                                         !
 ! A98   A(52,53,62)           118.0497                                         !
 ! A99   A(54,53,62)           119.6127                                         !
 ! A100  A(52,55,56)           119.623                                          !
 ! A101  A(52,55,66)           107.8418                                         !
 ! A102  A(52,55,67)           105.1777                                         !
 ! A103  A(56,55,66)           108.0089                                         !
 ! A104  A(56,55,67)           109.9577                                         !
 ! A105  A(66,55,67)           105.3438                                         !
 ! A106  A(55,56,57)           119.0255                                         !
 ! A107  A(55,56,68)           111.0247                                         !
 ! A108  A(55,56,69)           106.1467                                         !
 ! A109  A(57,56,68)           107.2244                                         !
 ! A110  A(57,56,69)           105.9092                                         !
 ! A111  A(68,56,69)           106.7845                                         !
 ! A112  A(56,57,58)           116.432                                          !
 ! A113  A(56,57,70)           107.0162                                         !
 ! A114  A(56,57,71)           110.2054                                         !
 ! A115  A(58,57,70)           109.5668                                         !
 ! A116  A(58,57,71)           105.2479                                         !
 ! A117  A(70,57,71)           108.144                                          !
 ! A118  A(57,58,59)           118.8818                                         !
 ! A119  A(57,58,72)           109.5332                                         !
 ! A120  A(59,58,72)           110.5878                                         !
 ! A121  A(58,59,60)           119.3991                                         !
 ! A122  A(58,59,61)           113.3274                                         !
 ! A123  A(60,59,61)           127.273                                          !
 ! A124  A(59,60,73)           111.2243                                         !
 ! A125  A(59,61,74)           116.4738                                         !
 ! A126  A(59,61,75)           119.3771                                         !
 ! A127  A(74,61,75)           114.7862                                         !
 ! A128  A(53,62,63)           111.3099                                         !
 ! D1    D(9,1,2,3)             61.6043                                         !
 ! D2    D(9,1,2,5)            -68.0323                                         !
 ! D3    D(9,1,2,10)           173.2649                                         !
 ! D4    D(15,1,2,3)          -179.1369                                         !
 ! D5    D(15,1,2,5)            51.2265                                         !
 ! D6    D(15,1,2,10)          -67.4763                                         !
 ! D7    D(16,1,2,3)           -56.713                                          !
 ! D8    D(16,1,2,5)           173.6504                                         !
 ! D9    D(16,1,2,10)           54.9476                                         !
 ! D10   D(1,2,3,4)             52.5581                                         !
 ! D11   D(1,2,3,17)          -124.5547                                         !
 ! D12   D(5,2,3,4)            176.0724                                         !
 ! D13   D(5,2,3,17)            -1.0404                                         !
 ! D14   D(10,2,3,4)           -59.5098                                         !
 ! D15   D(10,2,3,17)          123.3774                                         !
 ! D16   D(1,2,5,6)            -59.5228                                         !
 ! D17   D(1,2,5,11)            60.3457                                         !
 ! D18   D(1,2,5,12)           177.4616                                         !
 ! D19   D(3,2,5,6)            179.377                                          !
 ! D20   D(3,2,5,11)           -60.7545                                         !
 ! D21   D(3,2,5,12)            56.3614                                         !
 ! D22   D(10,2,5,6)            56.9632                                         !
 ! D23   D(10,2,5,11)          176.8317                                         !
 ! D24   D(10,2,5,12)          -66.0525                                         !
 ! D25   D(2,3,17,18)         -163.7909                                         !
 ! D26   D(2,3,17,28)            1.862                                          !
 ! D27   D(4,3,17,18)           19.3578                                         !
 ! D28   D(4,3,17,28)         -174.9894                                         !
 ! D29   D(2,5,6,7)           -152.1611                                         !
 ! D30   D(2,5,6,8)             29.4595                                         !
 ! D31   D(11,5,6,7)            86.9933                                         !
 ! D32   D(11,5,6,8)           -91.3861                                         !
 ! D33   D(12,5,6,7)           -30.7363                                         !
 ! D34   D(12,5,6,8)           150.8842                                         !
 ! D35   D(5,6,7,13)          -177.2452                                         !
 ! D36   D(5,6,7,14)             2.7527                                         !
 ! D37   D(8,6,7,13)             1.1186                                         !
 ! D38   D(8,6,7,14)          -178.8834                                         !
 ! D39   D(3,17,18,19)        -116.1345                                         !
 ! D40   D(3,17,18,21)         119.4196                                         !
 ! D41   D(3,17,18,29)           1.3187                                         !
 ! D42   D(28,17,18,19)         77.5979                                         !
 ! D43   D(28,17,18,21)        -46.848                                          !
 ! D44   D(28,17,18,29)       -164.9489                                         !
 ! D45   D(17,18,19,20)       -143.7467                                         !
 ! D46   D(17,18,19,37)         38.8396                                         !
 ! D47   D(21,18,19,20)        -20.2724                                         !
 ! D48   D(21,18,19,37)        162.3138                                         !
 ! D49   D(29,18,19,20)         99.2075                                         !
 ! D50   D(29,18,19,37)        -78.2063                                         !
 ! D51   D(17,18,21,22)        -44.8441                                         !
 ! D52   D(17,18,21,30)         76.2588                                         !
 ! D53   D(17,18,21,31)       -168.1919                                         !
 ! D54   D(19,18,21,22)       -171.7313                                         !
 ! D55   D(19,18,21,30)        -50.6284                                         !
 ! D56   D(19,18,21,31)         64.9209                                         !
 ! D57   D(29,18,21,22)         70.7444                                         !
 ! D58   D(29,18,21,30)       -168.1527                                         !
 ! D59   D(29,18,21,31)        -52.6034                                         !
 ! D60   D(18,19,37,38)        -12.3261                                         !
 ! D61   D(18,19,37,45)       -176.065                                          !
 ! D62   D(20,19,37,38)        170.2515                                         !
 ! D63   D(20,19,37,45)          6.5126                                         !
 ! D64   D(18,21,22,23)        -74.2861                                         !
 ! D65   D(18,21,22,24)        100.8293                                         !
 ! D66   D(30,21,22,23)        165.7438                                         !
 ! D67   D(30,21,22,24)        -19.1408                                         !
 ! D68   D(31,21,22,23)         46.6594                                         !
 ! D69   D(31,21,22,24)       -138.2253                                         !
 ! D70   D(21,22,23,25)        174.7643                                         !
 ! D71   D(21,22,23,32)         -4.9612                                         !
 ! D72   D(24,22,23,25)         -0.4213                                         !
 ! D73   D(24,22,23,32)        179.8532                                         !
 ! D74   D(21,22,24,26)       -174.9554                                         !
 ! D75   D(21,22,24,33)          4.1749                                         !
 ! D76   D(23,22,24,26)          0.2603                                         !
 ! D77   D(23,22,24,33)        179.3906                                         !
 ! D78   D(22,23,25,27)          0.1116                                         !
 ! D79   D(22,23,25,34)        179.744                                          !
 ! D80   D(32,23,25,27)        179.8368                                         !
 ! D81   D(32,23,25,34)         -0.5308                                         !
 ! D82   D(22,24,26,27)          0.2108                                         !
 ! D83   D(22,24,26,35)       -178.8635                                         !
 ! D84   D(33,24,26,27)       -178.9161                                         !
 ! D85   D(33,24,26,35)          2.0096                                         !
 ! D86   D(23,25,27,26)          0.364                                          !
 ! D87   D(23,25,27,36)        179.4713                                         !
 ! D88   D(34,25,27,26)       -179.2673                                         !
 ! D89   D(34,25,27,36)         -0.16                                           !
 ! D90   D(24,26,27,25)         -0.5235                                         !
 ! D91   D(24,26,27,36)       -179.6297                                         !
 ! D92   D(35,26,27,25)        178.5486                                         !
 ! D93   D(35,26,27,36)         -0.5576                                         !
 ! D94   D(19,37,38,39)        -67.9858                                         !
 ! D95   D(19,37,38,41)        170.7702                                         !
 ! D96   D(19,37,38,46)         52.5355                                         !
 ! D97   D(45,37,38,39)         95.6296                                         !
 ! D98   D(45,37,38,41)        -25.6144                                         !
 ! D99   D(45,37,38,46)       -143.8491                                         !
 ! D100  D(37,38,39,40)        160.2716                                         !
 ! D101  D(37,38,39,51)        -22.8007                                         !
 ! D102  D(41,38,39,40)        -77.5587                                         !
 ! D103  D(41,38,39,51)         99.369                                          !
 ! D104  D(46,38,39,40)         38.0977                                         !
 ! D105  D(46,38,39,51)       -144.9746                                         !
 ! D106  D(37,38,41,42)         61.0858                                         !
 ! D107  D(37,38,41,47)        -58.1366                                         !
 ! D108  D(37,38,41,48)       -175.1196                                         !
 ! D109  D(39,38,41,42)        -63.5494                                         !
 ! D110  D(39,38,41,47)        177.2282                                         !
 ! D111  D(39,38,41,48)         60.2452                                         !
 ! D112  D(46,38,41,42)       -179.0243                                         !
 ! D113  D(46,38,41,47)         61.7533                                         !
 ! D114  D(46,38,41,48)        -55.2297                                         !
 ! D115  D(38,39,51,52)       -177.1327                                         !
 ! D116  D(38,39,51,64)          6.4111                                         !
 ! D117  D(40,39,51,52)         -0.3288                                         !
 ! D118  D(40,39,51,64)       -176.785                                          !
 ! D119  D(38,41,42,43)        130.9983                                         !
 ! D120  D(38,41,42,44)        -47.9014                                         !
 ! D121  D(47,41,42,43)       -109.3771                                         !
 ! D122  D(47,41,42,44)         71.7232                                         !
 ! D123  D(48,41,42,43)          9.311                                          !
 ! D124  D(48,41,42,44)       -169.5887                                         !
 ! D125  D(41,42,43,49)        172.7097                                         !
 ! D126  D(41,42,43,50)          7.7906                                         !
 ! D127  D(44,42,43,49)         -8.4005                                         !
 ! D128  D(44,42,43,50)       -173.3196                                         !
 ! D129  D(39,51,52,53)       -106.2233                                         !
 ! D130  D(39,51,52,55)        120.935                                          !
 ! D131  D(39,51,52,65)          5.0053                                         !
 ! D132  D(64,51,52,53)         70.4899                                         !
 ! D133  D(64,51,52,55)        -62.3518                                         !
 ! D134  D(64,51,52,65)       -178.2815                                         !
 ! D135  D(51,52,53,54)         28.4977                                         !
 ! D136  D(51,52,53,62)       -160.9055                                         !
 ! D137  D(55,52,53,54)        157.2359                                         !
 ! D138  D(55,52,53,62)        -32.1673                                         !
 ! D139  D(65,52,53,54)        -84.4034                                         !
 ! D140  D(65,52,53,62)         86.1934                                         !
 ! D141  D(51,52,55,56)         74.048                                          !
 ! D142  D(51,52,55,66)       -162.1285                                         !
 ! D143  D(51,52,55,67)        -50.0831                                         !
 ! D144  D(53,52,55,56)        -53.8332                                         !
 ! D145  D(53,52,55,66)         69.9903                                         !
 ! D146  D(53,52,55,67)       -177.9643                                         !
 ! D147  D(65,52,55,56)       -170.4739                                         !
 ! D148  D(65,52,55,66)        -46.6504                                         !
 ! D149  D(65,52,55,67)         65.395                                          !
 ! D150  D(52,53,62,63)         26.6846                                         !
 ! D151  D(54,53,62,63)       -162.519                                          !
 ! D152  D(52,55,56,57)        -59.0534                                         !
 ! D153  D(52,55,56,68)         66.1218                                         !
 ! D154  D(52,55,56,69)       -178.1977                                         !
 ! D155  D(66,55,56,57)        177.2039                                         !
 ! D156  D(66,55,56,68)        -57.6209                                         !
 ! D157  D(66,55,56,69)         58.0596                                         !
 ! D158  D(67,55,56,57)         62.7431                                         !
 ! D159  D(67,55,56,68)       -172.0818                                         !
 ! D160  D(67,55,56,69)        -56.4012                                         !
 ! D161  D(55,56,57,58)         65.4737                                         !
 ! D162  D(55,56,57,70)       -171.6206                                         !
 ! D163  D(55,56,57,71)        -54.2559                                         !
 ! D164  D(68,56,57,58)        -61.5105                                         !
 ! D165  D(68,56,57,70)         61.3952                                         !
 ! D166  D(68,56,57,71)        178.7599                                         !
 ! D167  D(69,56,57,58)       -175.26                                           !
 ! D168  D(69,56,57,70)        -52.3542                                         !
 ! D169  D(69,56,57,71)         65.0104                                         !
 ! D170  D(56,57,58,59)         65.1946                                         !
 ! D171  D(56,57,58,72)       -166.3567                                         !
 ! D172  D(70,57,58,59)        -56.374                                          !
 ! D173  D(70,57,58,72)         72.0747                                         !
 ! D174  D(71,57,58,59)       -172.4421                                         !
 ! D175  D(71,57,58,72)        -43.9934                                         !
 ! D176  D(57,58,59,60)        -32.2365                                         !
 ! D177  D(57,58,59,61)        147.5261                                         !
 ! D178  D(72,58,59,60)       -160.1959                                         !
 ! D179  D(72,58,59,61)         19.5667                                         !
 ! D180  D(58,59,60,73)       -177.1613                                         !
 ! D181  D(61,59,60,73)          3.1126                                         !
 ! D182  D(58,59,61,74)        167.1995                                         !
 ! D183  D(58,59,61,75)         22.3335                                         !
 ! D184  D(60,59,61,74)        -13.0605                                         !
 ! D185  D(60,59,61,75)       -157.9264                                         !
 --------------------------------------------------------------------------------
 Symmetry turned off by external request.
 Stoichiometry    C23H36N9O7(1+)
 Framework group  C1[X(C23H36N9O7)]
 Deg. of freedom   219
 Full point group                 C1      NOp   1
                          Input orientation:                          
 ---------------------------------------------------------------------
 Center     Atomic      Atomic             Coordinates (Angstroms)
 Number     Number       Type             X           Y           Z
 ---------------------------------------------------------------------
      1          7           0       -7.404100   -5.465845   -7.268144
      2          6           0       -6.245731   -4.526883   -7.029949
      3          6           0       -6.802091   -3.446758   -6.088782
      4          8           0       -7.352220   -3.849226   -5.061525
      5          6           0       -5.630345   -4.119068   -8.364969
      6          6           0       -5.124917   -5.334621   -9.141620
      7          7           0       -4.100230   -5.112089   -9.985599
      8          8           0       -5.653370   -6.447243   -9.018300
      9          1           0       -8.165591   -4.916832   -7.731157
     10          1           0       -5.513970   -5.086189   -6.439276
     11          1           0       -6.378680   -3.609220   -8.978369
     12          1           0       -4.824170   -3.405218   -8.173842
     13          1           0       -3.760760   -5.879293  -10.551918
     14          1           0       -3.656458   -4.209491  -10.076267
     15          1           0       -7.043104   -6.218795   -7.895628
     16          1           0       -7.742538   -5.816881   -6.366593
     17          7           0       -6.715330   -2.155707   -6.454492
     18          6           0       -6.894929   -1.078602   -5.484532
     19          6           0       -8.114134   -0.172199   -5.744245
     20          8           0       -8.038222    1.034177   -5.504358
     21          6           0       -5.592591   -0.237591   -5.426281
     22          6           0       -4.377010   -1.135298   -5.374420
     23          6           0       -4.043744   -1.825158   -4.202383
     24          6           0       -3.622331   -1.369495   -6.533101
     25          6           0       -2.985972   -2.736222   -4.187449
     26          6           0       -2.561169   -2.278209   -6.520058
     27          6           0       -2.243397   -2.968580   -5.347796
     28          1           0       -6.313042   -1.892344   -7.355065
     29          1           0       -7.066458   -1.567667   -4.519309
     30          1           0       -5.554589    0.401905   -6.314155
     31          1           0       -5.654423    0.425385   -4.559284
     32          1           0       -4.618603   -1.652016   -3.295279
     33          1           0       -3.877330   -0.847314   -7.452799
     34          1           0       -2.738049   -3.259910   -3.268537
     35          1           0       -1.973240   -2.435758   -7.421153
     36          1           0       -1.414967   -3.671155   -5.333662
     37          7           0       -9.293902   -0.690592   -6.186298
     38          6           0       -9.614118   -2.006507   -6.715394
     39          6           0       -8.980026   -2.295647   -8.087772
     40          8           0       -8.856341   -3.472758   -8.487375
     41          6           0      -11.149458   -2.155022   -6.854585
     42          6           0      -11.747307   -1.126934   -7.817875
     43          7           0      -12.588358   -1.605604   -8.765174
     44          8           0      -11.456585    0.068871   -7.741332
     45          1           0       -9.998812    0.020294   -6.378878
     46          1           0       -9.269449   -2.783213   -6.029334
     47          1           0      -11.605980   -1.999679   -5.870487
     48          1           0      -11.364022   -3.180014   -7.169833
     49          1           0      -13.084042   -0.937395   -9.341925
     50          1           0      -12.906403   -2.563786   -8.772472
     51          7           0       -8.647830   -1.226257   -8.813490
     52          6           0       -8.096542   -1.287350  -10.150472
     53          6           0       -6.593022   -0.940766  -10.097302
     54          8           0       -5.919958   -1.163246   -9.106447
     55          6           0       -8.996978   -0.535831  -11.158568
     56          6           0       -9.015814    1.004508  -11.161585
     57          6           0       -9.429964    1.748011   -9.881099
     58          7           0       -8.529574    1.599406   -8.710099
     59          6           0       -7.215350    2.126820   -8.785304
     60          7           0       -6.605521    2.143495   -9.917693
     61          7           0       -6.739631    2.580702   -7.574811
     62          8           0       -5.995831   -0.564740  -11.228691
     63          1           0       -6.629492   -0.161602  -11.845411
     64          1           0       -8.716657   -0.269912   -8.436528
     65          1           0       -8.108520   -2.346934  -10.438844
     66          1           0       -8.726820   -0.874452  -12.169108
     67          1           0      -10.008501   -0.922272  -10.983715
     68          1           0       -8.050095    1.407198  -11.471006
     69          1           0       -9.742900    1.299406  -11.929274
     70          1           0       -9.521663    2.810547  -10.141920
     71          1           0      -10.408110    1.395394   -9.538739
     72          1           0       -9.001838    1.933652   -7.873313
     73          1           0       -5.656206    2.504039   -9.820628
     74          1           0       -5.750128    2.779309   -7.525549
     75          1           0       -7.146591    2.223929   -6.712995
 ---------------------------------------------------------------------
 Rotational constants (GHZ):           0.1268350           0.0827140           0.0777429
 Standard basis: 6-31G(d) (6D, 7F)
   657 basis functions,  1236 primitive gaussians,   657 cartesian basis functions
   146 alpha electrons      146 beta electrons
       nuclear repulsion energy      5234.8913671616 Hartrees.
 NAtoms=   75 NActive=   75 NUniq=   75 SFac= 1.00D+00 NAtFMM=   60 NAOKFM=T Big=T
 Integral buffers will be    131072 words long.
 Raffenetti 2 integral format.
 Two-electron integral symmetry is turned off.
 Nuclear repulsion after empirical dispersion term =     5234.7661006548 Hartrees.
 One-electron integrals computed using PRISM.
 NBasis=   657 RedAO= T EigKep=  4.65D-04  NBF=   657
 NBsUse=   657 1.00D-06 EigRej= -1.00D+00 NBFU=   657
 Initial guess from the checkpoint file:  "conf-14.chk"
 B after Tr=     0.000000    0.000000    0.000000
         Rot=    1.000000    0.000000    0.000000    0.000000 Ang=   0.00 deg.
 Requested convergence on RMS density matrix=1.00D-08 within 128 cycles.
 Requested convergence on MAX density matrix=1.00D-06.
 Requested convergence on             energy=1.00D-06.
 No special actions if energy rises.
 SCF Done:  E(RB3LYP) =  -1917.49612976     A.U. after    1 cycles
            NFock=  1  Conv=0.21D-08     -V/T= 2.0093

 **********************************************************************

            Population analysis using the SCF Density.

 **********************************************************************

 Alpha  occ. eigenvalues --  -19.30498 -19.25577 -19.24812 -19.24806 -19.24073
 Alpha  occ. eigenvalues --  -19.23423 -19.22479 -14.55324 -14.48336 -14.47882
 Alpha  occ. eigenvalues --  -14.47614 -14.47333 -14.46451 -14.44057 -14.42316
 Alpha  occ. eigenvalues --  -14.36754 -10.43937 -10.42388 -10.41517 -10.41321
 Alpha  occ. eigenvalues --  -10.41193 -10.40061 -10.38446 -10.36744 -10.35795
 Alpha  occ. eigenvalues --  -10.35487 -10.34396 -10.32925 -10.32215 -10.30430
 Alpha  occ. eigenvalues --  -10.30204 -10.28643 -10.28401 -10.27718 -10.27542
 Alpha  occ. eigenvalues --  -10.27440 -10.27435 -10.27384 -10.27357  -1.21688
 Alpha  occ. eigenvalues --   -1.16893  -1.16304  -1.15923  -1.15145  -1.14420
 Alpha  occ. eigenvalues --   -1.13349  -1.10379  -1.05989  -1.05335  -1.04730
 Alpha  occ. eigenvalues --   -1.03249  -1.02850  -1.02237  -0.96934  -0.94207
 Alpha  occ. eigenvalues --   -0.92344  -0.92017  -0.90775  -0.89329  -0.88197
 Alpha  occ. eigenvalues --   -0.84238  -0.83472  -0.82900  -0.80857  -0.79524
 Alpha  occ. eigenvalues --   -0.77210  -0.75860  -0.73574  -0.72892  -0.72150
 Alpha  occ. eigenvalues --   -0.71546  -0.70819  -0.70582  -0.70106  -0.69343
 Alpha  occ. eigenvalues --   -0.68931  -0.68628  -0.67100  -0.66962  -0.66064
 Alpha  occ. eigenvalues --   -0.65416  -0.64862  -0.64077  -0.62922  -0.62606
 Alpha  occ. eigenvalues --   -0.61987  -0.60683  -0.60532  -0.59969  -0.59214
 Alpha  occ. eigenvalues --   -0.59083  -0.58879  -0.57891  -0.57544  -0.57142
 Alpha  occ. eigenvalues --   -0.55947  -0.55685  -0.55052  -0.54845  -0.54733
 Alpha  occ. eigenvalues --   -0.54141  -0.53837  -0.53776  -0.53564  -0.53350
 Alpha  occ. eigenvalues --   -0.52935  -0.52542  -0.52185  -0.51748  -0.51553
 Alpha  occ. eigenvalues --   -0.51073  -0.50537  -0.50408  -0.50125  -0.49895
 Alpha  occ. eigenvalues --   -0.49735  -0.48724  -0.48540  -0.48327  -0.47753
 Alpha  occ. eigenvalues --   -0.47275  -0.46813  -0.45812  -0.45037  -0.44221
 Alpha  occ. eigenvalues --   -0.44095  -0.43087  -0.42701  -0.42494  -0.42348
 Alpha  occ. eigenvalues --   -0.40432  -0.39643  -0.39543  -0.39088  -0.39001
 Alpha  occ. eigenvalues --   -0.38660  -0.37960  -0.37666  -0.37559  -0.35702
 Alpha  occ. eigenvalues --   -0.35444  -0.34621  -0.34261  -0.33578  -0.32973
 Alpha  occ. eigenvalues --   -0.31246
 Alpha virt. eigenvalues --   -0.11834  -0.11012  -0.10489  -0.10009  -0.09592
 Alpha virt. eigenvalues --   -0.09386  -0.08772  -0.08691  -0.05172  -0.04589
 Alpha virt. eigenvalues --   -0.03509  -0.03143  -0.02686  -0.01369  -0.00623
 Alpha virt. eigenvalues --   -0.00374   0.00260   0.00585   0.01194   0.01596
 Alpha virt. eigenvalues --    0.02342   0.02629   0.03094   0.03303   0.03570
 Alpha virt. eigenvalues --    0.04113   0.04769   0.04885   0.05517   0.05633
 Alpha virt. eigenvalues --    0.05782   0.06475   0.06754   0.06884   0.07191
 Alpha virt. eigenvalues --    0.07340   0.07698   0.07997   0.08079   0.08377
 Alpha virt. eigenvalues --    0.08556   0.08794   0.09140   0.09687   0.10412
 Alpha virt. eigenvalues --    0.10661   0.10914   0.11274   0.11656   0.12017
 Alpha virt. eigenvalues --    0.12388   0.12467   0.12821   0.13107   0.13668
 Alpha virt. eigenvalues --    0.14064   0.14280   0.14809   0.15863   0.16512
 Alpha virt. eigenvalues --    0.16997   0.17563   0.18029   0.19356   0.21531
 Alpha virt. eigenvalues --    0.21948   0.22324   0.22671   0.23265   0.23673
 Alpha virt. eigenvalues --    0.24365   0.24938   0.25162   0.26284   0.27206
 Alpha virt. eigenvalues --    0.27503   0.28755   0.28917   0.29303   0.30297
 Alpha virt. eigenvalues --    0.32153   0.33937   0.35442   0.36551   0.36823
 Alpha virt. eigenvalues --    0.36975   0.38155   0.38795   0.39017   0.40193
 Alpha virt. eigenvalues --    0.41023   0.41980   0.42676   0.43385   0.44466
 Alpha virt. eigenvalues --    0.44754   0.44868   0.45315   0.46094   0.46167
 Alpha virt. eigenvalues --    0.46375   0.46826   0.47043   0.47429   0.47750
 Alpha virt. eigenvalues --    0.48074   0.48182   0.48808   0.49210   0.50306
 Alpha virt. eigenvalues --    0.50838   0.51094   0.51326   0.51461   0.51859
 Alpha virt. eigenvalues --    0.52258   0.52448   0.52717   0.53171   0.53275
 Alpha virt. eigenvalues --    0.53422   0.53612   0.53905   0.54531   0.54731
 Alpha virt. eigenvalues --    0.55026   0.55752   0.55920   0.56289   0.56740
 Alpha virt. eigenvalues --    0.57115   0.57359   0.57944   0.58737   0.59668
 Alpha virt. eigenvalues --    0.60534   0.60561   0.61157   0.61717   0.62033
 Alpha virt. eigenvalues --    0.62376   0.63249   0.63784   0.64041   0.64542
 Alpha virt. eigenvalues --    0.64807   0.66068   0.66281   0.67100   0.67247
 Alpha virt. eigenvalues --    0.67676   0.68862   0.69105   0.69509   0.70054
 Alpha virt. eigenvalues --    0.70804   0.71220   0.72255   0.72713   0.73235
 Alpha virt. eigenvalues --    0.73854   0.74008   0.74321   0.74751   0.75013
 Alpha virt. eigenvalues --    0.75522   0.75756   0.76029   0.76354   0.76615
 Alpha virt. eigenvalues --    0.77203   0.77520   0.77629   0.77996   0.78339
 Alpha virt. eigenvalues --    0.78810   0.79073   0.79718   0.79968   0.80588
 Alpha virt. eigenvalues --    0.81334   0.81496   0.81979   0.82508   0.82950
 Alpha virt. eigenvalues --    0.83046   0.83433   0.84215   0.84691   0.84816
 Alpha virt. eigenvalues --    0.85457   0.85905   0.86299   0.86368   0.87294
 Alpha virt. eigenvalues --    0.87506   0.87713   0.88680   0.89454   0.89978
 Alpha virt. eigenvalues --    0.90773   0.91194   0.91650   0.92034   0.93277
 Alpha virt. eigenvalues --    0.93605   0.93914   0.94529   0.95445   0.95609
 Alpha virt. eigenvalues --    0.96089   0.96850   0.97609   0.97842   0.98717
 Alpha virt. eigenvalues --    0.99468   1.00272   1.00442   1.00637   1.02810
 Alpha virt. eigenvalues --    1.03530   1.04367   1.05055   1.05408   1.05879
 Alpha virt. eigenvalues --    1.06138   1.07691   1.07956   1.08444   1.08993
 Alpha virt. eigenvalues --    1.09393   1.10487   1.11169   1.11379   1.12471
 Alpha virt. eigenvalues --    1.12700   1.14078   1.14970   1.15707   1.16597
 Alpha virt. eigenvalues --    1.17154   1.17616   1.18304   1.18969   1.19475
 Alpha virt. eigenvalues --    1.19646   1.20898   1.21631   1.23357   1.23473
 Alpha virt. eigenvalues --    1.25004   1.25346   1.26634   1.27537   1.27997
 Alpha virt. eigenvalues --    1.29323   1.29582   1.30699   1.31219   1.32454
 Alpha virt. eigenvalues --    1.33176   1.33680   1.34059   1.34818   1.34884
 Alpha virt. eigenvalues --    1.35742   1.36413   1.37180   1.37856   1.39141
 Alpha virt. eigenvalues --    1.39432   1.39950   1.40054   1.41162   1.42076
 Alpha virt. eigenvalues --    1.42651   1.43435   1.43739   1.44525   1.47044
 Alpha virt. eigenvalues --    1.48787   1.50164   1.51170   1.51928   1.52265
 Alpha virt. eigenvalues --    1.52942   1.53822   1.53991   1.55036   1.55691
 Alpha virt. eigenvalues --    1.56190   1.56741   1.57326   1.58856   1.59314
 Alpha virt. eigenvalues --    1.60765   1.61492   1.62251   1.62441   1.62955
 Alpha virt. eigenvalues --    1.63939   1.64326   1.64892   1.65209   1.65846
 Alpha virt. eigenvalues --    1.66514   1.67553   1.68390   1.68596   1.69482
 Alpha virt. eigenvalues --    1.69658   1.70660   1.71195   1.72227   1.72525
 Alpha virt. eigenvalues --    1.72713   1.72907   1.73193   1.73783   1.74418
 Alpha virt. eigenvalues --    1.74856   1.75222   1.75981   1.76127   1.76784
 Alpha virt. eigenvalues --    1.77536   1.77873   1.78678   1.78757   1.79453
 Alpha virt. eigenvalues --    1.79829   1.81254   1.81661   1.81858   1.82454
 Alpha virt. eigenvalues --    1.82812   1.83423   1.84664   1.84836   1.85615
 Alpha virt. eigenvalues --    1.85959   1.86259   1.87827   1.88341   1.89254
 Alpha virt. eigenvalues --    1.89808   1.89979   1.90591   1.91635   1.92389
 Alpha virt. eigenvalues --    1.93332   1.93729   1.94009   1.94897   1.95725
 Alpha virt. eigenvalues --    1.96349   1.97409   1.97942   1.98268   1.98380
 Alpha virt. eigenvalues --    1.98917   2.00359   2.00591   2.01056   2.02436
 Alpha virt. eigenvalues --    2.02905   2.04641   2.05133   2.05435   2.05782
 Alpha virt. eigenvalues --    2.06218   2.06781   2.07929   2.08874   2.09724
 Alpha virt. eigenvalues --    2.11333   2.11965   2.13105   2.13845   2.15161
 Alpha virt. eigenvalues --    2.15361   2.16520   2.16640   2.17358   2.18468
 Alpha virt. eigenvalues --    2.19922   2.20346   2.20760   2.20960   2.21847
 Alpha virt. eigenvalues --    2.22367   2.22643   2.23358   2.23403   2.24877
 Alpha virt. eigenvalues --    2.25927   2.26599   2.27238   2.28193   2.29514
 Alpha virt. eigenvalues --    2.30294   2.31314   2.32133   2.32757   2.33523
 Alpha virt. eigenvalues --    2.34442   2.35398   2.36247   2.36449   2.37806
 Alpha virt. eigenvalues --    2.38332   2.39744   2.40025   2.40344   2.42157
 Alpha virt. eigenvalues --    2.43984   2.44733   2.45077   2.47341   2.48592
 Alpha virt. eigenvalues --    2.49332   2.49683   2.50405   2.50471   2.51176
 Alpha virt. eigenvalues --    2.51688   2.52454   2.53008   2.53874   2.55002
 Alpha virt. eigenvalues --    2.55524   2.55789   2.56916   2.57130   2.58313
 Alpha virt. eigenvalues --    2.59688   2.61003   2.61209   2.61848   2.63906
 Alpha virt. eigenvalues --    2.64248   2.65977   2.66744   2.67172   2.68072
 Alpha virt. eigenvalues --    2.69270   2.69969   2.71223   2.72903   2.74480
 Alpha virt. eigenvalues --    2.76229   2.79084   2.81764   2.84029   2.86234
 Alpha virt. eigenvalues --    2.87882   2.89304   2.89708   2.91440   2.91810
 Alpha virt. eigenvalues --    2.93410   2.94046   2.95325   2.96475   2.96924
 Alpha virt. eigenvalues --    2.97501   2.99795   3.00378   3.04824   3.06552
 Alpha virt. eigenvalues --    3.09771   3.32531   3.69018   3.69686   3.73012
 Alpha virt. eigenvalues --    3.76885   3.81005   3.89664   3.93127   3.97925
 Alpha virt. eigenvalues --    3.99041   4.00014   4.00743   4.02366   4.03770
 Alpha virt. eigenvalues --    4.05130   4.06200   4.08482   4.10417   4.12737
 Alpha virt. eigenvalues --    4.14652   4.17320   4.19367   4.20459   4.26681
 Alpha virt. eigenvalues --    4.27154   4.28611   4.31894   4.33522   4.36748
 Alpha virt. eigenvalues --    4.37742   4.40995   4.42227   4.43342   4.46132
 Alpha virt. eigenvalues --    4.53501   4.55299   4.60063   4.62673   4.66317
 Alpha virt. eigenvalues --    4.70367
          Condensed to atoms (all electrons):
 Mulliken charges:
               1
     1  N   -0.767673
     2  C   -0.109167
     3  C    0.628220
     4  O   -0.534671
     5  C   -0.427315
     6  C    0.640831
     7  N   -0.736272
     8  O   -0.537084
     9  H    0.431892
    10  H    0.232456
    11  H    0.216316
    12  H    0.212211
    13  H    0.373144
    14  H    0.367351
    15  H    0.430699
    16  H    0.404583
    17  N   -0.661666
    18  C   -0.070313
    19  C    0.629207
    20  O   -0.533458
    21  C   -0.382743
    22  C    0.167511
    23  C   -0.178759
    24  C   -0.214972
    25  C   -0.132517
    26  C   -0.146998
    27  C   -0.133900
    28  H    0.433441
    29  H    0.221752
    30  H    0.157036
    31  H    0.191715
    32  H    0.142836
    33  H    0.155251
    34  H    0.152648
    35  H    0.134263
    36  H    0.148282
    37  N   -0.631983
    38  C   -0.054749
    39  C    0.647485
    40  O   -0.618828
    41  C   -0.390145
    42  C    0.608216
    43  N   -0.733230
    44  O   -0.519782
    45  H    0.378907
    46  H    0.201003
    47  H    0.217973
    48  H    0.174292
    49  H    0.364190
    50  H    0.359214
    51  N   -0.597714
    52  C   -0.108707
    53  C    0.653643
    54  O   -0.489797
    55  C   -0.315914
    56  C   -0.287416
    57  C   -0.146983
    58  N   -0.678584
    59  C    0.620623
    60  N   -0.669607
    61  N   -0.794923
    62  O   -0.548334
    63  H    0.444893
    64  H    0.430027
    65  H    0.207428
    66  H    0.152746
    67  H    0.167335
    68  H    0.194948
    69  H    0.156301
    70  H    0.171770
    71  H    0.174179
    72  H    0.348343
    73  H    0.283995
    74  H    0.332537
    75  H    0.392509
 Sum of Mulliken charges =   1.00000
 Mulliken charges with hydrogens summed into heavy atoms:
               1
     1  N    0.499501
     2  C    0.123290
     3  C    0.628220
     4  O   -0.534671
     5  C    0.001213
     6  C    0.640831
     7  N    0.004224
     8  O   -0.537084
    17  N   -0.228225
    18  C    0.151439
    19  C    0.629207
    20  O   -0.533458
    21  C   -0.033993
    22  C    0.167511
    23  C   -0.035922
    24  C   -0.059721
    25  C    0.020131
    26  C   -0.012734
    27  C    0.014382
    37  N   -0.253076
    38  C    0.146254
    39  C    0.647485
    40  O   -0.618828
    41  C    0.002121
    42  C    0.608216
    43  N   -0.009826
    44  O   -0.519782
    51  N   -0.167686
    52  C    0.098721
    53  C    0.653643
    54  O   -0.489797
    55  C    0.004167
    56  C    0.063833
    57  C    0.198966
    58  N   -0.330242
    59  C    0.620623
    60  N   -0.385612
    61  N   -0.069878
    62  O   -0.103440
 Electronic spatial extent (au):  <R**2>=         136017.6061
 Charge=              1.0000 electrons
 Dipole moment (field-independent basis, Debye):
    X=            -37.4260    Y=            -14.8260    Z=            -41.4612  Tot=             57.7888
 Quadrupole moment (field-independent basis, Debye-Ang):
   XX=            135.3267   YY=           -161.4162   ZZ=            156.9994
   XY=            105.7883   XZ=            328.4968   YZ=            117.9346
 Traceless Quadrupole moment (field-independent basis, Debye-Ang):
   XX=             91.6901   YY=           -205.0528   ZZ=            113.3627
   XY=            105.7883   XZ=            328.4968   YZ=            117.9346
 Octapole moment (field-independent basis, Debye-Ang**2):
  XXX=            925.6266  YYY=            759.0685  ZZZ=           1491.5265  XYY=           1205.7638
  XXY=           -620.5794  XXZ=          -1464.0347  XZZ=          -1412.5342  YZZ=           -650.2985
  YYZ=           1244.8867  XYZ=           -809.9323
 Hexadecapole moment (field-independent basis, Debye-Ang**3):
 XXXX=         -32539.5105 YYYY=          -8901.9891 ZZZZ=         -47952.9058 XXXY=           3711.1334
 XXXZ=          -3386.3167 YYYX=          -4451.0366 YYYZ=          -5465.3323 ZZZX=          -9116.5520
 ZZZY=           1416.6390 XXYY=         -11299.7290 XXZZ=           2152.8877 YYZZ=         -12044.0261
 XXYZ=           4803.0029 YYXZ=          -9809.0691 ZZXY=           4260.3337
 N-N= 5.234766100655D+03 E-N=-1.490928317380D+04  KE= 1.899804400061D+03
 Unable to Open any file for archive entry.
 1\1\GINC-AMR-071\SP\RB3LYP\6-31G(d)\C23H36N9O7(1+)\KENGMITH\06-Jun-202
 2\0\\# B3LYP/6-31G* empiricaldispersion=gd3 guess=read geom=check nosy
 mm integral(ultrafinegrid)\\Candidate Structure: Conf:14 Charge calc i
 n gas phase\\1,1\N,0,-7.4040998303,-5.4658449548,-7.2681437223\C,0,-6.
 2457305554,-4.5268831107,-7.0299490527\C,0,-6.8020911428,-3.4467579101
 ,-6.0887819067\O,0,-7.3522197301,-3.8492260155,-5.0615250833\C,0,-5.63
 03450753,-4.119068441,-8.3649688424\C,0,-5.1249171686,-5.3346214979,-9
 .141619988\N,0,-4.1002298613,-5.1120889148,-9.9855990851\O,0,-5.653369
 5707,-6.447243027,-9.018300118\H,0,-8.1655905828,-4.916832204,-7.73115
 74781\H,0,-5.5139701928,-5.0861893683,-6.4392761867\H,0,-6.3786798447,
 -3.60921991,-8.9783686273\H,0,-4.8241701144,-3.4052178329,-8.173841749
 5\H,0,-3.7607604943,-5.8792926504,-10.5519182311\H,0,-3.6564581955,-4.
 2094906047,-10.0762674502\H,0,-7.0431043499,-6.2187945733,-7.895627967
 7\H,0,-7.742537825,-5.8168810707,-6.3665925943\N,0,-6.7153298521,-2.15
 57072684,-6.454492082\C,0,-6.894929081,-1.0786021269,-5.4845320619\C,0
 ,-8.1141341289,-0.1721991835,-5.7442445627\O,0,-8.0382215298,1.0341769
 051,-5.5043577396\C,0,-5.5925913267,-0.2375906501,-5.4262814751\C,0,-4
 .3770102885,-1.1352978273,-5.3744198762\C,0,-4.0437438017,-1.825157823
 9,-4.2023827527\C,0,-3.622330859,-1.3694951143,-6.5331012577\C,0,-2.98
 59718024,-2.7362223664,-4.1874485142\C,0,-2.5611690638,-2.2782088344,-
 6.5200580642\C,0,-2.2433971264,-2.9685799617,-5.34779595\H,0,-6.313041
 9738,-1.8923438568,-7.3550650962\H,0,-7.0664584231,-1.5676668591,-4.51
 93088313\H,0,-5.5545888499,0.4019050869,-6.3141549065\H,0,-5.654423189
 6,0.4253850474,-4.5592843697\H,0,-4.6186028983,-1.6520163951,-3.295278
 8782\H,0,-3.8773301404,-0.8473138662,-7.4527985757\H,0,-2.7380492075,-
 3.2599103517,-3.2685365093\H,0,-1.9732402928,-2.4357576238,-7.42115269
 65\H,0,-1.4149670892,-3.6711551768,-5.333661514\N,0,-9.2939015236,-0.6
 905915003,-6.1862979761\C,0,-9.6141177665,-2.0065068112,-6.7153941492\
 C,0,-8.9800257238,-2.2956470871,-8.087771544\O,0,-8.8563410344,-3.4727
 5827,-8.487374677\C,0,-11.1494578191,-2.1550219603,-6.8545852238\C,0,-
 11.747306638,-1.126934185,-7.8178753542\N,0,-12.5883576065,-1.60560430
 56,-8.765173723\O,0,-11.4565847228,0.0688710752,-7.741331878\H,0,-9.99
 88119299,0.0202936502,-6.3788775249\H,0,-9.2694490069,-2.7832130283,-6
 .0293343941\H,0,-11.6059798619,-1.9996785876,-5.8704873427\H,0,-11.364
 0224009,-3.1800138564,-7.169832836\H,0,-13.084042475,-0.9373953461,-9.
 3419245536\H,0,-12.9064030655,-2.5637860474,-8.772471693\N,0,-8.647829
 5375,-1.226257434,-8.8134897888\C,0,-8.0965422408,-1.2873503877,-10.15
 04715113\C,0,-6.5930216697,-0.9407656212,-10.0973015244\O,0,-5.9199582
 76,-1.1632456182,-9.1064466836\C,0,-8.9969777657,-0.5358309212,-11.158
 5675521\C,0,-9.0158139665,1.0045079065,-11.1615851911\C,0,-9.429964258
 6,1.7480112994,-9.8810989107\N,0,-8.5295738137,1.5994058774,-8.7100987
 772\C,0,-7.2153497763,2.1268200098,-8.7853040907\N,0,-6.6055207338,2.1
 434949197,-9.9176934586\N,0,-6.7396309811,2.5807018515,-7.5748110306\O
 ,0,-5.9958309524,-0.5647403005,-11.2286912421\H,0,-6.6294921423,-0.161
 6018841,-11.8454107957\H,0,-8.7166569766,-0.2699115753,-8.4365277353\H
 ,0,-8.1085196981,-2.3469339033,-10.4388435332\H,0,-8.7268203127,-0.874
 451581,-12.1691077923\H,0,-10.0085007664,-0.9222715652,-10.9837150233\
 H,0,-8.0500950762,1.4071979858,-11.4710058632\H,0,-9.7428995842,1.2994
 060734,-11.9292743771\H,0,-9.521662864,2.8105473226,-10.1419195637\H,0
 ,-10.4081103088,1.3953939323,-9.5387389821\H,0,-9.0018384434,1.9336518
 277,-7.8733130759\H,0,-5.6562064338,2.5040390346,-9.8206277447\H,0,-5.
 7501282735,2.779308867,-7.5255492756\H,0,-7.1465907642,2.2239293075,-6
 .7129951502\\Version=ES64L-G16RevC.01\HF=-1917.4961298\RMSD=2.136e-09\
 Dipole=-1.0965274,-2.8779919,-1.6455504\Quadrupole=68.1693333,-152.451
 7591,84.2824258,78.6509818,244.229309,87.6815015\PG=C01 [X(C23H36N9O7)
 ]\\@
 The archive entry for this job was punched.


 IF THERE IS ONE WAY BETTER THAN ANOTHER IT IS THE WAY OF NATURE.

                          -- ARISTOTLE
 Job cpu time:       0 days  0 hours  2 minutes  1.9 seconds.
 Elapsed time:       0 days  0 hours  0 minutes 31.3 seconds.
 File lengths (MBytes):  RWF=    344 Int=      0 D2E=      0 Chk=     48 Scr=     16
 Normal termination of Gaussian 16 at Mon Jun  6 02:41:23 2022.
