 Entering Gaussian System, Link 0=/opt/software/Gaussian/g16-AVX2-C.01/g16/g16
 Input=charge-conf-234.com
 Output=charge-conf-234.log
 Initial command:
 /opt/software/Gaussian/g16-AVX2-C.01/g16/l1.exe "/mnt/gs18/scratch/users/kengmith/Gau-130792.inp" -scrdir="/mnt/gs18/scratch/users/kengmith/"
 Entering Link 1 = /opt/software/Gaussian/g16-AVX2-C.01/g16/l1.exe PID=    130802.
  
 Copyright (c) 1988-2019, Gaussian, Inc.  All Rights Reserved.
  
 This is part of the Gaussian(R) 16 program.  It is based on
 the Gaussian(R) 09 system (copyright 2009, Gaussian, Inc.),
 the Gaussian(R) 03 system (copyright 2003, Gaussian, Inc.),
 the Gaussian(R) 98 system (copyright 1998, Gaussian, Inc.),
 the Gaussian(R) 94 system (copyright 1995, Gaussian, Inc.),
 the Gaussian 92(TM) system (copyright 1992, Gaussian, Inc.),
 the Gaussian 90(TM) system (copyright 1990, Gaussian, Inc.),
 the Gaussian 88(TM) system (copyright 1988, Gaussian, Inc.),
 the Gaussian 86(TM) system (copyright 1986, Carnegie Mellon
 University), and the Gaussian 82(TM) system (copyright 1983,
 Carnegie Mellon University). Gaussian is a federally registered
 trademark of Gaussian, Inc.
  
 This software contains proprietary and confidential information,
 including trade secrets, belonging to Gaussian, Inc.
  
 This software is provided under written license and may be
 used, copied, transmitted, or stored only in accord with that
 written license.
  
 The following legend is applicable only to US Government
 contracts under FAR:
  
                    RESTRICTED RIGHTS LEGEND
  
 Use, reproduction and disclosure by the US Government is
 subject to restrictions as set forth in subparagraphs (a)
 and (c) of the Commercial Computer Software - Restricted
 Rights clause in FAR 52.227-19.
  
 Gaussian, Inc.
 340 Quinnipiac St., Bldg. 40, Wallingford CT 06492
  
  
 ---------------------------------------------------------------
 Warning -- This program may not be used in any manner that
 competes with the business of Gaussian, Inc. or will provide
 assistance to any competitor of Gaussian, Inc.  The licensee
 of this program is prohibited from giving any competitor of
 Gaussian, Inc. access to this program.  By using this program,
 the user acknowledges that Gaussian, Inc. is engaged in the
 business of creating and licensing software in the field of
 computational chemistry and represents and warrants to the
 licensee that it is not a competitor of Gaussian, Inc. and that
 it will not use this program in any manner prohibited above.
 ---------------------------------------------------------------
  

 Cite this work as:
 Gaussian 16, Revision C.01,
 M. J. Frisch, G. W. Trucks, H. B. Schlegel, G. E. Scuseria, 
 M. A. Robb, J. R. Cheeseman, G. Scalmani, V. Barone, 
 G. A. Petersson, H. Nakatsuji, X. Li, M. Caricato, A. V. Marenich, 
 J. Bloino, B. G. Janesko, R. Gomperts, B. Mennucci, H. P. Hratchian, 
 J. V. Ortiz, A. F. Izmaylov, J. L. Sonnenberg, D. Williams-Young, 
 F. Ding, F. Lipparini, F. Egidi, J. Goings, B. Peng, A. Petrone, 
 T. Henderson, D. Ranasinghe, V. G. Zakrzewski, J. Gao, N. Rega, 
 G. Zheng, W. Liang, M. Hada, M. Ehara, K. Toyota, R. Fukuda, 
 J. Hasegawa, M. Ishida, T. Nakajima, Y. Honda, O. Kitao, H. Nakai, 
 T. Vreven, K. Throssell, J. A. Montgomery, Jr., J. E. Peralta, 
 F. Ogliaro, M. J. Bearpark, J. J. Heyd, E. N. Brothers, K. N. Kudin, 
 V. N. Staroverov, T. A. Keith, R. Kobayashi, J. Normand, 
 K. Raghavachari, A. P. Rendell, J. C. Burant, S. S. Iyengar, 
 J. Tomasi, M. Cossi, J. M. Millam, M. Klene, C. Adamo, R. Cammi, 
 J. W. Ochterski, R. L. Martin, K. Morokuma, O. Farkas, 
 J. B. Foresman, and D. J. Fox, Gaussian, Inc., Wallingford CT, 2019.
 
 ******************************************
 Gaussian 16:  ES64L-G16RevC.01  3-Jul-2019
                 6-Jun-2022 
 ******************************************
 %mem=8gb
 %nproc=4
 Will use up to    4 processors via shared memory.
 %chk=conf-234.chk
 ----------------------------------------------------------------------
 # B3LYP/6-31G* empiricaldispersion=gd3 guess=read geom=check nosymm in
 tegral(ultrafinegrid)
 ----------------------------------------------------------------------
 1/29=2,38=1,172=1/1;
 2/12=2,15=1,40=1/2;
 3/5=1,6=6,7=1,11=2,14=-4,25=1,30=1,74=-5,75=-5,116=-2,124=31/1,2,3;
 4/5=1/1;
 5/5=2,38=6/2;
 6/7=2,8=2,9=2,10=2,28=1/1;
 99/5=1,9=1/99;
 ------------------------------------------------------
 Candidate Structure: Conf:234 Charge calc in gas phase
 ------------------------------------------------------
 Structure from the checkpoint file:  "conf-234.chk"
 Charge =  1 Multiplicity = 1
 Redundant internal coordinates found in file.  (old form).
 N,0,-5.1069789121,1.513047303,-8.9001632762
 C,0,-5.1077446162,0.0958914636,-9.4187815664
 C,0,-6.5887511464,-0.2017542952,-9.6962302917
 O,0,-7.2230898867,0.6683293351,-10.295971931
 C,0,-4.3565622886,-0.7970925667,-8.4412106738
 C,0,-2.9127499387,-0.3472232373,-8.222119488
 N,0,-2.0995160978,-1.2771291432,-7.6837482624
 O,0,-2.5447208573,0.8035094631,-8.4818064729
 H,0,-5.6688929144,1.5194016601,-8.0212644953
 H,0,-4.6022144195,0.1112653877,-10.3892361944
 H,0,-4.8634736336,-0.7545325742,-7.4755509509
 H,0,-4.389226499,-1.8300249898,-8.7982751748
 H,0,-1.1394274239,-1.0277219249,-7.483089427
 H,0,-2.423287349,-2.2074416524,-7.4537337444
 H,0,-4.1132124244,1.7696860376,-8.7305111417
 H,0,-5.5731528968,2.1166440129,-9.5862355793
 N,0,-7.1157826802,-1.3462773771,-9.2287012066
 C,0,-8.3956662688,-1.8468802105,-9.720771578
 C,0,-9.3780329558,-2.1510048922,-8.5718296493
 O,0,-9.9233897848,-3.2567434434,-8.5322402452
 C,0,-8.1526248584,-3.0988772794,-10.6069367966
 C,0,-6.9372247076,-2.8914909643,-11.4825769636
 C,0,-6.9900518874,-2.0570693407,-12.605635927
 C,0,-5.6982352635,-3.4282566127,-11.1020415567
 C,0,-5.8321718909,-1.7537379025,-13.324775921
 C,0,-4.5373788917,-3.1282061384,-11.8183513938
 C,0,-4.6007357765,-2.2825683942,-12.9294225132
 H,0,-6.548367012,-2.0145732838,-8.7165998746
 H,0,-8.8193611109,-1.0386862799,-10.3247627126
 H,0,-8.017426717,-3.9660426764,-9.9545687079
 H,0,-9.0571981314,-3.2870713296,-11.1927625547
 H,0,-7.9419745777,-1.629976241,-12.9122472794
 H,0,-5.6450728703,-4.0822504115,-10.2334164863
 H,0,-5.8922404041,-1.1065041953,-14.1952011606
 H,0,-3.5877503802,-3.5641217325,-11.5184758641
 H,0,-3.7012524432,-2.0522770771,-13.4934207496
 N,0,-9.6648292842,-1.1805809332,-7.6544261007
 C,0,-8.9257721962,0.0510321938,-7.4048903349
 C,0,-7.598576244,-0.1726923539,-6.6423467872
 O,0,-6.6644925843,0.6485221084,-6.758680784
 C,0,-9.7977490918,1.1088011471,-6.7036553835
 C,0,-10.2909426512,0.6873969535,-5.3169002565
 N,0,-10.9346430593,1.6535845363,-4.6157451777
 O,0,-10.1156066713,-0.4452072391,-4.8785047334
 H,0,-10.2979618493,-1.4901642604,-6.9113856426
 H,0,-8.6344936411,0.4942050623,-8.3591422612
 H,0,-10.6618983302,1.3281112757,-7.3426216924
 H,0,-9.2143797412,2.0336382553,-6.6231830522
 H,0,-11.325254739,1.4132027742,-3.7145352386
 H,0,-11.1139879948,2.5747549781,-4.9873017762
 N,0,-7.5143306396,-1.2790247998,-5.8932712653
 C,0,-6.2923087107,-1.7245146162,-5.267856383
 C,0,-5.587219507,-2.743289237,-6.1837001089
 O,0,-6.0461426312,-3.1943265134,-7.2101892252
 C,0,-6.4932987408,-2.2506694706,-3.8156287351
 C,0,-7.8092740056,-2.9912782885,-3.5128987942
 C,0,-8.2091508692,-4.1264756389,-4.4806054806
 N,0,-9.1748981459,-3.6463405426,-5.4860994174
 C,0,-10.5168951867,-3.5398868875,-5.0473038533
 N,0,-10.775476983,-3.6637591051,-3.8009520163
 N,0,-11.3968768787,-3.1895212892,-6.0720690798
 O,0,-4.3193395722,-3.0683541086,-5.8324588287
 H,0,-4.0878481977,-2.6864812796,-4.9672906249
 H,0,-8.3224153527,-1.9153673122,-5.8246938986
 H,0,-5.6203773436,-0.8582098955,-5.2249782399
 H,0,-5.6437455014,-2.9022187675,-3.5652345973
 H,0,-6.4255077554,-1.3896026504,-3.1428279781
 H,0,-7.718922032,-3.3966035256,-2.4996900065
 H,0,-8.6326033126,-2.2741462465,-3.4718417042
 H,0,-7.3422683596,-4.5141905452,-5.0277104748
 H,0,-8.6423134657,-4.9535627196,-3.9101756553
 H,0,-9.0906719785,-4.1009025722,-6.3914659865
 H,0,-11.7608919934,-3.4883248968,-3.603246954
 H,0,-12.3732799594,-3.3313981288,-5.8448292277
 H,0,-11.1499549925,-3.5014696177,-7.0108643821
 Recover connectivity data from disk.
                           ----------------------------
                           !    Current Parameters    !
                           ! (Angstroms and Degrees)  !
 --------------------------                            --------------------------
 ! Name  Definition              Value                                          !
 --------------------------------------------------------------------------------
 ! R1    R(1,2)                  1.5091                                         !
 ! R2    R(1,9)                  1.0432                                         !
 ! R3    R(1,15)                 1.0403                                         !
 ! R4    R(1,16)                 1.0258                                         !
 ! R5    R(2,3)                  1.5359                                         !
 ! R6    R(2,5)                  1.5223                                         !
 ! R7    R(2,10)                 1.0943                                         !
 ! R8    R(3,4)                  1.2325                                         !
 ! R9    R(3,17)                 1.344                                          !
 ! R10   R(5,6)                  1.5281                                         !
 ! R11   R(5,11)                 1.0915                                         !
 ! R12   R(5,12)                 1.0934                                         !
 ! R13   R(6,7)                  1.3476                                         !
 ! R14   R(6,8)                  1.2357                                         !
 ! R15   R(7,13)                 1.012                                          !
 ! R16   R(7,14)                 1.0115                                         !
 ! R17   R(17,18)                1.4597                                         !
 ! R18   R(17,28)                1.0153                                         !
 ! R19   R(18,19)                1.5419                                         !
 ! R20   R(18,21)                1.553                                          !
 ! R21   R(18,29)                1.0943                                         !
 ! R22   R(19,20)                1.2335                                         !
 ! R23   R(19,37)                1.3659                                         !
 ! R24   R(21,22)                1.5123                                         !
 ! R25   R(21,30)                1.0935                                         !
 ! R26   R(21,31)                1.094                                          !
 ! R27   R(22,23)                1.4001                                         !
 ! R28   R(22,24)                1.4029                                         !
 ! R29   R(23,25)                1.3964                                         !
 ! R30   R(23,32)                1.0875                                         !
 ! R31   R(24,26)                1.3967                                         !
 ! R32   R(24,33)                1.0886                                         !
 ! R33   R(25,27)                1.3973                                         !
 ! R34   R(25,34)                1.0864                                         !
 ! R35   R(26,27)                1.3977                                         !
 ! R36   R(26,35)                1.0871                                         !
 ! R37   R(27,36)                1.0864                                         !
 ! R38   R(37,38)                1.4579                                         !
 ! R39   R(37,45)                1.0241                                         !
 ! R40   R(38,39)                1.5469                                         !
 ! R41   R(38,41)                1.5398                                         !
 ! R42   R(38,46)                1.0917                                         !
 ! R43   R(39,40)                1.2492                                         !
 ! R44   R(39,51)                1.3387                                         !
 ! R45   R(41,42)                1.531                                          !
 ! R46   R(41,47)                1.0969                                         !
 ! R47   R(41,48)                1.0964                                         !
 ! R48   R(42,43)                1.3563                                         !
 ! R49   R(42,44)                1.2271                                         !
 ! R50   R(43,49)                1.0112                                         !
 ! R51   R(43,50)                1.0093                                         !
 ! R52   R(51,52)                1.4432                                         !
 ! R53   R(51,64)                1.0308                                         !
 ! R54   R(52,53)                1.5407                                         !
 ! R55   R(52,55)                1.5576                                         !
 ! R56   R(52,65)                1.0972                                         !
 ! R57   R(53,54)                1.2115                                         !
 ! R58   R(53,62)                1.3552                                         !
 ! R59   R(55,56)                1.5401                                         !
 ! R60   R(55,66)                1.0995                                         !
 ! R61   R(55,67)                1.0948                                         !
 ! R62   R(56,57)                1.5444                                         !
 ! R63   R(56,68)                1.095                                          !
 ! R64   R(56,69)                1.0926                                         !
 ! R65   R(57,58)                1.4745                                         !
 ! R66   R(57,70)                1.096                                          !
 ! R67   R(57,71)                1.0941                                         !
 ! R68   R(58,59)                1.4159                                         !
 ! R69   R(58,72)                1.0166                                         !
 ! R70   R(59,60)                1.2789                                         !
 ! R71   R(59,61)                1.3954                                         !
 ! R72   R(60,73)                1.0202                                         !
 ! R73   R(61,74)                1.0125                                         !
 ! R74   R(61,75)                1.0196                                         !
 ! R75   R(62,63)                0.9736                                         !
 ! A1    A(2,1,9)              107.1569                                         !
 ! A2    A(2,1,15)             106.7503                                         !
 ! A3    A(2,1,16)             108.8132                                         !
 ! A4    A(9,1,15)             112.0649                                         !
 ! A5    A(9,1,16)             108.3668                                         !
 ! A6    A(15,1,16)            113.4544                                         !
 ! A7    A(1,2,3)              104.1559                                         !
 ! A8    A(1,2,5)              109.2648                                         !
 ! A9    A(1,2,10)             106.9379                                         !
 ! A10   A(3,2,5)              118.5646                                         !
 ! A11   A(3,2,10)             106.7366                                         !
 ! A12   A(5,2,10)             110.473                                          !
 ! A13   A(2,3,4)              116.575                                          !
 ! A14   A(2,3,17)             118.7065                                         !
 ! A15   A(4,3,17)             124.654                                          !
 ! A16   A(2,5,6)              112.6825                                         !
 ! A17   A(2,5,11)             108.4277                                         !
 ! A18   A(2,5,12)             109.2516                                         !
 ! A19   A(6,5,11)             107.4874                                         !
 ! A20   A(6,5,12)             110.6816                                         !
 ! A21   A(11,5,12)            108.1732                                         !
 ! A22   A(5,6,7)              115.1086                                         !
 ! A23   A(5,6,8)              121.6965                                         !
 ! A24   A(7,6,8)              123.1491                                         !
 ! A25   A(6,7,13)             118.7937                                         !
 ! A26   A(6,7,14)             122.1635                                         !
 ! A27   A(13,7,14)            119.0262                                         !
 ! A28   A(3,17,18)            121.2389                                         !
 ! A29   A(3,17,28)            121.121                                          !
 ! A30   A(18,17,28)           115.7409                                         !
 ! A31   A(17,18,19)           112.028                                          !
 ! A32   A(17,18,21)           109.3661                                         !
 ! A33   A(17,18,29)           105.7986                                         !
 ! A34   A(19,18,21)           111.4613                                         !
 ! A35   A(19,18,29)           108.0749                                         !
 ! A36   A(21,18,29)           109.9406                                         !
 ! A37   A(18,19,20)           118.8406                                         !
 ! A38   A(18,19,37)           119.6113                                         !
 ! A39   A(20,19,37)           121.4988                                         !
 ! A40   A(18,21,22)           110.2195                                         !
 ! A41   A(18,21,30)           108.5557                                         !
 ! A42   A(18,21,31)           108.3508                                         !
 ! A43   A(22,21,30)           110.7817                                         !
 ! A44   A(22,21,31)           112.2135                                         !
 ! A45   A(30,21,31)           106.5746                                         !
 ! A46   A(21,22,23)           121.0545                                         !
 ! A47   A(21,22,24)           120.0183                                         !
 ! A48   A(23,22,24)           118.6158                                         !
 ! A49   A(22,23,25)           120.7486                                         !
 ! A50   A(22,23,32)           119.5544                                         !
 ! A51   A(25,23,32)           119.6917                                         !
 ! A52   A(22,24,26)           120.847                                          !
 ! A53   A(22,24,33)           119.3039                                         !
 ! A54   A(26,24,33)           119.8483                                         !
 ! A55   A(23,25,27)           120.1889                                         !
 ! A56   A(23,25,34)           119.7498                                         !
 ! A57   A(27,25,34)           120.0611                                         !
 ! A58   A(24,26,27)           119.9993                                         !
 ! A59   A(24,26,35)           119.8968                                         !
 ! A60   A(27,26,35)           120.0986                                         !
 ! A61   A(25,27,26)           119.5938                                         !
 ! A62   A(25,27,36)           120.1705                                         !
 ! A63   A(26,27,36)           120.226                                          !
 ! A64   A(19,37,38)           127.4986                                         !
 ! A65   A(19,37,45)           113.7257                                         !
 ! A66   A(38,37,45)           116.3978                                         !
 ! A67   A(37,38,39)           113.3991                                         !
 ! A68   A(37,38,41)           111.7907                                         !
 ! A69   A(37,38,46)           109.1831                                         !
 ! A70   A(39,38,41)           111.1444                                         !
 ! A71   A(39,38,46)           105.11                                           !
 ! A72   A(41,38,46)           105.6818                                         !
 ! A73   A(38,39,40)           120.0372                                         !
 ! A74   A(38,39,51)           116.7009                                         !
 ! A75   A(40,39,51)           123.2531                                         !
 ! A76   A(38,41,42)           113.9444                                         !
 ! A77   A(38,41,47)           108.5544                                         !
 ! A78   A(38,41,48)           108.154                                          !
 ! A79   A(42,41,47)           109.2019                                         !
 ! A80   A(42,41,48)           109.7002                                         !
 ! A81   A(47,41,48)           107.0547                                         !
 ! A82   A(41,42,43)           115.1555                                         !
 ! A83   A(41,42,44)           122.1162                                         !
 ! A84   A(43,42,44)           122.7282                                         !
 ! A85   A(42,43,49)           118.3413                                         !
 ! A86   A(42,43,50)           122.9684                                         !
 ! A87   A(49,43,50)           118.4498                                         !
 ! A88   A(39,51,52)           123.4252                                         !
 ! A89   A(39,51,64)           119.8702                                         !
 ! A90   A(52,51,64)           116.3835                                         !
 ! A91   A(51,52,53)           109.5121                                         !
 ! A92   A(51,52,55)           113.5174                                         !
 ! A93   A(51,52,65)           106.9633                                         !
 ! A94   A(53,52,55)           112.948                                          !
 ! A95   A(53,52,65)           105.3703                                         !
 ! A96   A(55,52,65)           108.017                                          !
 ! A97   A(52,53,54)           125.2027                                         !
 ! A98   A(52,53,62)           115.6386                                         !
 ! A99   A(54,53,62)           118.9928                                         !
 ! A100  A(52,55,56)           117.1266                                         !
 ! A101  A(52,55,66)           108.2272                                         !
 ! A102  A(52,55,67)           107.4143                                         !
 ! A103  A(56,55,66)           109.2985                                         !
 ! A104  A(56,55,67)           108.0782                                         !
 ! A105  A(66,55,67)           106.1562                                         !
 ! A106  A(55,56,57)           116.8435                                         !
 ! A107  A(55,56,68)           106.8207                                         !
 ! A108  A(55,56,69)           109.6112                                         !
 ! A109  A(57,56,68)           109.2127                                         !
 ! A110  A(57,56,69)           108.1125                                         !
 ! A111  A(68,56,69)           105.6853                                         !
 ! A112  A(56,57,58)           110.9484                                         !
 ! A113  A(56,57,70)           111.5947                                         !
 ! A114  A(56,57,71)           109.3589                                         !
 ! A115  A(58,57,70)           107.028                                          !
 ! A116  A(58,57,71)           110.0216                                         !
 ! A117  A(70,57,71)           107.8175                                         !
 ! A118  A(57,58,59)           115.7164                                         !
 ! A119  A(57,58,72)           114.0448                                         !
 ! A120  A(59,58,72)           112.8393                                         !
 ! A121  A(58,59,60)           119.1019                                         !
 ! A122  A(58,59,61)           112.8912                                         !
 ! A123  A(60,59,61)           127.7696                                         !
 ! A124  A(59,60,73)           111.5603                                         !
 ! A125  A(59,61,74)           114.0877                                         !
 ! A126  A(59,61,75)           116.5271                                         !
 ! A127  A(74,61,75)           113.4105                                         !
 ! A128  A(53,62,63)           111.0189                                         !
 ! D1    D(9,1,2,3)             61.7749                                         !
 ! D2    D(9,1,2,5)            -65.8527                                         !
 ! D3    D(9,1,2,10)           174.5596                                         !
 ! D4    D(15,1,2,3)          -177.9939                                         !
 ! D5    D(15,1,2,5)            54.3785                                         !
 ! D6    D(15,1,2,10)          -65.2092                                         !
 ! D7    D(16,1,2,3)           -55.1978                                         !
 ! D8    D(16,1,2,5)           177.1746                                         !
 ! D9    D(16,1,2,10)           57.5869                                         !
 ! D10   D(1,2,3,4)             45.7739                                         !
 ! D11   D(1,2,3,17)          -131.4436                                         !
 ! D12   D(5,2,3,4)            167.4245                                         !
 ! D13   D(5,2,3,17)            -9.793                                          !
 ! D14   D(10,2,3,4)           -67.1554                                         !
 ! D15   D(10,2,3,17)          115.6271                                         !
 ! D16   D(1,2,5,6)            -58.6259                                         !
 ! D17   D(1,2,5,11)            60.226                                          !
 ! D18   D(1,2,5,12)           177.9095                                         !
 ! D19   D(3,2,5,6)           -177.6547                                         !
 ! D20   D(3,2,5,11)           -58.8028                                         !
 ! D21   D(3,2,5,12)            58.8807                                         !
 ! D22   D(10,2,5,6)            58.7554                                         !
 ! D23   D(10,2,5,11)          177.6073                                         !
 ! D24   D(10,2,5,12)          -64.7092                                         !
 ! D25   D(2,3,17,18)         -164.8072                                         !
 ! D26   D(2,3,17,28)           -1.1614                                         !
 ! D27   D(4,3,17,18)           18.2182                                         !
 ! D28   D(4,3,17,28)         -178.136                                          !
 ! D29   D(2,5,6,7)           -162.2099                                         !
 ! D30   D(2,5,6,8)             20.1774                                         !
 ! D31   D(11,5,6,7)            78.3912                                         !
 ! D32   D(11,5,6,8)           -99.2214                                         !
 ! D33   D(12,5,6,7)           -39.5434                                         !
 ! D34   D(12,5,6,8)           142.844                                          !
 ! D35   D(5,6,7,13)          -177.7782                                         !
 ! D36   D(5,6,7,14)             0.7189                                         !
 ! D37   D(8,6,7,13)            -0.2043                                         !
 ! D38   D(8,6,7,14)           178.2927                                         !
 ! D39   D(3,17,18,19)        -127.4991                                         !
 ! D40   D(3,17,18,21)         108.4059                                         !
 ! D41   D(3,17,18,29)          -9.9628                                         !
 ! D42   D(28,17,18,19)         68.0228                                         !
 ! D43   D(28,17,18,21)        -56.0723                                         !
 ! D44   D(28,17,18,29)       -174.441                                          !
 ! D45   D(17,18,19,20)       -128.3026                                         !
 ! D46   D(17,18,19,37)         54.2132                                         !
 ! D47   D(21,18,19,20)         -5.3855                                         !
 ! D48   D(21,18,19,37)        177.1304                                         !
 ! D49   D(29,18,19,20)        115.5305                                         !
 ! D50   D(29,18,19,37)        -61.9537                                         !
 ! D51   D(17,18,21,22)        -40.704                                          !
 ! D52   D(17,18,21,30)         80.7946                                         !
 ! D53   D(17,18,21,31)       -163.841                                          !
 ! D54   D(19,18,21,22)       -165.1309                                         !
 ! D55   D(19,18,21,30)        -43.6323                                         !
 ! D56   D(19,18,21,31)         71.7321                                         !
 ! D57   D(29,18,21,22)         75.0501                                         !
 ! D58   D(29,18,21,30)       -163.4513                                         !
 ! D59   D(29,18,21,31)        -48.0869                                         !
 ! D60   D(18,19,37,38)        -16.0561                                         !
 ! D61   D(18,19,37,45)       -177.7437                                         !
 ! D62   D(20,19,37,38)        166.5286                                         !
 ! D63   D(20,19,37,45)          4.841                                          !
 ! D64   D(18,21,22,23)        -75.0822                                         !
 ! D65   D(18,21,22,24)         98.4211                                         !
 ! D66   D(30,21,22,23)        164.7523                                         !
 ! D67   D(30,21,22,24)        -21.7444                                         !
 ! D68   D(31,21,22,23)         45.7693                                         !
 ! D69   D(31,21,22,24)       -140.7275                                         !
 ! D70   D(21,22,23,25)        172.9492                                         !
 ! D71   D(21,22,23,32)         -6.203                                          !
 ! D72   D(24,22,23,25)         -0.6431                                         !
 ! D73   D(24,22,23,32)       -179.7953                                         !
 ! D74   D(21,22,24,26)       -173.0392                                         !
 ! D75   D(21,22,24,33)          6.6301                                         !
 ! D76   D(23,22,24,26)          0.6214                                         !
 ! D77   D(23,22,24,33)       -179.7094                                         !
 ! D78   D(22,23,25,27)          0.0003                                         !
 ! D79   D(22,23,25,34)        179.8456                                         !
 ! D80   D(32,23,25,27)        179.1513                                         !
 ! D81   D(32,23,25,34)         -1.0034                                         !
 ! D82   D(22,24,26,27)          0.0441                                         !
 ! D83   D(22,24,26,35)       -179.1178                                         !
 ! D84   D(33,24,26,27)       -179.6234                                         !
 ! D85   D(33,24,26,35)          1.2147                                         !
 ! D86   D(23,25,27,26)          0.6746                                         !
 ! D87   D(23,25,27,36)        179.5496                                         !
 ! D88   D(34,25,27,26)       -179.1702                                         !
 ! D89   D(34,25,27,36)         -0.2952                                         !
 ! D90   D(24,26,27,25)         -0.6955                                         !
 ! D91   D(24,26,27,36)       -179.5698                                         !
 ! D92   D(35,26,27,25)        178.4647                                         !
 ! D93   D(35,26,27,36)         -0.4096                                         !
 ! D94   D(19,37,38,39)        -74.5832                                         !
 ! D95   D(19,37,38,41)        158.8127                                         !
 ! D96   D(19,37,38,46)         42.2424                                         !
 ! D97   D(45,37,38,39)         86.6857                                         !
 ! D98   D(45,37,38,41)        -39.9184                                         !
 ! D99   D(45,37,38,46)       -156.4887                                         !
 ! D100  D(37,38,39,40)        154.9423                                         !
 ! D101  D(37,38,39,51)        -24.0144                                         !
 ! D102  D(41,38,39,40)        -78.1135                                         !
 ! D103  D(41,38,39,51)        102.9298                                         !
 ! D104  D(46,38,39,40)         35.7533                                         !
 ! D105  D(46,38,39,51)       -143.2034                                         !
 ! D106  D(37,38,41,42)         62.5301                                         !
 ! D107  D(37,38,41,47)        -59.3842                                         !
 ! D108  D(37,38,41,48)       -175.2095                                         !
 ! D109  D(39,38,41,42)        -65.2902                                         !
 ! D110  D(39,38,41,47)        172.7955                                         !
 ! D111  D(39,38,41,48)         56.9702                                         !
 ! D112  D(46,38,41,42)       -178.7981                                         !
 ! D113  D(46,38,41,47)         59.2877                                         !
 ! D114  D(46,38,41,48)        -56.5376                                         !
 ! D115  D(38,39,51,52)        171.3831                                         !
 ! D116  D(38,39,51,64)         -1.8693                                         !
 ! D117  D(40,39,51,52)         -7.5369                                         !
 ! D118  D(40,39,51,64)        179.2108                                         !
 ! D119  D(38,41,42,43)        172.982                                          !
 ! D120  D(38,41,42,44)         -7.1591                                         !
 ! D121  D(47,41,42,43)        -65.4618                                         !
 ! D122  D(47,41,42,44)        114.3972                                         !
 ! D123  D(48,41,42,43)         51.5756                                         !
 ! D124  D(48,41,42,44)       -128.5655                                         !
 ! D125  D(41,42,43,49)        176.6986                                         !
 ! D126  D(41,42,43,50)          2.4267                                         !
 ! D127  D(44,42,43,49)         -3.1593                                         !
 ! D128  D(44,42,43,50)       -177.4313                                         !
 ! D129  D(39,51,52,53)        -94.2758                                         !
 ! D130  D(39,51,52,55)        138.4717                                         !
 ! D131  D(39,51,52,65)         19.4329                                         !
 ! D132  D(64,51,52,53)         79.1935                                         !
 ! D133  D(64,51,52,55)        -48.0589                                         !
 ! D134  D(64,51,52,65)       -167.0977                                         !
 ! D135  D(51,52,53,54)         -6.3039                                         !
 ! D136  D(51,52,53,62)        168.945                                          !
 ! D137  D(55,52,53,54)        121.2681                                         !
 ! D138  D(55,52,53,62)        -63.483                                          !
 ! D139  D(65,52,53,54)       -121.0392                                         !
 ! D140  D(65,52,53,62)         54.2097                                         !
 ! D141  D(51,52,55,56)         34.5901                                         !
 ! D142  D(51,52,55,66)        158.6225                                         !
 ! D143  D(51,52,55,67)        -87.1526                                         !
 ! D144  D(53,52,55,56)        -90.8479                                         !
 ! D145  D(53,52,55,66)         33.1845                                         !
 ! D146  D(53,52,55,67)        147.4094                                         !
 ! D147  D(65,52,55,56)        153.0233                                         !
 ! D148  D(65,52,55,66)        -82.9443                                         !
 ! D149  D(65,52,55,67)         31.2806                                         !
 ! D150  D(52,53,62,63)          7.7086                                         !
 ! D151  D(54,53,62,63)       -176.7292                                         !
 ! D152  D(52,55,56,57)         50.1926                                         !
 ! D153  D(52,55,56,68)        172.7606                                         !
 ! D154  D(52,55,56,69)        -73.1887                                         !
 ! D155  D(66,55,56,57)        -73.2954                                         !
 ! D156  D(66,55,56,68)         49.2726                                         !
 ! D157  D(66,55,56,69)        163.3233                                         !
 ! D158  D(67,55,56,57)        171.5895                                         !
 ! D159  D(67,55,56,68)        -65.8425                                         !
 ! D160  D(67,55,56,69)         48.2082                                         !
 ! D161  D(55,56,57,58)        -97.4174                                         !
 ! D162  D(55,56,57,70)         21.8422                                         !
 ! D163  D(55,56,57,71)        141.0434                                         !
 ! D164  D(68,56,57,58)        141.2625                                         !
 ! D165  D(68,56,57,70)        -99.4779                                         !
 ! D166  D(68,56,57,71)         19.7232                                         !
 ! D167  D(69,56,57,58)         26.7297                                         !
 ! D168  D(69,56,57,70)        145.9893                                         !
 ! D169  D(69,56,57,71)        -94.8095                                         !
 ! D170  D(56,57,58,59)        -79.0949                                         !
 ! D171  D(56,57,58,72)        147.5406                                         !
 ! D172  D(70,57,58,59)        158.94                                           !
 ! D173  D(70,57,58,72)         25.5755                                         !
 ! D174  D(71,57,58,59)         42.055                                          !
 ! D175  D(71,57,58,72)        -91.3096                                         !
 ! D176  D(57,58,59,60)         10.2255                                         !
 ! D177  D(57,58,59,61)       -174.9398                                         !
 ! D178  D(72,58,59,60)        144.1382                                         !
 ! D179  D(72,58,59,61)        -41.0271                                         !
 ! D180  D(58,59,60,73)        175.1272                                         !
 ! D181  D(61,59,60,73)          1.1498                                         !
 ! D182  D(58,59,61,74)        165.5103                                         !
 ! D183  D(58,59,61,75)         30.3092                                         !
 ! D184  D(60,59,61,74)        -20.2008                                         !
 ! D185  D(60,59,61,75)       -155.4019                                         !
 --------------------------------------------------------------------------------
 Symmetry turned off by external request.
 Stoichiometry    C23H36N9O7(1+)
 Framework group  C1[X(C23H36N9O7)]
 Deg. of freedom   219
 Full point group                 C1      NOp   1
                          Input orientation:                          
 ---------------------------------------------------------------------
 Center     Atomic      Atomic             Coordinates (Angstroms)
 Number     Number       Type             X           Y           Z
 ---------------------------------------------------------------------
      1          7           0       -5.106979    1.513047   -8.900163
      2          6           0       -5.107745    0.095891   -9.418782
      3          6           0       -6.588751   -0.201754   -9.696230
      4          8           0       -7.223090    0.668329  -10.295972
      5          6           0       -4.356562   -0.797093   -8.441211
      6          6           0       -2.912750   -0.347223   -8.222119
      7          7           0       -2.099516   -1.277129   -7.683748
      8          8           0       -2.544721    0.803509   -8.481806
      9          1           0       -5.668893    1.519402   -8.021264
     10          1           0       -4.602214    0.111265  -10.389236
     11          1           0       -4.863474   -0.754533   -7.475551
     12          1           0       -4.389226   -1.830025   -8.798275
     13          1           0       -1.139427   -1.027722   -7.483089
     14          1           0       -2.423287   -2.207442   -7.453734
     15          1           0       -4.113212    1.769686   -8.730511
     16          1           0       -5.573153    2.116644   -9.586236
     17          7           0       -7.115783   -1.346277   -9.228701
     18          6           0       -8.395666   -1.846880   -9.720772
     19          6           0       -9.378033   -2.151005   -8.571830
     20          8           0       -9.923390   -3.256743   -8.532240
     21          6           0       -8.152625   -3.098877  -10.606937
     22          6           0       -6.937225   -2.891491  -11.482577
     23          6           0       -6.990052   -2.057069  -12.605636
     24          6           0       -5.698235   -3.428257  -11.102042
     25          6           0       -5.832172   -1.753738  -13.324776
     26          6           0       -4.537379   -3.128206  -11.818351
     27          6           0       -4.600736   -2.282568  -12.929423
     28          1           0       -6.548367   -2.014573   -8.716600
     29          1           0       -8.819361   -1.038686  -10.324763
     30          1           0       -8.017427   -3.966043   -9.954569
     31          1           0       -9.057198   -3.287071  -11.192763
     32          1           0       -7.941975   -1.629976  -12.912247
     33          1           0       -5.645073   -4.082250  -10.233416
     34          1           0       -5.892240   -1.106504  -14.195201
     35          1           0       -3.587750   -3.564122  -11.518476
     36          1           0       -3.701252   -2.052277  -13.493421
     37          7           0       -9.664829   -1.180581   -7.654426
     38          6           0       -8.925772    0.051032   -7.404890
     39          6           0       -7.598576   -0.172692   -6.642347
     40          8           0       -6.664493    0.648522   -6.758681
     41          6           0       -9.797749    1.108801   -6.703655
     42          6           0      -10.290943    0.687397   -5.316900
     43          7           0      -10.934643    1.653585   -4.615745
     44          8           0      -10.115607   -0.445207   -4.878505
     45          1           0      -10.297962   -1.490164   -6.911386
     46          1           0       -8.634494    0.494205   -8.359142
     47          1           0      -10.661898    1.328111   -7.342622
     48          1           0       -9.214380    2.033638   -6.623183
     49          1           0      -11.325255    1.413203   -3.714535
     50          1           0      -11.113988    2.574755   -4.987302
     51          7           0       -7.514331   -1.279025   -5.893271
     52          6           0       -6.292309   -1.724515   -5.267856
     53          6           0       -5.587220   -2.743289   -6.183700
     54          8           0       -6.046143   -3.194327   -7.210189
     55          6           0       -6.493299   -2.250669   -3.815629
     56          6           0       -7.809274   -2.991278   -3.512899
     57          6           0       -8.209151   -4.126476   -4.480605
     58          7           0       -9.174898   -3.646341   -5.486099
     59          6           0      -10.516895   -3.539887   -5.047304
     60          7           0      -10.775477   -3.663759   -3.800952
     61          7           0      -11.396877   -3.189521   -6.072069
     62          8           0       -4.319340   -3.068354   -5.832459
     63          1           0       -4.087848   -2.686481   -4.967291
     64          1           0       -8.322415   -1.915367   -5.824694
     65          1           0       -5.620377   -0.858210   -5.224978
     66          1           0       -5.643746   -2.902219   -3.565235
     67          1           0       -6.425508   -1.389603   -3.142828
     68          1           0       -7.718922   -3.396604   -2.499690
     69          1           0       -8.632603   -2.274146   -3.471842
     70          1           0       -7.342268   -4.514191   -5.027710
     71          1           0       -8.642313   -4.953563   -3.910176
     72          1           0       -9.090672   -4.100903   -6.391466
     73          1           0      -11.760892   -3.488325   -3.603247
     74          1           0      -12.373280   -3.331398   -5.844829
     75          1           0      -11.149955   -3.501470   -7.010864
 ---------------------------------------------------------------------
 Rotational constants (GHZ):           0.1377686           0.0771702           0.0706918
 Standard basis: 6-31G(d) (6D, 7F)
   657 basis functions,  1236 primitive gaussians,   657 cartesian basis functions
   146 alpha electrons      146 beta electrons
       nuclear repulsion energy      5203.5897224015 Hartrees.
 NAtoms=   75 NActive=   75 NUniq=   75 SFac= 1.00D+00 NAtFMM=   60 NAOKFM=T Big=T
 Integral buffers will be    131072 words long.
 Raffenetti 2 integral format.
 Two-electron integral symmetry is turned off.
 Nuclear repulsion after empirical dispersion term =     5203.4645936857 Hartrees.
 One-electron integrals computed using PRISM.
 NBasis=   657 RedAO= T EigKep=  4.68D-04  NBF=   657
 NBsUse=   657 1.00D-06 EigRej= -1.00D+00 NBFU=   657
 Initial guess from the checkpoint file:  "conf-234.chk"
 B after Tr=     0.000000    0.000000    0.000000
         Rot=    1.000000    0.000000    0.000000    0.000000 Ang=   0.00 deg.
 Requested convergence on RMS density matrix=1.00D-08 within 128 cycles.
 Requested convergence on MAX density matrix=1.00D-06.
 Requested convergence on             energy=1.00D-06.
 No special actions if energy rises.
 SCF Done:  E(RB3LYP) =  -1917.48955326     A.U. after    1 cycles
            NFock=  1  Conv=0.49D-09     -V/T= 2.0093

 **********************************************************************

            Population analysis using the SCF Density.

 **********************************************************************

 Alpha  occ. eigenvalues --  -19.33044 -19.27095 -19.25066 -19.24397 -19.24256
 Alpha  occ. eigenvalues --  -19.22472 -19.21571 -14.55935 -14.48478 -14.48074
 Alpha  occ. eigenvalues --  -14.46922 -14.45929 -14.45605 -14.42901 -14.41602
 Alpha  occ. eigenvalues --  -14.35720 -10.45139 -10.42673 -10.41717 -10.40965
 Alpha  occ. eigenvalues --  -10.39761 -10.39382 -10.38705 -10.36195 -10.35343
 Alpha  occ. eigenvalues --  -10.35007 -10.34106 -10.33538 -10.31112 -10.30422
 Alpha  occ. eigenvalues --  -10.29751 -10.28308 -10.28205 -10.27698 -10.27519
 Alpha  occ. eigenvalues --  -10.27434 -10.27375 -10.27287 -10.26730  -1.23443
 Alpha  occ. eigenvalues --   -1.17119  -1.16482  -1.15629  -1.15068  -1.14157
 Alpha  occ. eigenvalues --   -1.13428  -1.10841  -1.05255  -1.05067  -1.04391
 Alpha  occ. eigenvalues --   -1.03503  -1.02374  -1.00435  -0.96166  -0.94157
 Alpha  occ. eigenvalues --   -0.92483  -0.91369  -0.90581  -0.88712  -0.87952
 Alpha  occ. eigenvalues --   -0.83734  -0.83521  -0.82869  -0.81151  -0.78844
 Alpha  occ. eigenvalues --   -0.77062  -0.75684  -0.74651  -0.73042  -0.72263
 Alpha  occ. eigenvalues --   -0.71299  -0.71184  -0.69581  -0.69186  -0.69083
 Alpha  occ. eigenvalues --   -0.68536  -0.68416  -0.67094  -0.66977  -0.66325
 Alpha  occ. eigenvalues --   -0.64878  -0.64249  -0.63648  -0.62879  -0.62211
 Alpha  occ. eigenvalues --   -0.61310  -0.60869  -0.60161  -0.59503  -0.59220
 Alpha  occ. eigenvalues --   -0.59013  -0.58602  -0.58140  -0.57344  -0.56919
 Alpha  occ. eigenvalues --   -0.56201  -0.55707  -0.55276  -0.54977  -0.54664
 Alpha  occ. eigenvalues --   -0.54173  -0.54058  -0.53731  -0.53555  -0.53116
 Alpha  occ. eigenvalues --   -0.52834  -0.52500  -0.51885  -0.51484  -0.51179
 Alpha  occ. eigenvalues --   -0.51015  -0.50661  -0.50368  -0.50149  -0.49501
 Alpha  occ. eigenvalues --   -0.48761  -0.48683  -0.48526  -0.47792  -0.47490
 Alpha  occ. eigenvalues --   -0.46630  -0.45755  -0.45707  -0.45077  -0.44210
 Alpha  occ. eigenvalues --   -0.44051  -0.43157  -0.42419  -0.42346  -0.42257
 Alpha  occ. eigenvalues --   -0.40623  -0.40019  -0.39797  -0.39342  -0.38546
 Alpha  occ. eigenvalues --   -0.38350  -0.37750  -0.36684  -0.35971  -0.35659
 Alpha  occ. eigenvalues --   -0.34729  -0.34174  -0.33522  -0.33030  -0.32879
 Alpha  occ. eigenvalues --   -0.30544
 Alpha virt. eigenvalues --   -0.13173  -0.11740  -0.10224  -0.10202  -0.09147
 Alpha virt. eigenvalues --   -0.08828  -0.08727  -0.07300  -0.06891  -0.04811
 Alpha virt. eigenvalues --   -0.02295  -0.02167  -0.01831  -0.01581  -0.00757
 Alpha virt. eigenvalues --   -0.00160   0.00385   0.00941   0.01314   0.01660
 Alpha virt. eigenvalues --    0.01949   0.02191   0.02464   0.03651   0.03900
 Alpha virt. eigenvalues --    0.04383   0.04620   0.04859   0.05148   0.05578
 Alpha virt. eigenvalues --    0.05892   0.06025   0.06410   0.06852   0.07127
 Alpha virt. eigenvalues --    0.07691   0.07706   0.08154   0.08245   0.08461
 Alpha virt. eigenvalues --    0.09406   0.09628   0.09654   0.09989   0.10035
 Alpha virt. eigenvalues --    0.10844   0.10944   0.11435   0.11652   0.12036
 Alpha virt. eigenvalues --    0.12851   0.12931   0.13314   0.13409   0.14245
 Alpha virt. eigenvalues --    0.14626   0.15353   0.15743   0.16635   0.16920
 Alpha virt. eigenvalues --    0.17683   0.17833   0.18849   0.19187   0.21079
 Alpha virt. eigenvalues --    0.21832   0.22255   0.22684   0.23621   0.23977
 Alpha virt. eigenvalues --    0.24186   0.24603   0.25438   0.26114   0.26459
 Alpha virt. eigenvalues --    0.26910   0.27669   0.28106   0.29392   0.30854
 Alpha virt. eigenvalues --    0.32841   0.33676   0.35081   0.36453   0.37004
 Alpha virt. eigenvalues --    0.37635   0.37847   0.38720   0.40119   0.41073
 Alpha virt. eigenvalues --    0.41480   0.42108   0.43279   0.44085   0.44214
 Alpha virt. eigenvalues --    0.44846   0.45097   0.45595   0.45941   0.46590
 Alpha virt. eigenvalues --    0.47017   0.47425   0.47673   0.48231   0.48738
 Alpha virt. eigenvalues --    0.48767   0.49173   0.49601   0.49823   0.50343
 Alpha virt. eigenvalues --    0.50845   0.50921   0.51537   0.51773   0.51949
 Alpha virt. eigenvalues --    0.52245   0.52563   0.52982   0.53456   0.53495
 Alpha virt. eigenvalues --    0.53630   0.54043   0.54176   0.54824   0.55231
 Alpha virt. eigenvalues --    0.55567   0.56162   0.56292   0.56520   0.57312
 Alpha virt. eigenvalues --    0.57799   0.58036   0.58492   0.59156   0.60009
 Alpha virt. eigenvalues --    0.60231   0.60745   0.61233   0.61430   0.61994
 Alpha virt. eigenvalues --    0.62602   0.63722   0.64399   0.64910   0.65211
 Alpha virt. eigenvalues --    0.65934   0.66201   0.66552   0.67369   0.68237
 Alpha virt. eigenvalues --    0.68396   0.69119   0.69203   0.70155   0.70877
 Alpha virt. eigenvalues --    0.71723   0.71962   0.72400   0.72790   0.73277
 Alpha virt. eigenvalues --    0.73561   0.74051   0.74628   0.74756   0.75403
 Alpha virt. eigenvalues --    0.75566   0.75595   0.76116   0.76603   0.76788
 Alpha virt. eigenvalues --    0.76979   0.77489   0.77848   0.78378   0.78598
 Alpha virt. eigenvalues --    0.78787   0.79307   0.79448   0.79901   0.80169
 Alpha virt. eigenvalues --    0.80679   0.81354   0.81668   0.82257   0.82581
 Alpha virt. eigenvalues --    0.82676   0.83188   0.83760   0.84125   0.84193
 Alpha virt. eigenvalues --    0.85295   0.85487   0.85695   0.86030   0.86510
 Alpha virt. eigenvalues --    0.87480   0.87636   0.88004   0.88565   0.88863
 Alpha virt. eigenvalues --    0.89672   0.90026   0.90272   0.91489   0.92126
 Alpha virt. eigenvalues --    0.92431   0.93556   0.94206   0.94325   0.95087
 Alpha virt. eigenvalues --    0.95658   0.96798   0.97197   0.97595   0.98292
 Alpha virt. eigenvalues --    0.98914   1.00000   1.00506   1.00791   1.01681
 Alpha virt. eigenvalues --    1.02751   1.03824   1.05145   1.06025   1.06501
 Alpha virt. eigenvalues --    1.07207   1.07767   1.08034   1.08854   1.08956
 Alpha virt. eigenvalues --    1.09333   1.10439   1.11300   1.12268   1.12964
 Alpha virt. eigenvalues --    1.13627   1.14276   1.14484   1.15445   1.15835
 Alpha virt. eigenvalues --    1.16850   1.17647   1.17895   1.18738   1.20527
 Alpha virt. eigenvalues --    1.20874   1.21152   1.22345   1.24453   1.24901
 Alpha virt. eigenvalues --    1.25508   1.26262   1.26858   1.27644   1.28110
 Alpha virt. eigenvalues --    1.29465   1.29719   1.30353   1.30747   1.31932
 Alpha virt. eigenvalues --    1.32325   1.33214   1.33560   1.34947   1.35990
 Alpha virt. eigenvalues --    1.36394   1.36524   1.37196   1.38144   1.39032
 Alpha virt. eigenvalues --    1.39803   1.40166   1.40649   1.41998   1.42665
 Alpha virt. eigenvalues --    1.43325   1.45062   1.45357   1.46560   1.47249
 Alpha virt. eigenvalues --    1.49224   1.49746   1.50728   1.51320   1.51808
 Alpha virt. eigenvalues --    1.52468   1.53449   1.54399   1.54908   1.55490
 Alpha virt. eigenvalues --    1.56787   1.57039   1.58142   1.58731   1.59595
 Alpha virt. eigenvalues --    1.60343   1.61393   1.62150   1.62346   1.63145
 Alpha virt. eigenvalues --    1.63411   1.64680   1.65104   1.66852   1.67308
 Alpha virt. eigenvalues --    1.68332   1.68678   1.68818   1.69077   1.69206
 Alpha virt. eigenvalues --    1.69815   1.70623   1.71916   1.71983   1.72970
 Alpha virt. eigenvalues --    1.73432   1.73613   1.73927   1.74327   1.74722
 Alpha virt. eigenvalues --    1.75472   1.76223   1.76941   1.77520   1.77641
 Alpha virt. eigenvalues --    1.78006   1.78572   1.78792   1.79859   1.80592
 Alpha virt. eigenvalues --    1.81478   1.82106   1.82607   1.82774   1.83091
 Alpha virt. eigenvalues --    1.83470   1.84344   1.84857   1.85664   1.86485
 Alpha virt. eigenvalues --    1.87045   1.87527   1.88023   1.88813   1.89712
 Alpha virt. eigenvalues --    1.89792   1.90511   1.91067   1.92063   1.92837
 Alpha virt. eigenvalues --    1.93285   1.94011   1.94562   1.95416   1.96633
 Alpha virt. eigenvalues --    1.97081   1.97435   1.98212   1.98723   1.98988
 Alpha virt. eigenvalues --    1.99311   2.00189   2.00746   2.01963   2.02406
 Alpha virt. eigenvalues --    2.03196   2.03925   2.04668   2.05556   2.06347
 Alpha virt. eigenvalues --    2.06831   2.07292   2.07708   2.08821   2.10189
 Alpha virt. eigenvalues --    2.10350   2.12035   2.12817   2.13635   2.14793
 Alpha virt. eigenvalues --    2.15068   2.15413   2.15584   2.16538   2.18567
 Alpha virt. eigenvalues --    2.19098   2.19366   2.20376   2.21388   2.21937
 Alpha virt. eigenvalues --    2.22575   2.22701   2.23262   2.24838   2.25515
 Alpha virt. eigenvalues --    2.26406   2.27835   2.29505   2.30220   2.31312
 Alpha virt. eigenvalues --    2.31869   2.32019   2.32952   2.33868   2.34328
 Alpha virt. eigenvalues --    2.35177   2.35973   2.36316   2.37029   2.38389
 Alpha virt. eigenvalues --    2.38972   2.39788   2.41092   2.42506   2.43334
 Alpha virt. eigenvalues --    2.43769   2.44869   2.45432   2.47569   2.48783
 Alpha virt. eigenvalues --    2.49609   2.49855   2.50133   2.50432   2.51309
 Alpha virt. eigenvalues --    2.51449   2.52172   2.52718   2.54071   2.54246
 Alpha virt. eigenvalues --    2.54994   2.55366   2.57210   2.58449   2.58973
 Alpha virt. eigenvalues --    2.60671   2.62058   2.62978   2.64056   2.64475
 Alpha virt. eigenvalues --    2.65065   2.65925   2.66698   2.66809   2.67307
 Alpha virt. eigenvalues --    2.68149   2.69307   2.71944   2.75048   2.76116
 Alpha virt. eigenvalues --    2.76831   2.78714   2.80893   2.82849   2.86639
 Alpha virt. eigenvalues --    2.88456   2.88999   2.89682   2.91734   2.93501
 Alpha virt. eigenvalues --    2.94125   2.94765   2.95398   2.96896   2.97456
 Alpha virt. eigenvalues --    2.97793   2.98779   3.01446   3.05035   3.07581
 Alpha virt. eigenvalues --    3.09495   3.32473   3.69566   3.71476   3.72162
 Alpha virt. eigenvalues --    3.76336   3.83911   3.88043   3.93788   3.95903
 Alpha virt. eigenvalues --    3.98269   3.99867   4.00586   4.02276   4.03190
 Alpha virt. eigenvalues --    4.04996   4.07606   4.09119   4.11429   4.13400
 Alpha virt. eigenvalues --    4.16729   4.18052   4.19025   4.20796   4.22809
 Alpha virt. eigenvalues --    4.26034   4.29872   4.31721   4.34364   4.36390
 Alpha virt. eigenvalues --    4.41832   4.42568   4.43955   4.44967   4.50075
 Alpha virt. eigenvalues --    4.52774   4.54406   4.57890   4.63124   4.67152
 Alpha virt. eigenvalues --    4.68895
          Condensed to atoms (all electrons):
 Mulliken charges:
               1
     1  N   -0.761156
     2  C   -0.111547
     3  C    0.655777
     4  O   -0.543922
     5  C   -0.439931
     6  C    0.638881
     7  N   -0.746654
     8  O   -0.533078
     9  H    0.434382
    10  H    0.239104
    11  H    0.208405
    12  H    0.213095
    13  H    0.371783
    14  H    0.371002
    15  H    0.428834
    16  H    0.409759
    17  N   -0.648443
    18  C   -0.075691
    19  C    0.631132
    20  O   -0.532010
    21  C   -0.367772
    22  C    0.162836
    23  C   -0.173426
    24  C   -0.212084
    25  C   -0.132616
    26  C   -0.144371
    27  C   -0.140263
    28  H    0.414853
    29  H    0.214805
    30  H    0.179213
    31  H    0.185006
    32  H    0.142471
    33  H    0.143239
    34  H    0.151866
    35  H    0.140268
    36  H    0.148935
    37  N   -0.650429
    38  C   -0.058617
    39  C    0.654198
    40  O   -0.617916
    41  C   -0.394435
    42  C    0.602853
    43  N   -0.743098
    44  O   -0.503737
    45  H    0.409297
    46  H    0.198007
    47  H    0.201654
    48  H    0.189221
    49  H    0.362358
    50  H    0.353200
    51  N   -0.596173
    52  C   -0.106922
    53  C    0.628854
    54  O   -0.479670
    55  C   -0.301952
    56  C   -0.284748
    57  C   -0.142552
    58  N   -0.661814
    59  C    0.607338
    60  N   -0.633750
    61  N   -0.807291
    62  O   -0.570023
    63  H    0.433140
    64  H    0.445827
    65  H    0.193120
    66  H    0.136003
    67  H    0.177596
    68  H    0.166675
    69  H    0.215906
    70  H    0.140176
    71  H    0.192333
    72  H    0.342660
    73  H    0.280609
    74  H    0.330993
    75  H    0.368426
 Sum of Mulliken charges =   1.00000
 Mulliken charges with hydrogens summed into heavy atoms:
               1
     1  N    0.511819
     2  C    0.127557
     3  C    0.655777
     4  O   -0.543922
     5  C   -0.018431
     6  C    0.638881
     7  N   -0.003870
     8  O   -0.533078
    17  N   -0.233590
    18  C    0.139115
    19  C    0.631132
    20  O   -0.532010
    21  C   -0.003553
    22  C    0.162836
    23  C   -0.030955
    24  C   -0.068845
    25  C    0.019250
    26  C   -0.004103
    27  C    0.008673
    37  N   -0.241132
    38  C    0.139390
    39  C    0.654198
    40  O   -0.617916
    41  C   -0.003561
    42  C    0.602853
    43  N   -0.027540
    44  O   -0.503737
    51  N   -0.150347
    52  C    0.086198
    53  C    0.628854
    54  O   -0.479670
    55  C    0.011648
    56  C    0.097833
    57  C    0.189957
    58  N   -0.319154
    59  C    0.607338
    60  N   -0.353141
    61  N   -0.107871
    62  O   -0.136883
 Electronic spatial extent (au):  <R**2>=         135896.8934
 Charge=              1.0000 electrons
 Dipole moment (field-independent basis, Debye):
    X=            -30.4996    Y=             -0.8071    Z=            -34.8403  Tot=             46.3112
 Quadrupole moment (field-independent basis, Debye-Ang):
   XX=             36.6195   YY=           -203.1548   ZZ=             57.3869
   XY=            -15.9487   XZ=            211.8425   YZ=              5.2886
 Traceless Quadrupole moment (field-independent basis, Debye-Ang):
   XX=             73.0023   YY=           -166.7720   ZZ=             93.7697
   XY=            -15.9487   XZ=            211.8425   YZ=              5.2886
 Octapole moment (field-independent basis, Debye-Ang**2):
  XXX=           2174.1390  YYY=           1068.0769  ZZZ=           2687.9304  XYY=           1460.0478
  XXY=            534.3497  XXZ=             39.9789  XZZ=             -6.3789  YZZ=            324.0165
  YYZ=           1613.0694  XYZ=             66.5783
 Hexadecapole moment (field-independent basis, Debye-Ang**3):
 XXXX=         -47624.0635 YYYY=          -7192.9024 ZZZZ=         -65746.3701 XXXY=          -9382.6897
 XXXZ=         -19493.6845 YYYX=          -8014.8572 YYYZ=          -8244.4518 ZZZX=         -21981.5603
 ZZZY=          -7903.4000 XXYY=         -12669.2512 XXZZ=         -16113.3932 YYZZ=         -15696.8471
 XXYZ=          -3188.9769 YYXZ=         -11045.1172 ZZXY=          -3036.9212
 N-N= 5.203464593686D+03 E-N=-1.484721942898D+04  KE= 1.899793650883D+03
 Unable to Open any file for archive entry.
 1\1\GINC-AMR-135\SP\RB3LYP\6-31G(d)\C23H36N9O7(1+)\KENGMITH\06-Jun-202
 2\0\\# B3LYP/6-31G* empiricaldispersion=gd3 guess=read geom=check nosy
 mm integral(ultrafinegrid)\\Candidate Structure: Conf:234 Charge calc 
 in gas phase\\1,1\N,0,-5.1069789121,1.513047303,-8.9001632762\C,0,-5.1
 077446162,0.0958914636,-9.4187815664\C,0,-6.5887511464,-0.2017542952,-
 9.6962302917\O,0,-7.2230898867,0.6683293351,-10.295971931\C,0,-4.35656
 22886,-0.7970925667,-8.4412106738\C,0,-2.9127499387,-0.3472232373,-8.2
 22119488\N,0,-2.0995160978,-1.2771291432,-7.6837482624\O,0,-2.54472085
 73,0.8035094631,-8.4818064729\H,0,-5.6688929144,1.5194016601,-8.021264
 4953\H,0,-4.6022144195,0.1112653877,-10.3892361944\H,0,-4.8634736336,-
 0.7545325742,-7.4755509509\H,0,-4.389226499,-1.8300249898,-8.798275174
 8\H,0,-1.1394274239,-1.0277219249,-7.483089427\H,0,-2.423287349,-2.207
 4416524,-7.4537337444\H,0,-4.1132124244,1.7696860376,-8.7305111417\H,0
 ,-5.5731528968,2.1166440129,-9.5862355793\N,0,-7.1157826802,-1.3462773
 771,-9.2287012066\C,0,-8.3956662688,-1.8468802105,-9.720771578\C,0,-9.
 3780329558,-2.1510048922,-8.5718296493\O,0,-9.9233897848,-3.2567434434
 ,-8.5322402452\C,0,-8.1526248584,-3.0988772794,-10.6069367966\C,0,-6.9
 372247076,-2.8914909643,-11.4825769636\C,0,-6.9900518874,-2.0570693407
 ,-12.605635927\C,0,-5.6982352635,-3.4282566127,-11.1020415567\C,0,-5.8
 321718909,-1.7537379025,-13.324775921\C,0,-4.5373788917,-3.1282061384,
 -11.8183513938\C,0,-4.6007357765,-2.2825683942,-12.9294225132\H,0,-6.5
 48367012,-2.0145732838,-8.7165998746\H,0,-8.8193611109,-1.0386862799,-
 10.3247627126\H,0,-8.017426717,-3.9660426764,-9.9545687079\H,0,-9.0571
 981314,-3.2870713296,-11.1927625547\H,0,-7.9419745777,-1.629976241,-12
 .9122472794\H,0,-5.6450728703,-4.0822504115,-10.2334164863\H,0,-5.8922
 404041,-1.1065041953,-14.1952011606\H,0,-3.5877503802,-3.5641217325,-1
 1.5184758641\H,0,-3.7012524432,-2.0522770771,-13.4934207496\N,0,-9.664
 8292842,-1.1805809332,-7.6544261007\C,0,-8.9257721962,0.0510321938,-7.
 4048903349\C,0,-7.598576244,-0.1726923539,-6.6423467872\O,0,-6.6644925
 843,0.6485221084,-6.758680784\C,0,-9.7977490918,1.1088011471,-6.703655
 3835\C,0,-10.2909426512,0.6873969535,-5.3169002565\N,0,-10.9346430593,
 1.6535845363,-4.6157451777\O,0,-10.1156066713,-0.4452072391,-4.8785047
 334\H,0,-10.2979618493,-1.4901642604,-6.9113856426\H,0,-8.6344936411,0
 .4942050623,-8.3591422612\H,0,-10.6618983302,1.3281112757,-7.342621692
 4\H,0,-9.2143797412,2.0336382553,-6.6231830522\H,0,-11.325254739,1.413
 2027742,-3.7145352386\H,0,-11.1139879948,2.5747549781,-4.9873017762\N,
 0,-7.5143306396,-1.2790247998,-5.8932712653\C,0,-6.2923087107,-1.72451
 46162,-5.267856383\C,0,-5.587219507,-2.743289237,-6.1837001089\O,0,-6.
 0461426312,-3.1943265134,-7.2101892252\C,0,-6.4932987408,-2.2506694706
 ,-3.8156287351\C,0,-7.8092740056,-2.9912782885,-3.5128987942\C,0,-8.20
 91508692,-4.1264756389,-4.4806054806\N,0,-9.1748981459,-3.6463405426,-
 5.4860994174\C,0,-10.5168951867,-3.5398868875,-5.0473038533\N,0,-10.77
 5476983,-3.6637591051,-3.8009520163\N,0,-11.3968768787,-3.1895212892,-
 6.0720690798\O,0,-4.3193395722,-3.0683541086,-5.8324588287\H,0,-4.0878
 481977,-2.6864812796,-4.9672906249\H,0,-8.3224153527,-1.9153673122,-5.
 8246938986\H,0,-5.6203773436,-0.8582098955,-5.2249782399\H,0,-5.643745
 5014,-2.9022187675,-3.5652345973\H,0,-6.4255077554,-1.3896026504,-3.14
 28279781\H,0,-7.718922032,-3.3966035256,-2.4996900065\H,0,-8.632603312
 6,-2.2741462465,-3.4718417042\H,0,-7.3422683596,-4.5141905452,-5.02771
 04748\H,0,-8.6423134657,-4.9535627196,-3.9101756553\H,0,-9.0906719785,
 -4.1009025722,-6.3914659865\H,0,-11.7608919934,-3.4883248968,-3.603246
 954\H,0,-12.3732799594,-3.3313981288,-5.8448292277\H,0,-11.1499549925,
 -3.5014696177,-7.0108643821\\Version=ES64L-G16RevC.01\HF=-1917.4895533
 \RMSD=4.881e-10\Dipole=1.6560429,2.5409612,0.8305469\Quadrupole=54.275
 3969,-123.9908754,69.7154785,-11.8574518,157.4997123,3.9319605\PG=C01 
 [X(C23H36N9O7)]\\@
 The archive entry for this job was punched.


 Any fool can criticize, condemn, and complain -- and most do.
 -- Dale Carnegie
 Job cpu time:       0 days  0 hours  2 minutes 16.9 seconds.
 Elapsed time:       0 days  0 hours  0 minutes 35.0 seconds.
 File lengths (MBytes):  RWF=    344 Int=      0 D2E=      0 Chk=     48 Scr=     16
 Normal termination of Gaussian 16 at Mon Jun  6 02:41:33 2022.
