 Entering Gaussian System, Link 0=/opt/software/Gaussian/g16-AVX2-C.01/g16/g16
 Input=charge-conf-962.com
 Output=charge-conf-962.log
 Initial command:
 /opt/software/Gaussian/g16-AVX2-C.01/g16/l1.exe "/mnt/gs18/scratch/users/kengmith/Gau-104070.inp" -scrdir="/mnt/gs18/scratch/users/kengmith/"
 Entering Link 1 = /opt/software/Gaussian/g16-AVX2-C.01/g16/l1.exe PID=    104080.
  
 Copyright (c) 1988-2019, Gaussian, Inc.  All Rights Reserved.
  
 This is part of the Gaussian(R) 16 program.  It is based on
 the Gaussian(R) 09 system (copyright 2009, Gaussian, Inc.),
 the Gaussian(R) 03 system (copyright 2003, Gaussian, Inc.),
 the Gaussian(R) 98 system (copyright 1998, Gaussian, Inc.),
 the Gaussian(R) 94 system (copyright 1995, Gaussian, Inc.),
 the Gaussian 92(TM) system (copyright 1992, Gaussian, Inc.),
 the Gaussian 90(TM) system (copyright 1990, Gaussian, Inc.),
 the Gaussian 88(TM) system (copyright 1988, Gaussian, Inc.),
 the Gaussian 86(TM) system (copyright 1986, Carnegie Mellon
 University), and the Gaussian 82(TM) system (copyright 1983,
 Carnegie Mellon University). Gaussian is a federally registered
 trademark of Gaussian, Inc.
  
 This software contains proprietary and confidential information,
 including trade secrets, belonging to Gaussian, Inc.
  
 This software is provided under written license and may be
 used, copied, transmitted, or stored only in accord with that
 written license.
  
 The following legend is applicable only to US Government
 contracts under FAR:
  
                    RESTRICTED RIGHTS LEGEND
  
 Use, reproduction and disclosure by the US Government is
 subject to restrictions as set forth in subparagraphs (a)
 and (c) of the Commercial Computer Software - Restricted
 Rights clause in FAR 52.227-19.
  
 Gaussian, Inc.
 340 Quinnipiac St., Bldg. 40, Wallingford CT 06492
  
  
 ---------------------------------------------------------------
 Warning -- This program may not be used in any manner that
 competes with the business of Gaussian, Inc. or will provide
 assistance to any competitor of Gaussian, Inc.  The licensee
 of this program is prohibited from giving any competitor of
 Gaussian, Inc. access to this program.  By using this program,
 the user acknowledges that Gaussian, Inc. is engaged in the
 business of creating and licensing software in the field of
 computational chemistry and represents and warrants to the
 licensee that it is not a competitor of Gaussian, Inc. and that
 it will not use this program in any manner prohibited above.
 ---------------------------------------------------------------
  

 Cite this work as:
 Gaussian 16, Revision C.01,
 M. J. Frisch, G. W. Trucks, H. B. Schlegel, G. E. Scuseria, 
 M. A. Robb, J. R. Cheeseman, G. Scalmani, V. Barone, 
 G. A. Petersson, H. Nakatsuji, X. Li, M. Caricato, A. V. Marenich, 
 J. Bloino, B. G. Janesko, R. Gomperts, B. Mennucci, H. P. Hratchian, 
 J. V. Ortiz, A. F. Izmaylov, J. L. Sonnenberg, D. Williams-Young, 
 F. Ding, F. Lipparini, F. Egidi, J. Goings, B. Peng, A. Petrone, 
 T. Henderson, D. Ranasinghe, V. G. Zakrzewski, J. Gao, N. Rega, 
 G. Zheng, W. Liang, M. Hada, M. Ehara, K. Toyota, R. Fukuda, 
 J. Hasegawa, M. Ishida, T. Nakajima, Y. Honda, O. Kitao, H. Nakai, 
 T. Vreven, K. Throssell, J. A. Montgomery, Jr., J. E. Peralta, 
 F. Ogliaro, M. J. Bearpark, J. J. Heyd, E. N. Brothers, K. N. Kudin, 
 V. N. Staroverov, T. A. Keith, R. Kobayashi, J. Normand, 
 K. Raghavachari, A. P. Rendell, J. C. Burant, S. S. Iyengar, 
 J. Tomasi, M. Cossi, J. M. Millam, M. Klene, C. Adamo, R. Cammi, 
 J. W. Ochterski, R. L. Martin, K. Morokuma, O. Farkas, 
 J. B. Foresman, and D. J. Fox, Gaussian, Inc., Wallingford CT, 2019.
 
 ******************************************
 Gaussian 16:  ES64L-G16RevC.01  3-Jul-2019
                 6-Jun-2022 
 ******************************************
 %mem=8gb
 %nproc=4
 Will use up to    4 processors via shared memory.
 %chk=conf-962.chk
 ----------------------------------------------------------------------
 # B3LYP/6-31G* empiricaldispersion=gd3 guess=read geom=check nosymm in
 tegral(ultrafinegrid)
 ----------------------------------------------------------------------
 1/29=2,38=1,172=1/1;
 2/12=2,15=1,40=1/2;
 3/5=1,6=6,7=1,11=2,14=-4,25=1,30=1,74=-5,75=-5,116=-2,124=31/1,2,3;
 4/5=1/1;
 5/5=2,38=6/2;
 6/7=2,8=2,9=2,10=2,28=1/1;
 99/5=1,9=1/99;
 ------------------------------------------------------
 Candidate Structure: Conf:962 Charge calc in gas phase
 ------------------------------------------------------
 Structure from the checkpoint file:  "conf-962.chk"
 Charge =  1 Multiplicity = 1
 Redundant internal coordinates found in file.  (old form).
 N,0,-5.5680725603,1.6123180502,-9.3580816744
 C,0,-5.8345833945,1.2920138874,-7.9065492765
 C,0,-5.1390889519,-0.0616955307,-7.6877994837
 O,0,-3.9775880641,-0.1446075494,-8.0948940221
 C,0,-7.3259363049,1.4195463843,-7.6346949806
 C,0,-7.8578368985,2.8176726954,-7.9414369612
 N,0,-9.0565051292,3.1059785548,-7.3965891026
 O,0,-7.2444880749,3.6030586673,-8.6731704004
 H,0,-6.0383552374,0.8719816508,-9.9260750042
 H,0,-5.2757034072,2.0246421054,-7.3167893071
 H,0,-7.859754783,0.7193343021,-8.2789643494
 H,0,-7.5283621836,1.1439412645,-6.5963438755
 H,0,-9.486600255,3.9968601646,-7.6093123712
 H,0,-9.5735188332,2.4314742598,-6.8485441709
 H,0,-5.9732710509,2.5543041294,-9.5332274689
 H,0,-4.5568633022,1.5672847656,-9.5251420991
 N,0,-5.8274846258,-1.07750354,-7.1396862317
 C,0,-5.1404117985,-2.250719656,-6.6025179858
 C,0,-5.5460293128,-3.5802346865,-7.269820583
 O,0,-5.6593590463,-4.5938665869,-6.5794540288
 C,0,-5.3659324788,-2.3027916415,-5.0676835437
 C,0,-5.1982661899,-0.9255422393,-4.4662887812
 C,0,-3.9290544401,-0.3562125757,-4.3068438216
 C,0,-6.326795119,-0.1454201042,-4.1732982931
 C,0,-3.7881612925,0.9645635897,-3.8761781265
 C,0,-6.190273519,1.1758836522,-3.7413907437
 C,0,-4.9185991644,1.7370001981,-3.5976647745
 H,0,-6.7983289864,-0.960107264,-6.860080774
 H,0,-4.0776502559,-2.0957520147,-6.8159513827
 H,0,-6.3753822044,-2.6796791498,-4.8776573248
 H,0,-4.6666122696,-3.0289510839,-4.644639272
 H,0,-3.0440729638,-0.9475248395,-4.5307885438
 H,0,-7.3185972471,-0.5765124467,-4.2959889098
 H,0,-2.7956129739,1.3893752524,-3.7552238056
 H,0,-7.074561409,1.7629768587,-3.5059302911
 H,0,-4.8084104679,2.7626206179,-3.2568500065
 N,0,-5.7221519922,-3.6475220991,-8.6196452521
 C,0,-5.7810368552,-2.5870138237,-9.6111016568
 C,0,-7.0913791332,-1.7760005033,-9.594664129
 O,0,-7.0915493811,-0.6073186406,-10.0469317725
 C,0,-5.5437259022,-3.1521774675,-11.0309003238
 C,0,-6.5687389583,-4.2109694851,-11.4418157526
 N,0,-6.9942618695,-4.1590536989,-12.7293357262
 O,0,-6.9760199063,-5.0569365539,-10.6483430368
 H,0,-6.0536147573,-4.549478246,-8.9604215796
 H,0,-4.9798833931,-1.8684662341,-9.429679766
 H,0,-4.5531050215,-3.6218504995,-11.0517405242
 H,0,-5.5290260451,-2.3112835898,-11.7314491807
 H,0,-7.5745429145,-4.9170341927,-13.0653052347
 H,0,-6.5868058931,-3.5359755908,-13.4108258918
 N,0,-8.1893156891,-2.3765494219,-9.119391147
 C,0,-9.4477604817,-1.6677322557,-9.0079169156
 C,0,-9.5526029117,-0.9903591812,-7.6326665688
 O,0,-8.7634124055,-1.1111605857,-6.7235547385
 C,0,-10.6770913605,-2.5593470826,-9.404917332
 C,0,-11.7096287612,-2.9789215556,-8.3377464677
 C,0,-11.3121568641,-4.1317403935,-7.4044781798
 N,0,-10.2622293105,-3.826089292,-6.4445891829
 C,0,-9.007107161,-4.3816878917,-6.5153053277
 N,0,-8.5360690671,-4.7499721754,-7.6681245279
 N,0,-8.3289732484,-4.4191986978,-5.3095567376
 O,0,-10.5691233696,-0.1011231158,-7.4968769383
 H,0,-11.1478809849,-0.1118244272,-8.2793860246
 H,0,-8.1798312212,-3.3407052535,-8.7051104594
 H,0,-9.3893597917,-0.8362236791,-9.721194858
 H,0,-11.2153315644,-2.0260270859,-10.1968523594
 H,0,-10.2651956051,-3.4588971845,-9.8726732573
 H,0,-12.0337545228,-2.1215494369,-7.7337675422
 H,0,-12.6035907344,-3.3085020864,-8.8825438027
 H,0,-12.2072155299,-4.4493369527,-6.8541770612
 H,0,-10.9652591852,-4.9815616327,-7.9982343397
 H,0,-10.5180498207,-3.3687633335,-5.5815375679
 H,0,-7.6846454593,-5.2939433101,-7.5421036727
 H,0,-7.3781963146,-4.7712428628,-5.3665797004
 H,0,-8.8459097271,-4.7188038828,-4.4916985423
 Recover connectivity data from disk.
                           ----------------------------
                           !    Current Parameters    !
                           ! (Angstroms and Degrees)  !
 --------------------------                            --------------------------
 ! Name  Definition              Value                                          !
 --------------------------------------------------------------------------------
 ! R1    R(1,2)                  1.5102                                         !
 ! R2    R(1,9)                  1.0449                                         !
 ! R3    R(1,15)                 1.0403                                         !
 ! R4    R(1,16)                 1.0259                                         !
 ! R5    R(2,3)                  1.5376                                         !
 ! R6    R(2,5)                  1.5213                                         !
 ! R7    R(2,10)                 1.094                                          !
 ! R8    R(3,4)                  1.2336                                         !
 ! R9    R(3,17)                 1.3439                                         !
 ! R10   R(5,6)                  1.527                                          !
 ! R11   R(5,11)                 1.091                                          !
 ! R12   R(5,12)                 1.0932                                         !
 ! R13   R(6,7)                  1.3479                                         !
 ! R14   R(6,8)                  1.2363                                         !
 ! R15   R(7,13)                 1.0119                                         !
 ! R16   R(7,14)                 1.0112                                         !
 ! R17   R(17,18)                1.4619                                         !
 ! R18   R(17,28)                1.0171                                         !
 ! R19   R(18,19)                1.5419                                         !
 ! R20   R(18,21)                1.5522                                         !
 ! R21   R(18,29)                1.095                                          !
 ! R22   R(19,20)                1.2316                                         !
 ! R23   R(19,37)                1.3629                                         !
 ! R24   R(21,22)                1.5122                                         !
 ! R25   R(21,30)                1.0941                                         !
 ! R26   R(21,31)                1.0933                                         !
 ! R27   R(22,23)                1.4002                                         !
 ! R28   R(22,24)                1.4029                                         !
 ! R29   R(23,25)                1.3963                                         !
 ! R30   R(23,32)                1.0877                                         !
 ! R31   R(24,26)                1.3968                                         !
 ! R32   R(24,33)                1.0884                                         !
 ! R33   R(25,27)                1.3972                                         !
 ! R34   R(25,34)                1.0864                                         !
 ! R35   R(26,27)                1.3974                                         !
 ! R36   R(26,35)                1.0872                                         !
 ! R37   R(27,36)                1.0864                                         !
 ! R38   R(37,38)                1.453                                          !
 ! R39   R(37,45)                1.0196                                         !
 ! R40   R(38,39)                1.5411                                         !
 ! R41   R(38,41)                1.5465                                         !
 ! R42   R(38,46)                1.0914                                         !
 ! R43   R(39,40)                1.2531                                         !
 ! R44   R(39,51)                1.3387                                         !
 ! R45   R(41,42)                1.5299                                         !
 ! R46   R(41,47)                1.0965                                         !
 ! R47   R(41,48)                1.0946                                         !
 ! R48   R(42,43)                1.357                                          !
 ! R49   R(42,44)                1.2293                                         !
 ! R50   R(43,49)                1.012                                          !
 ! R51   R(43,50)                1.0093                                         !
 ! R52   R(51,52)                1.4486                                         !
 ! R53   R(51,64)                1.0494                                         !
 ! R54   R(52,53)                1.5366                                         !
 ! R55   R(52,55)                1.5697                                         !
 ! R56   R(52,65)                1.0971                                         !
 ! R57   R(53,54)                1.2099                                         !
 ! R58   R(53,62)                1.3574                                         !
 ! R59   R(55,56)                1.5431                                         !
 ! R60   R(55,66)                1.096                                          !
 ! R61   R(55,67)                1.0944                                         !
 ! R62   R(56,57)                1.5356                                         !
 ! R63   R(56,68)                1.0977                                         !
 ! R64   R(56,69)                1.0975                                         !
 ! R65   R(57,58)                1.455                                          !
 ! R66   R(57,70)                1.0976                                         !
 ! R67   R(57,71)                1.0932                                         !
 ! R68   R(58,59)                1.3744                                         !
 ! R69   R(58,72)                1.0097                                         !
 ! R70   R(59,60)                1.2987                                         !
 ! R71   R(59,61)                1.3839                                         !
 ! R72   R(60,73)                1.0182                                         !
 ! R73   R(61,74)                1.0155                                         !
 ! R74   R(61,75)                1.0129                                         !
 ! R75   R(62,63)                0.9733                                         !
 ! A1    A(2,1,9)              107.0238                                         !
 ! A2    A(2,1,15)             106.5675                                         !
 ! A3    A(2,1,16)             108.7332                                         !
 ! A4    A(9,1,15)             112.0079                                         !
 ! A5    A(9,1,16)             108.9048                                         !
 ! A6    A(15,1,16)            113.3445                                         !
 ! A7    A(1,2,3)              104.1026                                         !
 ! A8    A(1,2,5)              109.0862                                         !
 ! A9    A(1,2,10)             106.616                                          !
 ! A10   A(3,2,5)              119.4603                                         !
 ! A11   A(3,2,10)             106.3687                                         !
 ! A12   A(5,2,10)             110.3847                                         !
 ! A13   A(2,3,4)              115.985                                          !
 ! A14   A(2,3,17)             119.4583                                         !
 ! A15   A(4,3,17)             124.4778                                         !
 ! A16   A(2,5,6)              112.4783                                         !
 ! A17   A(2,5,11)             108.6826                                         !
 ! A18   A(2,5,12)             109.2762                                         !
 ! A19   A(6,5,11)             107.3718                                         !
 ! A20   A(6,5,12)             110.9238                                         !
 ! A21   A(11,5,12)            107.968                                          !
 ! A22   A(5,6,7)              115.1133                                         !
 ! A23   A(5,6,8)              121.8523                                         !
 ! A24   A(7,6,8)              122.9946                                         !
 ! A25   A(6,7,13)             118.7724                                         !
 ! A26   A(6,7,14)             122.0777                                         !
 ! A27   A(13,7,14)            118.9383                                         !
 ! A28   A(3,17,18)            121.0455                                         !
 ! A29   A(3,17,28)            120.9173                                         !
 ! A30   A(18,17,28)           116.1191                                         !
 ! A31   A(17,18,19)           114.1633                                         !
 ! A32   A(17,18,21)           108.7828                                         !
 ! A33   A(17,18,29)           105.7212                                         !
 ! A34   A(19,18,21)           111.149                                          !
 ! A35   A(19,18,29)           107.0372                                         !
 ! A36   A(21,18,29)           109.7854                                         !
 ! A37   A(18,19,20)           119.4236                                         !
 ! A38   A(18,19,37)           120.3436                                         !
 ! A39   A(20,19,37)           120.1736                                         !
 ! A40   A(18,21,22)           110.2793                                         !
 ! A41   A(18,21,30)           108.5019                                         !
 ! A42   A(18,21,31)           108.1775                                         !
 ! A43   A(22,21,30)           110.3011                                         !
 ! A44   A(22,21,31)           112.3412                                         !
 ! A45   A(30,21,31)           107.1059                                         !
 ! A46   A(21,22,23)           121.0737                                         !
 ! A47   A(21,22,24)           120.0231                                         !
 ! A48   A(23,22,24)           118.6405                                         !
 ! A49   A(22,23,25)           120.7437                                         !
 ! A50   A(22,23,32)           119.5416                                         !
 ! A51   A(25,23,32)           119.712                                          !
 ! A52   A(22,24,26)           120.7968                                         !
 ! A53   A(22,24,33)           119.2921                                         !
 ! A54   A(26,24,33)           119.9078                                         !
 ! A55   A(23,25,27)           120.1839                                         !
 ! A56   A(23,25,34)           119.7616                                         !
 ! A57   A(27,25,34)           120.0542                                         !
 ! A58   A(24,26,27)           120.0397                                         !
 ! A59   A(24,26,35)           119.8859                                         !
 ! A60   A(27,26,35)           120.0704                                         !
 ! A61   A(25,27,26)           119.5907                                         !
 ! A62   A(25,27,36)           120.1597                                         !
 ! A63   A(26,27,36)           120.243                                          !
 ! A64   A(19,37,38)           130.1661                                         !
 ! A65   A(19,37,45)           114.6269                                         !
 ! A66   A(38,37,45)           113.8564                                         !
 ! A67   A(37,38,39)           114.2857                                         !
 ! A68   A(37,38,41)           110.7023                                         !
 ! A69   A(37,38,46)           109.7169                                         !
 ! A70   A(39,38,41)           109.4261                                         !
 ! A71   A(39,38,46)           106.0161                                         !
 ! A72   A(41,38,46)           106.2951                                         !
 ! A73   A(38,39,40)           119.147                                          !
 ! A74   A(38,39,51)           117.7143                                         !
 ! A75   A(40,39,51)           123.1209                                         !
 ! A76   A(38,41,42)           113.3721                                         !
 ! A77   A(38,41,47)           108.2171                                         !
 ! A78   A(38,41,48)           107.9931                                         !
 ! A79   A(42,41,47)           107.6828                                         !
 ! A80   A(42,41,48)           111.6399                                         !
 ! A81   A(47,41,48)           107.744                                          !
 ! A82   A(41,42,43)           116.0053                                         !
 ! A83   A(41,42,44)           121.6602                                         !
 ! A84   A(43,42,44)           122.3343                                         !
 ! A85   A(42,43,49)           117.7838                                         !
 ! A86   A(42,43,50)           122.5248                                         !
 ! A87   A(49,43,50)           118.0153                                         !
 ! A88   A(39,51,52)           121.3529                                         !
 ! A89   A(39,51,64)           123.0183                                         !
 ! A90   A(52,51,64)           115.2781                                         !
 ! A91   A(51,52,53)           110.111                                          !
 ! A92   A(51,52,55)           112.5171                                         !
 ! A93   A(51,52,65)           105.937                                          !
 ! A94   A(53,52,55)           115.0449                                         !
 ! A95   A(53,52,65)           104.5609                                         !
 ! A96   A(55,52,65)           107.9254                                         !
 ! A97   A(52,53,54)           125.7301                                         !
 ! A98   A(52,53,62)           115.4307                                         !
 ! A99   A(54,53,62)           118.6014                                         !
 ! A100  A(52,55,56)           120.2385                                         !
 ! A101  A(52,55,66)           106.915                                          !
 ! A102  A(52,55,67)           106.2746                                         !
 ! A103  A(56,55,66)           107.6626                                         !
 ! A104  A(56,55,67)           108.9019                                         !
 ! A105  A(66,55,67)           106.0197                                         !
 ! A106  A(55,56,57)           116.8245                                         !
 ! A107  A(55,56,68)           111.453                                          !
 ! A108  A(55,56,69)           106.4626                                         !
 ! A109  A(57,56,68)           109.1719                                         !
 ! A110  A(57,56,69)           106.6829                                         !
 ! A111  A(68,56,69)           105.4952                                         !
 ! A112  A(56,57,58)           115.4685                                         !
 ! A113  A(56,57,70)           108.1108                                         !
 ! A114  A(56,57,71)           109.6117                                         !
 ! A115  A(58,57,70)           108.5687                                         !
 ! A116  A(58,57,71)           107.0154                                         !
 ! A117  A(70,57,71)           107.8261                                         !
 ! A118  A(57,58,59)           122.6896                                         !
 ! A119  A(57,58,72)           118.4386                                         !
 ! A120  A(59,58,72)           117.2875                                         !
 ! A121  A(58,59,60)           119.4421                                         !
 ! A122  A(58,59,61)           114.4326                                         !
 ! A123  A(60,59,61)           126.0165                                         !
 ! A124  A(59,60,73)           110.1783                                         !
 ! A125  A(59,61,74)           114.7893                                         !
 ! A126  A(59,61,75)           117.4816                                         !
 ! A127  A(74,61,75)           114.8761                                         !
 ! A128  A(53,62,63)           110.9568                                         !
 ! D1    D(9,1,2,3)             63.471                                          !
 ! D2    D(9,1,2,5)            -65.1034                                         !
 ! D3    D(9,1,2,10)           175.6939                                         !
 ! D4    D(15,1,2,3)          -176.5309                                         !
 ! D5    D(15,1,2,5)            54.8946                                         !
 ! D6    D(15,1,2,10)          -64.3081                                         !
 ! D7    D(16,1,2,3)           -54.0216                                         !
 ! D8    D(16,1,2,5)           177.4039                                         !
 ! D9    D(16,1,2,10)           58.2012                                         !
 ! D10   D(1,2,3,4)             48.6587                                         !
 ! D11   D(1,2,3,17)          -128.2571                                         !
 ! D12   D(5,2,3,4)            170.6054                                         !
 ! D13   D(5,2,3,17)            -6.3104                                         !
 ! D14   D(10,2,3,4)           -63.7425                                         !
 ! D15   D(10,2,3,17)          119.3417                                         !
 ! D16   D(1,2,5,6)            -58.9174                                         !
 ! D17   D(1,2,5,11)            59.8337                                         !
 ! D18   D(1,2,5,12)           177.4303                                         !
 ! D19   D(3,2,5,6)           -178.3612                                         !
 ! D20   D(3,2,5,11)           -59.61                                           !
 ! D21   D(3,2,5,12)            57.9865                                         !
 ! D22   D(10,2,5,6)            57.9149                                         !
 ! D23   D(10,2,5,11)          176.666                                          !
 ! D24   D(10,2,5,12)          -65.7374                                         !
 ! D25   D(2,3,17,18)         -164.2074                                         !
 ! D26   D(2,3,17,28)           -0.5805                                         !
 ! D27   D(4,3,17,18)           19.156                                          !
 ! D28   D(4,3,17,28)         -177.217                                          !
 ! D29   D(2,5,6,7)           -162.9029                                         !
 ! D30   D(2,5,6,8)             19.3297                                         !
 ! D31   D(11,5,6,7)            77.5806                                         !
 ! D32   D(11,5,6,8)          -100.1868                                         !
 ! D33   D(12,5,6,7)           -40.1723                                         !
 ! D34   D(12,5,6,8)           142.0603                                         !
 ! D35   D(5,6,7,13)          -176.3996                                         !
 ! D36   D(5,6,7,14)            -1.7449                                         !
 ! D37   D(8,6,7,13)             1.3394                                         !
 ! D38   D(8,6,7,14)           175.9941                                         !
 ! D39   D(3,17,18,19)        -120.6817                                         !
 ! D40   D(3,17,18,21)         114.5493                                         !
 ! D41   D(3,17,18,29)          -3.3012                                         !
 ! D42   D(28,17,18,19)         74.9434                                         !
 ! D43   D(28,17,18,21)        -49.8256                                         !
 ! D44   D(28,17,18,29)       -167.6761                                         !
 ! D45   D(17,18,19,20)       -141.5224                                         !
 ! D46   D(17,18,19,37)         41.2688                                         !
 ! D47   D(21,18,19,20)        -18.0216                                         !
 ! D48   D(21,18,19,37)        164.7696                                         !
 ! D49   D(29,18,19,20)        101.8562                                         !
 ! D50   D(29,18,19,37)        -75.3527                                         !
 ! D51   D(17,18,21,22)        -43.4889                                         !
 ! D52   D(17,18,21,30)         77.421                                          !
 ! D53   D(17,18,21,31)       -166.7085                                         !
 ! D54   D(19,18,21,22)       -170.0125                                         !
 ! D55   D(19,18,21,30)        -49.1027                                         !
 ! D56   D(19,18,21,31)         66.7678                                         !
 ! D57   D(29,18,21,22)         71.7566                                         !
 ! D58   D(29,18,21,30)       -167.3336                                         !
 ! D59   D(29,18,21,31)        -51.4631                                         !
 ! D60   D(18,19,37,38)        -10.1232                                         !
 ! D61   D(18,19,37,45)       -175.8501                                         !
 ! D62   D(20,19,37,38)        172.689                                          !
 ! D63   D(20,19,37,45)          6.9621                                         !
 ! D64   D(18,21,22,23)        -74.727                                          !
 ! D65   D(18,21,22,24)         99.3054                                         !
 ! D66   D(30,21,22,23)        165.4446                                         !
 ! D67   D(30,21,22,24)        -20.523                                          !
 ! D68   D(31,21,22,23)         46.0315                                         !
 ! D69   D(31,21,22,24)       -139.9362                                         !
 ! D70   D(21,22,23,25)        173.5671                                         !
 ! D71   D(21,22,23,32)         -5.8241                                         !
 ! D72   D(24,22,23,25)         -0.5459                                         !
 ! D73   D(24,22,23,32)       -179.9371                                         !
 ! D74   D(21,22,24,26)       -173.6736                                         !
 ! D75   D(21,22,24,33)          5.6657                                         !
 ! D76   D(23,22,24,26)          0.503                                          !
 ! D77   D(23,22,24,33)        179.8423                                         !
 ! D78   D(22,23,25,27)          0.0159                                         !
 ! D79   D(22,23,25,34)        179.8286                                         !
 ! D80   D(32,23,25,27)        179.4062                                         !
 ! D81   D(32,23,25,34)         -0.7811                                         !
 ! D82   D(22,24,26,27)          0.0703                                         !
 ! D83   D(22,24,26,35)       -179.2                                            !
 ! D84   D(33,24,26,27)       -179.2649                                         !
 ! D85   D(33,24,26,35)          1.4648                                         !
 ! D86   D(23,25,27,26)          0.565                                          !
 ! D87   D(23,25,27,36)        179.6287                                         !
 ! D88   D(34,25,27,26)       -179.2471                                         !
 ! D89   D(34,25,27,36)         -0.1834                                         !
 ! D90   D(24,26,27,25)         -0.6069                                         !
 ! D91   D(24,26,27,36)       -179.6698                                         !
 ! D92   D(35,26,27,25)        178.662                                          !
 ! D93   D(35,26,27,36)         -0.4009                                         !
 ! D94   D(19,37,38,39)        -74.0036                                         !
 ! D95   D(19,37,38,41)        161.8999                                         !
 ! D96   D(19,37,38,46)         44.8946                                         !
 ! D97   D(45,37,38,39)         91.8113                                         !
 ! D98   D(45,37,38,41)        -32.2852                                         !
 ! D99   D(45,37,38,46)       -149.2905                                         !
 ! D100  D(37,38,39,40)        155.8928                                         !
 ! D101  D(37,38,39,51)        -25.5967                                         !
 ! D102  D(41,38,39,40)        -79.3308                                         !
 ! D103  D(41,38,39,51)         99.1797                                         !
 ! D104  D(46,38,39,40)         34.9224                                         !
 ! D105  D(46,38,39,51)       -146.5671                                         !
 ! D106  D(37,38,41,42)         59.567                                          !
 ! D107  D(37,38,41,47)        -59.8122                                         !
 ! D108  D(37,38,41,48)       -176.1866                                         !
 ! D109  D(39,38,41,42)        -67.2668                                         !
 ! D110  D(39,38,41,47)        173.3539                                         !
 ! D111  D(39,38,41,48)         56.9796                                         !
 ! D112  D(46,38,41,42)        178.6601                                         !
 ! D113  D(46,38,41,47)         59.2808                                         !
 ! D114  D(46,38,41,48)        -57.0935                                         !
 ! D115  D(38,39,51,52)        177.003                                          !
 ! D116  D(38,39,51,64)          4.125                                          !
 ! D117  D(40,39,51,52)         -4.5502                                         !
 ! D118  D(40,39,51,64)       -177.4282                                         !
 ! D119  D(38,41,42,43)        140.3307                                         !
 ! D120  D(38,41,42,44)        -39.8133                                         !
 ! D121  D(47,41,42,43)        -99.9845                                         !
 ! D122  D(47,41,42,44)         79.8715                                         !
 ! D123  D(48,41,42,43)         18.0896                                         !
 ! D124  D(48,41,42,44)       -162.0544                                         !
 ! D125  D(41,42,43,49)        171.9615                                         !
 ! D126  D(41,42,43,50)          7.0215                                         !
 ! D127  D(44,42,43,49)         -7.8934                                         !
 ! D128  D(44,42,43,50)       -172.8334                                         !
 ! D129  D(39,51,52,53)        -89.7893                                         !
 ! D130  D(39,51,52,55)        140.4324                                         !
 ! D131  D(39,51,52,65)         22.7301                                         !
 ! D132  D(64,51,52,53)         83.609                                          !
 ! D133  D(64,51,52,55)        -46.1694                                         !
 ! D134  D(64,51,52,65)       -163.8717                                         !
 ! D135  D(51,52,53,54)         -5.7404                                         !
 ! D136  D(51,52,53,62)        168.5473                                         !
 ! D137  D(55,52,53,54)        122.6668                                         !
 ! D138  D(55,52,53,62)        -63.0455                                         !
 ! D139  D(65,52,53,54)       -119.1453                                         !
 ! D140  D(65,52,53,62)         55.1424                                         !
 ! D141  D(51,52,55,56)        112.7492                                         !
 ! D142  D(51,52,55,66)       -124.2708                                         !
 ! D143  D(51,52,55,67)        -11.3617                                         !
 ! D144  D(53,52,55,56)        -14.4477                                         !
 ! D145  D(53,52,55,66)        108.5324                                         !
 ! D146  D(53,52,55,67)       -138.5586                                         !
 ! D147  D(65,52,55,56)       -130.7309                                         !
 ! D148  D(65,52,55,66)         -7.7508                                         !
 ! D149  D(65,52,55,67)        105.1582                                         !
 ! D150  D(52,53,62,63)          6.8259                                         !
 ! D151  D(54,53,62,63)       -178.4545                                         !
 ! D152  D(52,55,56,57)        -78.2313                                         !
 ! D153  D(52,55,56,68)         48.2177                                         !
 ! D154  D(52,55,56,69)        162.7647                                         !
 ! D155  D(66,55,56,57)        159.1497                                         !
 ! D156  D(66,55,56,68)        -74.4013                                         !
 ! D157  D(66,55,56,69)         40.1457                                         !
 ! D158  D(67,55,56,57)         44.6202                                         !
 ! D159  D(67,55,56,68)        171.0693                                         !
 ! D160  D(67,55,56,69)        -74.3838                                         !
 ! D161  D(55,56,57,58)         69.8326                                         !
 ! D162  D(55,56,57,70)       -168.3724                                         !
 ! D163  D(55,56,57,71)        -51.0848                                         !
 ! D164  D(68,56,57,58)        -57.7367                                         !
 ! D165  D(68,56,57,70)         64.0583                                         !
 ! D166  D(68,56,57,71)       -178.6541                                         !
 ! D167  D(69,56,57,58)       -171.2819                                         !
 ! D168  D(69,56,57,70)        -49.4869                                         !
 ! D169  D(69,56,57,71)         67.8007                                         !
 ! D170  D(56,57,58,59)       -111.3273                                         !
 ! D171  D(56,57,58,72)         83.4251                                         !
 ! D172  D(70,57,58,59)        127.1237                                         !
 ! D173  D(70,57,58,72)        -38.1238                                         !
 ! D174  D(71,57,58,59)         10.9862                                         !
 ! D175  D(71,57,58,72)       -154.2614                                         !
 ! D176  D(57,58,59,60)         27.6971                                         !
 ! D177  D(57,58,59,61)       -155.8705                                         !
 ! D178  D(72,58,59,60)       -166.896                                          !
 ! D179  D(72,58,59,61)          9.5363                                         !
 ! D180  D(58,59,60,73)       -169.4859                                         !
 ! D181  D(61,59,60,73)         14.5306                                         !
 ! D182  D(58,59,61,74)       -176.0991                                         !
 ! D183  D(58,59,61,75)         44.2143                                         !
 ! D184  D(60,59,61,74)          0.0593                                         !
 ! D185  D(60,59,61,75)       -139.6273                                         !
 --------------------------------------------------------------------------------
 Symmetry turned off by external request.
 Stoichiometry    C23H36N9O7(1+)
 Framework group  C1[X(C23H36N9O7)]
 Deg. of freedom   219
 Full point group                 C1      NOp   1
                          Input orientation:                          
 ---------------------------------------------------------------------
 Center     Atomic      Atomic             Coordinates (Angstroms)
 Number     Number       Type             X           Y           Z
 ---------------------------------------------------------------------
      1          7           0       -5.568073    1.612318   -9.358082
      2          6           0       -5.834583    1.292014   -7.906549
      3          6           0       -5.139089   -0.061696   -7.687799
      4          8           0       -3.977588   -0.144608   -8.094894
      5          6           0       -7.325936    1.419546   -7.634695
      6          6           0       -7.857837    2.817673   -7.941437
      7          7           0       -9.056505    3.105979   -7.396589
      8          8           0       -7.244488    3.603059   -8.673170
      9          1           0       -6.038355    0.871982   -9.926075
     10          1           0       -5.275703    2.024642   -7.316789
     11          1           0       -7.859755    0.719334   -8.278964
     12          1           0       -7.528362    1.143941   -6.596344
     13          1           0       -9.486600    3.996860   -7.609312
     14          1           0       -9.573519    2.431474   -6.848544
     15          1           0       -5.973271    2.554304   -9.533227
     16          1           0       -4.556863    1.567285   -9.525142
     17          7           0       -5.827485   -1.077504   -7.139686
     18          6           0       -5.140412   -2.250720   -6.602518
     19          6           0       -5.546029   -3.580235   -7.269821
     20          8           0       -5.659359   -4.593867   -6.579454
     21          6           0       -5.365932   -2.302792   -5.067684
     22          6           0       -5.198266   -0.925542   -4.466289
     23          6           0       -3.929054   -0.356213   -4.306844
     24          6           0       -6.326795   -0.145420   -4.173298
     25          6           0       -3.788161    0.964564   -3.876178
     26          6           0       -6.190274    1.175884   -3.741391
     27          6           0       -4.918599    1.737000   -3.597665
     28          1           0       -6.798329   -0.960107   -6.860081
     29          1           0       -4.077650   -2.095752   -6.815951
     30          1           0       -6.375382   -2.679679   -4.877657
     31          1           0       -4.666612   -3.028951   -4.644639
     32          1           0       -3.044073   -0.947525   -4.530789
     33          1           0       -7.318597   -0.576512   -4.295989
     34          1           0       -2.795613    1.389375   -3.755224
     35          1           0       -7.074561    1.762977   -3.505930
     36          1           0       -4.808410    2.762621   -3.256850
     37          7           0       -5.722152   -3.647522   -8.619645
     38          6           0       -5.781037   -2.587014   -9.611102
     39          6           0       -7.091379   -1.776001   -9.594664
     40          8           0       -7.091549   -0.607319  -10.046932
     41          6           0       -5.543726   -3.152177  -11.030900
     42          6           0       -6.568739   -4.210969  -11.441816
     43          7           0       -6.994262   -4.159054  -12.729336
     44          8           0       -6.976020   -5.056937  -10.648343
     45          1           0       -6.053615   -4.549478   -8.960422
     46          1           0       -4.979883   -1.868466   -9.429680
     47          1           0       -4.553105   -3.621850  -11.051741
     48          1           0       -5.529026   -2.311284  -11.731449
     49          1           0       -7.574543   -4.917034  -13.065305
     50          1           0       -6.586806   -3.535976  -13.410826
     51          7           0       -8.189316   -2.376549   -9.119391
     52          6           0       -9.447760   -1.667732   -9.007917
     53          6           0       -9.552603   -0.990359   -7.632667
     54          8           0       -8.763412   -1.111161   -6.723555
     55          6           0      -10.677091   -2.559347   -9.404917
     56          6           0      -11.709629   -2.978922   -8.337746
     57          6           0      -11.312157   -4.131740   -7.404478
     58          7           0      -10.262229   -3.826089   -6.444589
     59          6           0       -9.007107   -4.381688   -6.515305
     60          7           0       -8.536069   -4.749972   -7.668125
     61          7           0       -8.328973   -4.419199   -5.309557
     62          8           0      -10.569123   -0.101123   -7.496877
     63          1           0      -11.147881   -0.111824   -8.279386
     64          1           0       -8.179831   -3.340705   -8.705110
     65          1           0       -9.389360   -0.836224   -9.721195
     66          1           0      -11.215332   -2.026027  -10.196852
     67          1           0      -10.265196   -3.458897   -9.872673
     68          1           0      -12.033755   -2.121549   -7.733768
     69          1           0      -12.603591   -3.308502   -8.882544
     70          1           0      -12.207216   -4.449337   -6.854177
     71          1           0      -10.965259   -4.981562   -7.998234
     72          1           0      -10.518050   -3.368763   -5.581538
     73          1           0       -7.684645   -5.293943   -7.542104
     74          1           0       -7.378196   -4.771243   -5.366580
     75          1           0       -8.845910   -4.718804   -4.491699
 ---------------------------------------------------------------------
 Rotational constants (GHZ):           0.1205005           0.0825388           0.0806743
 Standard basis: 6-31G(d) (6D, 7F)
   657 basis functions,  1236 primitive gaussians,   657 cartesian basis functions
   146 alpha electrons      146 beta electrons
       nuclear repulsion energy      5229.9282127324 Hartrees.
 NAtoms=   75 NActive=   75 NUniq=   75 SFac= 1.00D+00 NAtFMM=   60 NAOKFM=T Big=T
 Integral buffers will be    131072 words long.
 Raffenetti 2 integral format.
 Two-electron integral symmetry is turned off.
 Nuclear repulsion after empirical dispersion term =     5229.8035177269 Hartrees.
 One-electron integrals computed using PRISM.
 NBasis=   657 RedAO= T EigKep=  4.66D-04  NBF=   657
 NBsUse=   657 1.00D-06 EigRej= -1.00D+00 NBFU=   657
 Initial guess from the checkpoint file:  "conf-962.chk"
 B after Tr=     0.000000    0.000000    0.000000
         Rot=    1.000000    0.000000    0.000000    0.000000 Ang=   0.00 deg.
 Requested convergence on RMS density matrix=1.00D-08 within 128 cycles.
 Requested convergence on MAX density matrix=1.00D-06.
 Requested convergence on             energy=1.00D-06.
 No special actions if energy rises.
 SCF Done:  E(RB3LYP) =  -1917.49370625     A.U. after    3 cycles
            NFock=  3  Conv=0.11D-08     -V/T= 2.0093

 **********************************************************************

            Population analysis using the SCF Density.

 **********************************************************************

 Alpha  occ. eigenvalues --  -19.32600 -19.26584 -19.24532 -19.24043 -19.23724
 Alpha  occ. eigenvalues --  -19.21535 -19.21189 -14.55398 -14.47971 -14.47516
 Alpha  occ. eigenvalues --  -14.46294 -14.45835 -14.45091 -14.43832 -14.42778
 Alpha  occ. eigenvalues --  -14.36807 -10.44665 -10.42096 -10.41176 -10.40454
 Alpha  occ. eigenvalues --  -10.39411 -10.38794 -10.38140 -10.37182 -10.35703
 Alpha  occ. eigenvalues --  -10.34656 -10.33497 -10.32633 -10.30936 -10.30779
 Alpha  occ. eigenvalues --  -10.30330 -10.28851 -10.27883 -10.27673 -10.27316
 Alpha  occ. eigenvalues --  -10.27073 -10.27042 -10.26978 -10.26898  -1.22978
 Alpha  occ. eigenvalues --   -1.16561  -1.15924  -1.15166  -1.14588  -1.13480
 Alpha  occ. eigenvalues --   -1.13010  -1.10303  -1.06398  -1.04548  -1.03816
 Alpha  occ. eigenvalues --   -1.02973  -1.01709  -1.00514  -0.97425  -0.93736
 Alpha  occ. eigenvalues --   -0.92424  -0.91778  -0.90304  -0.88505  -0.87486
 Alpha  occ. eigenvalues --   -0.84551  -0.82966  -0.82478  -0.80566  -0.78685
 Alpha  occ. eigenvalues --   -0.77530  -0.75169  -0.74260  -0.72524  -0.71746
 Alpha  occ. eigenvalues --   -0.71052  -0.70540  -0.70349  -0.68888  -0.68678
 Alpha  occ. eigenvalues --   -0.68385  -0.68021  -0.67943  -0.66513  -0.65853
 Alpha  occ. eigenvalues --   -0.65767  -0.63788  -0.63414  -0.62803  -0.61964
 Alpha  occ. eigenvalues --   -0.61525  -0.60512  -0.60290  -0.59840  -0.58950
 Alpha  occ. eigenvalues --   -0.58719  -0.58276  -0.58075  -0.57048  -0.56756
 Alpha  occ. eigenvalues --   -0.55863  -0.55281  -0.55168  -0.54837  -0.54273
 Alpha  occ. eigenvalues --   -0.54104  -0.53744  -0.53464  -0.53271  -0.53192
 Alpha  occ. eigenvalues --   -0.52945  -0.52157  -0.51654  -0.51108  -0.50796
 Alpha  occ. eigenvalues --   -0.50549  -0.50121  -0.49962  -0.49682  -0.49292
 Alpha  occ. eigenvalues --   -0.49179  -0.48068  -0.47919  -0.47831  -0.47463
 Alpha  occ. eigenvalues --   -0.46695  -0.46088  -0.45782  -0.45124  -0.44534
 Alpha  occ. eigenvalues --   -0.43959  -0.43780  -0.43708  -0.41977  -0.41898
 Alpha  occ. eigenvalues --   -0.40273  -0.39518  -0.39300  -0.38781  -0.38176
 Alpha  occ. eigenvalues --   -0.37729  -0.37320  -0.36641  -0.35885  -0.35745
 Alpha  occ. eigenvalues --   -0.34329  -0.34259  -0.33951  -0.33130  -0.32483
 Alpha  occ. eigenvalues --   -0.31206
 Alpha virt. eigenvalues --   -0.12521  -0.11363  -0.09642  -0.09587  -0.08728
 Alpha virt. eigenvalues --   -0.08307  -0.07947  -0.07557  -0.06699  -0.04452
 Alpha virt. eigenvalues --   -0.04122  -0.02319  -0.02030  -0.01725  -0.00497
 Alpha virt. eigenvalues --   -0.00222   0.00464   0.01506   0.01652   0.02199
 Alpha virt. eigenvalues --    0.02450   0.02650   0.03009   0.03219   0.03885
 Alpha virt. eigenvalues --    0.04288   0.04570   0.05058   0.05634   0.05941
 Alpha virt. eigenvalues --    0.06188   0.06320   0.06517   0.07083   0.07248
 Alpha virt. eigenvalues --    0.07576   0.07892   0.08186   0.08662   0.08792
 Alpha virt. eigenvalues --    0.09043   0.09192   0.09529   0.09701   0.10220
 Alpha virt. eigenvalues --    0.10660   0.10999   0.11188   0.11767   0.12061
 Alpha virt. eigenvalues --    0.12430   0.13115   0.13577   0.13915   0.14617
 Alpha virt. eigenvalues --    0.14764   0.15216   0.15745   0.15792   0.17518
 Alpha virt. eigenvalues --    0.17710   0.18427   0.19520   0.20456   0.21835
 Alpha virt. eigenvalues --    0.22159   0.22650   0.23815   0.24136   0.24333
 Alpha virt. eigenvalues --    0.24682   0.25143   0.25730   0.26858   0.27077
 Alpha virt. eigenvalues --    0.27525   0.28581   0.28944   0.29827   0.30382
 Alpha virt. eigenvalues --    0.32838   0.33993   0.35268   0.35893   0.37187
 Alpha virt. eigenvalues --    0.37732   0.38286   0.38665   0.39843   0.40606
 Alpha virt. eigenvalues --    0.41491   0.42132   0.42363   0.43450   0.43908
 Alpha virt. eigenvalues --    0.44804   0.45287   0.45855   0.46188   0.46305
 Alpha virt. eigenvalues --    0.46968   0.47696   0.48007   0.48163   0.48308
 Alpha virt. eigenvalues --    0.48878   0.49258   0.49470   0.49822   0.50477
 Alpha virt. eigenvalues --    0.50967   0.51251   0.51584   0.51604   0.52116
 Alpha virt. eigenvalues --    0.52431   0.52510   0.52999   0.53544   0.53787
 Alpha virt. eigenvalues --    0.53842   0.54307   0.54534   0.55058   0.55352
 Alpha virt. eigenvalues --    0.56101   0.56645   0.56896   0.57309   0.57429
 Alpha virt. eigenvalues --    0.58040   0.58183   0.58735   0.59574   0.60080
 Alpha virt. eigenvalues --    0.60551   0.60990   0.61478   0.61830   0.62175
 Alpha virt. eigenvalues --    0.62913   0.63528   0.64280   0.65065   0.65517
 Alpha virt. eigenvalues --    0.65707   0.66497   0.66978   0.67027   0.68116
 Alpha virt. eigenvalues --    0.68281   0.69221   0.69403   0.70138   0.71009
 Alpha virt. eigenvalues --    0.71126   0.72102   0.72612   0.73068   0.73619
 Alpha virt. eigenvalues --    0.74061   0.74119   0.74515   0.75084   0.75458
 Alpha virt. eigenvalues --    0.75724   0.76037   0.76115   0.76393   0.77012
 Alpha virt. eigenvalues --    0.77227   0.77634   0.77768   0.78171   0.78380
 Alpha virt. eigenvalues --    0.78637   0.79594   0.79933   0.79991   0.80236
 Alpha virt. eigenvalues --    0.80626   0.81566   0.81991   0.82660   0.82875
 Alpha virt. eigenvalues --    0.82992   0.83319   0.83584   0.84140   0.84512
 Alpha virt. eigenvalues --    0.85084   0.85465   0.85861   0.86425   0.87184
 Alpha virt. eigenvalues --    0.87705   0.87885   0.88408   0.88905   0.89418
 Alpha virt. eigenvalues --    0.90191   0.90958   0.91438   0.91868   0.92298
 Alpha virt. eigenvalues --    0.92683   0.93327   0.93751   0.94388   0.94656
 Alpha virt. eigenvalues --    0.95532   0.96187   0.96831   0.97645   0.98457
 Alpha virt. eigenvalues --    0.98897   0.99844   1.01087   1.01337   1.02086
 Alpha virt. eigenvalues --    1.02803   1.03532   1.04143   1.04898   1.06742
 Alpha virt. eigenvalues --    1.07072   1.08086   1.08477   1.08829   1.09404
 Alpha virt. eigenvalues --    1.10169   1.10699   1.11785   1.12657   1.13599
 Alpha virt. eigenvalues --    1.14116   1.15195   1.15994   1.16405   1.16904
 Alpha virt. eigenvalues --    1.17520   1.18136   1.18950   1.19573   1.19935
 Alpha virt. eigenvalues --    1.20631   1.21245   1.21553   1.23477   1.25028
 Alpha virt. eigenvalues --    1.25314   1.25656   1.26764   1.27421   1.27955
 Alpha virt. eigenvalues --    1.28244   1.29598   1.29986   1.31357   1.31641
 Alpha virt. eigenvalues --    1.32226   1.33174   1.33864   1.34338   1.35587
 Alpha virt. eigenvalues --    1.36172   1.36526   1.37044   1.38222   1.39111
 Alpha virt. eigenvalues --    1.40020   1.40689   1.40775   1.41419   1.41949
 Alpha virt. eigenvalues --    1.42778   1.43612   1.44464   1.45762   1.46507
 Alpha virt. eigenvalues --    1.48237   1.48649   1.50598   1.50953   1.51583
 Alpha virt. eigenvalues --    1.53064   1.53409   1.53794   1.54647   1.56340
 Alpha virt. eigenvalues --    1.56601   1.57251   1.58515   1.59317   1.60249
 Alpha virt. eigenvalues --    1.60514   1.61521   1.61932   1.63014   1.63450
 Alpha virt. eigenvalues --    1.63635   1.64525   1.64721   1.65727   1.66676
 Alpha virt. eigenvalues --    1.66858   1.68110   1.68523   1.69247   1.69744
 Alpha virt. eigenvalues --    1.69850   1.70738   1.70762   1.71829   1.72305
 Alpha virt. eigenvalues --    1.73074   1.73389   1.73908   1.74234   1.74821
 Alpha virt. eigenvalues --    1.75078   1.75846   1.76650   1.76832   1.77929
 Alpha virt. eigenvalues --    1.78837   1.78956   1.79450   1.80001   1.80622
 Alpha virt. eigenvalues --    1.81628   1.82014   1.82629   1.83356   1.84054
 Alpha virt. eigenvalues --    1.84587   1.84769   1.85245   1.85567   1.86143
 Alpha virt. eigenvalues --    1.86774   1.87911   1.89036   1.89341   1.90158
 Alpha virt. eigenvalues --    1.90487   1.90780   1.90996   1.91435   1.92537
 Alpha virt. eigenvalues --    1.93869   1.94336   1.94900   1.95027   1.95649
 Alpha virt. eigenvalues --    1.96421   1.97308   1.97552   1.98777   1.99063
 Alpha virt. eigenvalues --    1.99460   2.00205   2.00873   2.01563   2.02324
 Alpha virt. eigenvalues --    2.03957   2.04763   2.05720   2.06132   2.06584
 Alpha virt. eigenvalues --    2.06967   2.07183   2.08120   2.08368   2.09380
 Alpha virt. eigenvalues --    2.09910   2.11359   2.12247   2.12922   2.14019
 Alpha virt. eigenvalues --    2.14534   2.15794   2.16719   2.17903   2.18719
 Alpha virt. eigenvalues --    2.19751   2.20059   2.21262   2.21637   2.22712
 Alpha virt. eigenvalues --    2.22970   2.24027   2.25539   2.25620   2.26415
 Alpha virt. eigenvalues --    2.27409   2.27911   2.29099   2.29463   2.29787
 Alpha virt. eigenvalues --    2.31325   2.31802   2.32298   2.33253   2.34735
 Alpha virt. eigenvalues --    2.35576   2.35833   2.36594   2.37511   2.38385
 Alpha virt. eigenvalues --    2.39743   2.40227   2.41349   2.41780   2.42034
 Alpha virt. eigenvalues --    2.44505   2.44999   2.46054   2.48847   2.49071
 Alpha virt. eigenvalues --    2.50003   2.50452   2.50599   2.51106   2.51720
 Alpha virt. eigenvalues --    2.51902   2.52985   2.53687   2.54186   2.54543
 Alpha virt. eigenvalues --    2.55425   2.56354   2.57616   2.58768   2.59119
 Alpha virt. eigenvalues --    2.59855   2.61009   2.61437   2.62032   2.63490
 Alpha virt. eigenvalues --    2.64623   2.66331   2.66656   2.67258   2.67643
 Alpha virt. eigenvalues --    2.68395   2.70236   2.72523   2.74570   2.75832
 Alpha virt. eigenvalues --    2.76421   2.79358   2.81592   2.83284   2.86611
 Alpha virt. eigenvalues --    2.88495   2.89410   2.89792   2.91232   2.92963
 Alpha virt. eigenvalues --    2.93372   2.95754   2.97167   2.97979   2.98359
 Alpha virt. eigenvalues --    2.99278   3.00398   3.01090   3.05291   3.07147
 Alpha virt. eigenvalues --    3.10524   3.32937   3.69746   3.70761   3.72795
 Alpha virt. eigenvalues --    3.76613   3.78387   3.87687   3.92057   3.96041
 Alpha virt. eigenvalues --    3.98533   3.99446   4.01703   4.02311   4.02932
 Alpha virt. eigenvalues --    4.05604   4.06555   4.09655   4.10805   4.13864
 Alpha virt. eigenvalues --    4.14762   4.17413   4.18595   4.20213   4.23694
 Alpha virt. eigenvalues --    4.27726   4.29115   4.30665   4.32801   4.36616
 Alpha virt. eigenvalues --    4.37416   4.41615   4.43444   4.44565   4.47262
 Alpha virt. eigenvalues --    4.52750   4.58795   4.60542   4.63055   4.67088
 Alpha virt. eigenvalues --    4.68103
          Condensed to atoms (all electrons):
 Mulliken charges:
               1
     1  N   -0.763042
     2  C   -0.108046
     3  C    0.641754
     4  O   -0.540283
     5  C   -0.437072
     6  C    0.636224
     7  N   -0.743606
     8  O   -0.535302
     9  H    0.430036
    10  H    0.236350
    11  H    0.211862
    12  H    0.215736
    13  H    0.369511
    14  H    0.368487
    15  H    0.427488
    16  H    0.407753
    17  N   -0.652064
    18  C   -0.076338
    19  C    0.643094
    20  O   -0.536910
    21  C   -0.389577
    22  C    0.166931
    23  C   -0.176869
    24  C   -0.215084
    25  C   -0.132731
    26  C   -0.144442
    27  C   -0.137395
    28  H    0.421761
    29  H    0.218820
    30  H    0.182801
    31  H    0.186782
    32  H    0.142554
    33  H    0.146428
    34  H    0.150988
    35  H    0.136216
    36  H    0.147124
    37  N   -0.630762
    38  C   -0.059817
    39  C    0.649539
    40  O   -0.623366
    41  C   -0.390727
    42  C    0.606441
    43  N   -0.737919
    44  O   -0.506048
    45  H    0.387630
    46  H    0.194365
    47  H    0.212596
    48  H    0.168513
    49  H    0.361585
    50  H    0.352411
    51  N   -0.617842
    52  C   -0.101425
    53  C    0.641729
    54  O   -0.470429
    55  C   -0.309091
    56  C   -0.285819
    57  C   -0.128189
    58  N   -0.600022
    59  C    0.642577
    60  N   -0.739770
    61  N   -0.785479
    62  O   -0.570733
    63  H    0.431715
    64  H    0.447710
    65  H    0.193423
    66  H    0.155764
    67  H    0.208998
    68  H    0.128882
    69  H    0.164846
    70  H    0.157949
    71  H    0.198003
    72  H    0.328885
    73  H    0.311745
    74  H    0.378988
    75  H    0.333206
 Sum of Mulliken charges =   1.00000
 Mulliken charges with hydrogens summed into heavy atoms:
               1
     1  N    0.502235
     2  C    0.128304
     3  C    0.641754
     4  O   -0.540283
     5  C   -0.009474
     6  C    0.636224
     7  N   -0.005608
     8  O   -0.535302
    17  N   -0.230303
    18  C    0.142482
    19  C    0.643094
    20  O   -0.536910
    21  C   -0.019995
    22  C    0.166931
    23  C   -0.034316
    24  C   -0.068656
    25  C    0.018257
    26  C   -0.008226
    27  C    0.009729
    37  N   -0.243132
    38  C    0.134547
    39  C    0.649539
    40  O   -0.623366
    41  C   -0.009618
    42  C    0.606441
    43  N   -0.023923
    44  O   -0.506048
    51  N   -0.170131
    52  C    0.091999
    53  C    0.641729
    54  O   -0.470429
    55  C    0.055672
    56  C    0.007909
    57  C    0.227763
    58  N   -0.271137
    59  C    0.642577
    60  N   -0.428025
    61  N   -0.073285
    62  O   -0.139018
 Electronic spatial extent (au):  <R**2>=         133821.2675
 Charge=              1.0000 electrons
 Dipole moment (field-independent basis, Debye):
    X=            -39.4775    Y=             -1.5795    Z=            -42.1682  Tot=             57.7852
 Quadrupole moment (field-independent basis, Debye-Ang):
   XX=            144.1551   YY=           -198.7017   ZZ=            194.8278
   XY=             23.4038   XZ=            333.6907   YZ=             26.2388
 Traceless Quadrupole moment (field-independent basis, Debye-Ang):
   XX=             97.3947   YY=           -245.4621   ZZ=            148.0674
   XY=             23.4038   XZ=            333.6907   YZ=             26.2388
 Octapole moment (field-independent basis, Debye-Ang**2):
  XXX=           1080.9253  YYY=            976.5508  ZZZ=            531.2674  XYY=           1350.7334
  XXY=             28.6292  XXZ=          -1295.2791  XZZ=          -1561.3147  YZZ=           -153.3671
  YYZ=           1507.9906  XYZ=           -249.3500
 Hexadecapole moment (field-independent basis, Debye-Ang**3):
 XXXX=         -35601.0635 YYYY=         -10953.4867 ZZZZ=         -31044.9047 XXXY=          -4142.5798
 XXXZ=          -7529.6517 YYYX=          -7616.9429 YYYZ=          -8364.4704 ZZZX=          -4157.6059
 ZZZY=           -519.4069 XXYY=         -11572.6331 XXZZ=            454.0594 YYZZ=         -13512.7434
 XXYZ=           -257.4113 YYXZ=         -10646.1899 ZZXY=           1185.2569
 N-N= 5.229803517727D+03 E-N=-1.490039403792D+04  KE= 1.899790502122D+03
 Unable to Open any file for archive entry.
 1\1\GINC-AMR-095\SP\RB3LYP\6-31G(d)\C23H36N9O7(1+)\KENGMITH\06-Jun-202
 2\0\\# B3LYP/6-31G* empiricaldispersion=gd3 guess=read geom=check nosy
 mm integral(ultrafinegrid)\\Candidate Structure: Conf:962 Charge calc 
 in gas phase\\1,1\N,0,-5.5680725603,1.6123180502,-9.3580816744\C,0,-5.
 8345833945,1.2920138874,-7.9065492765\C,0,-5.1390889519,-0.0616955307,
 -7.6877994837\O,0,-3.9775880641,-0.1446075494,-8.0948940221\C,0,-7.325
 9363049,1.4195463843,-7.6346949806\C,0,-7.8578368985,2.8176726954,-7.9
 414369612\N,0,-9.0565051292,3.1059785548,-7.3965891026\O,0,-7.24448807
 49,3.6030586673,-8.6731704004\H,0,-6.0383552374,0.8719816508,-9.926075
 0042\H,0,-5.2757034072,2.0246421054,-7.3167893071\H,0,-7.859754783,0.7
 193343021,-8.2789643494\H,0,-7.5283621836,1.1439412645,-6.5963438755\H
 ,0,-9.486600255,3.9968601646,-7.6093123712\H,0,-9.5735188332,2.4314742
 598,-6.8485441709\H,0,-5.9732710509,2.5543041294,-9.5332274689\H,0,-4.
 5568633022,1.5672847656,-9.5251420991\N,0,-5.8274846258,-1.07750354,-7
 .1396862317\C,0,-5.1404117985,-2.250719656,-6.6025179858\C,0,-5.546029
 3128,-3.5802346865,-7.269820583\O,0,-5.6593590463,-4.5938665869,-6.579
 4540288\C,0,-5.3659324788,-2.3027916415,-5.0676835437\C,0,-5.198266189
 9,-0.9255422393,-4.4662887812\C,0,-3.9290544401,-0.3562125757,-4.30684
 38216\C,0,-6.326795119,-0.1454201042,-4.1732982931\C,0,-3.7881612925,0
 .9645635897,-3.8761781265\C,0,-6.190273519,1.1758836522,-3.7413907437\
 C,0,-4.9185991644,1.7370001981,-3.5976647745\H,0,-6.7983289864,-0.9601
 07264,-6.860080774\H,0,-4.0776502559,-2.0957520147,-6.8159513827\H,0,-
 6.3753822044,-2.6796791498,-4.8776573248\H,0,-4.6666122696,-3.02895108
 39,-4.644639272\H,0,-3.0440729638,-0.9475248395,-4.5307885438\H,0,-7.3
 185972471,-0.5765124467,-4.2959889098\H,0,-2.7956129739,1.3893752524,-
 3.7552238056\H,0,-7.074561409,1.7629768587,-3.5059302911\H,0,-4.808410
 4679,2.7626206179,-3.2568500065\N,0,-5.7221519922,-3.6475220991,-8.619
 6452521\C,0,-5.7810368552,-2.5870138237,-9.6111016568\C,0,-7.091379133
 2,-1.7760005033,-9.594664129\O,0,-7.0915493811,-0.6073186406,-10.04693
 17725\C,0,-5.5437259022,-3.1521774675,-11.0309003238\C,0,-6.5687389583
 ,-4.2109694851,-11.4418157526\N,0,-6.9942618695,-4.1590536989,-12.7293
 357262\O,0,-6.9760199063,-5.0569365539,-10.6483430368\H,0,-6.053614757
 3,-4.549478246,-8.9604215796\H,0,-4.9798833931,-1.8684662341,-9.429679
 766\H,0,-4.5531050215,-3.6218504995,-11.0517405242\H,0,-5.5290260451,-
 2.3112835898,-11.7314491807\H,0,-7.5745429145,-4.9170341927,-13.065305
 2347\H,0,-6.5868058931,-3.5359755908,-13.4108258918\N,0,-8.1893156891,
 -2.3765494219,-9.119391147\C,0,-9.4477604817,-1.6677322557,-9.00791691
 56\C,0,-9.5526029117,-0.9903591812,-7.6326665688\O,0,-8.7634124055,-1.
 1111605857,-6.7235547385\C,0,-10.6770913605,-2.5593470826,-9.404917332
 \C,0,-11.7096287612,-2.9789215556,-8.3377464677\C,0,-11.3121568641,-4.
 1317403935,-7.4044781798\N,0,-10.2622293105,-3.826089292,-6.4445891829
 \C,0,-9.007107161,-4.3816878917,-6.5153053277\N,0,-8.5360690671,-4.749
 9721754,-7.6681245279\N,0,-8.3289732484,-4.4191986978,-5.3095567376\O,
 0,-10.5691233696,-0.1011231158,-7.4968769383\H,0,-11.1478809849,-0.111
 8244272,-8.2793860246\H,0,-8.1798312212,-3.3407052535,-8.7051104594\H,
 0,-9.3893597917,-0.8362236791,-9.721194858\H,0,-11.2153315644,-2.02602
 70859,-10.1968523594\H,0,-10.2651956051,-3.4588971845,-9.8726732573\H,
 0,-12.0337545228,-2.1215494369,-7.7337675422\H,0,-12.6035907344,-3.308
 5020864,-8.8825438027\H,0,-12.2072155299,-4.4493369527,-6.8541770612\H
 ,0,-10.9652591852,-4.9815616327,-7.9982343397\H,0,-10.5180498207,-3.36
 87633335,-5.5815375679\H,0,-7.6846454593,-5.2939433101,-7.5421036727\H
 ,0,-7.3781963146,-4.7712428628,-5.3665797004\H,0,-8.8459097271,-4.7188
 038828,-4.4916985423\\Version=ES64L-G16RevC.01\HF=-1917.4937063\RMSD=1
 .127e-09\Dipole=-1.9351276,2.1223956,-2.1098265\Quadrupole=72.4105583,
 -182.4950749,110.0845166,17.4001583,248.0908388,19.5079022\PG=C01 [X(C
 23H36N9O7)]\\@
 The archive entry for this job was punched.


 LET US PLACE AT THE END OF EVERY CHAPTER.....THE
 TWO LETTERS USED BY THE ROMAN JUDGES WHEN THEY DID
 NOT UNDERSTAND A PLEADING.
 N. L. -NON LIQUET- IT IS NOT CLEAR.
                                              -- VOLTAIRE
 Job cpu time:       0 days  0 hours  4 minutes 35.2 seconds.
 Elapsed time:       0 days  0 hours  1 minutes  9.5 seconds.
 File lengths (MBytes):  RWF=    344 Int=      0 D2E=      0 Chk=     48 Scr=     16
 Normal termination of Gaussian 16 at Mon Jun  6 02:47:59 2022.
