 Entering Gaussian System, Link 0=/opt/software/Gaussian/g16-AVX2-C.01/g16/g16
 Input=charge-conf-156.com
 Output=charge-conf-156.log
 Initial command:
 /opt/software/Gaussian/g16-AVX2-C.01/g16/l1.exe "/mnt/gs18/scratch/users/kengmith/Gau-88516.inp" -scrdir="/mnt/gs18/scratch/users/kengmith/"
 Entering Link 1 = /opt/software/Gaussian/g16-AVX2-C.01/g16/l1.exe PID=     88526.
  
 Copyright (c) 1988-2019, Gaussian, Inc.  All Rights Reserved.
  
 This is part of the Gaussian(R) 16 program.  It is based on
 the Gaussian(R) 09 system (copyright 2009, Gaussian, Inc.),
 the Gaussian(R) 03 system (copyright 2003, Gaussian, Inc.),
 the Gaussian(R) 98 system (copyright 1998, Gaussian, Inc.),
 the Gaussian(R) 94 system (copyright 1995, Gaussian, Inc.),
 the Gaussian 92(TM) system (copyright 1992, Gaussian, Inc.),
 the Gaussian 90(TM) system (copyright 1990, Gaussian, Inc.),
 the Gaussian 88(TM) system (copyright 1988, Gaussian, Inc.),
 the Gaussian 86(TM) system (copyright 1986, Carnegie Mellon
 University), and the Gaussian 82(TM) system (copyright 1983,
 Carnegie Mellon University). Gaussian is a federally registered
 trademark of Gaussian, Inc.
  
 This software contains proprietary and confidential information,
 including trade secrets, belonging to Gaussian, Inc.
  
 This software is provided under written license and may be
 used, copied, transmitted, or stored only in accord with that
 written license.
  
 The following legend is applicable only to US Government
 contracts under FAR:
  
                    RESTRICTED RIGHTS LEGEND
  
 Use, reproduction and disclosure by the US Government is
 subject to restrictions as set forth in subparagraphs (a)
 and (c) of the Commercial Computer Software - Restricted
 Rights clause in FAR 52.227-19.
  
 Gaussian, Inc.
 340 Quinnipiac St., Bldg. 40, Wallingford CT 06492
  
  
 ---------------------------------------------------------------
 Warning -- This program may not be used in any manner that
 competes with the business of Gaussian, Inc. or will provide
 assistance to any competitor of Gaussian, Inc.  The licensee
 of this program is prohibited from giving any competitor of
 Gaussian, Inc. access to this program.  By using this program,
 the user acknowledges that Gaussian, Inc. is engaged in the
 business of creating and licensing software in the field of
 computational chemistry and represents and warrants to the
 licensee that it is not a competitor of Gaussian, Inc. and that
 it will not use this program in any manner prohibited above.
 ---------------------------------------------------------------
  

 Cite this work as:
 Gaussian 16, Revision C.01,
 M. J. Frisch, G. W. Trucks, H. B. Schlegel, G. E. Scuseria, 
 M. A. Robb, J. R. Cheeseman, G. Scalmani, V. Barone, 
 G. A. Petersson, H. Nakatsuji, X. Li, M. Caricato, A. V. Marenich, 
 J. Bloino, B. G. Janesko, R. Gomperts, B. Mennucci, H. P. Hratchian, 
 J. V. Ortiz, A. F. Izmaylov, J. L. Sonnenberg, D. Williams-Young, 
 F. Ding, F. Lipparini, F. Egidi, J. Goings, B. Peng, A. Petrone, 
 T. Henderson, D. Ranasinghe, V. G. Zakrzewski, J. Gao, N. Rega, 
 G. Zheng, W. Liang, M. Hada, M. Ehara, K. Toyota, R. Fukuda, 
 J. Hasegawa, M. Ishida, T. Nakajima, Y. Honda, O. Kitao, H. Nakai, 
 T. Vreven, K. Throssell, J. A. Montgomery, Jr., J. E. Peralta, 
 F. Ogliaro, M. J. Bearpark, J. J. Heyd, E. N. Brothers, K. N. Kudin, 
 V. N. Staroverov, T. A. Keith, R. Kobayashi, J. Normand, 
 K. Raghavachari, A. P. Rendell, J. C. Burant, S. S. Iyengar, 
 J. Tomasi, M. Cossi, J. M. Millam, M. Klene, C. Adamo, R. Cammi, 
 J. W. Ochterski, R. L. Martin, K. Morokuma, O. Farkas, 
 J. B. Foresman, and D. J. Fox, Gaussian, Inc., Wallingford CT, 2019.
 
 ******************************************
 Gaussian 16:  ES64L-G16RevC.01  3-Jul-2019
                 6-Jun-2022 
 ******************************************
 %mem=8gb
 %nproc=4
 Will use up to    4 processors via shared memory.
 %chk=conf-156.chk
 ----------------------------------------------------------------------
 # B3LYP/6-31G* empiricaldispersion=gd3 guess=read geom=check nosymm in
 tegral(ultrafinegrid)
 ----------------------------------------------------------------------
 1/29=2,38=1,172=1/1;
 2/12=2,15=1,40=1/2;
 3/5=1,6=6,7=1,11=2,14=-4,25=1,30=1,74=-5,75=-5,116=-2,124=31/1,2,3;
 4/5=1/1;
 5/5=2,38=6/2;
 6/7=2,8=2,9=2,10=2,28=1/1;
 99/5=1,9=1/99;
 ------------------------------------------------------
 Candidate Structure: Conf:156 Charge calc in gas phase
 ------------------------------------------------------
 Structure from the checkpoint file:  "conf-156.chk"
 Charge =  1 Multiplicity = 1
 Redundant internal coordinates found in file.  (old form).
 N,0,-10.0319108097,-1.46231303,-9.9476037068
 C,0,-8.898066011,-2.4548326357,-9.8838534937
 C,0,-8.9270927949,-2.958198812,-8.4367230685
 O,0,-10.0387690212,-3.1737020981,-7.9489488639
 C,0,-7.6144509222,-1.8185551336,-10.3970757702
 C,0,-7.7897145907,-1.2186036764,-11.7975858197
 N,0,-6.6589246308,-0.7706133453,-12.3783695308
 O,0,-8.8942756391,-1.1650153975,-12.3494723397
 H,0,-10.1065533414,-1.1576039969,-10.9369661648
 H,0,-9.1888693063,-3.2950511656,-10.5219255212
 H,0,-7.2605344646,-1.0433513639,-9.714604184
 H,0,-6.8338843457,-2.5866457395,-10.4366950022
 H,0,-6.7354690392,-0.3306880362,-13.2865900437
 H,0,-5.8163499577,-0.6325401685,-11.8353613659
 H,0,-10.8799283726,-1.9196796948,-9.593590282
 H,0,-9.8039837996,-0.67037448,-9.3079829236
 N,0,-7.7691364659,-3.0877929964,-7.7642556464
 C,0,-7.7444890335,-3.7591755732,-6.4651788179
 C,0,-6.9929485921,-2.898189225,-5.4389143757
 O,0,-6.0544233978,-3.3681056496,-4.8015023871
 C,0,-7.1441825184,-5.1776160774,-6.5966982418
 C,0,-7.8053880518,-5.9271888153,-7.731091789
 C,0,-9.061579124,-6.5220539428,-7.5634276975
 C,0,-7.2179910834,-5.9487690985,-9.0035588206
 C,0,-9.7179840361,-7.1191806397,-8.6401726868
 C,0,-7.8708186281,-6.5429717484,-10.0856709077
 C,0,-9.1270408698,-7.1268959744,-9.9058322722
 H,0,-6.8638714916,-2.8527094273,-8.1651099237
 H,0,-8.7902426267,-3.8482102422,-6.1569342837
 H,0,-6.0656430463,-5.0978470374,-6.7629063288
 H,0,-7.2704676446,-5.6888529419,-5.6376435039
 H,0,-9.532352818,-6.5117508398,-6.5830848164
 H,0,-6.2337039972,-5.5049313899,-9.1439708856
 H,0,-10.6901309732,-7.58016563,-8.4906514069
 H,0,-7.3938472885,-6.5643677615,-11.0621189626
 H,0,-9.6356359854,-7.5967416189,-10.7428408026
 N,0,-7.3927720076,-1.6027862147,-5.2696025537
 C,0,-8.4654729962,-0.8845305672,-5.9394082292
 C,0,-8.0363748911,-0.0416468568,-7.1644408391
 O,0,-8.8576833378,0.2148275215,-8.0647374945
 C,0,-9.2202859709,0.0349692985,-4.9503117514
 C,0,-8.3407060914,1.0971994176,-4.2841672479
 N,0,-9.0113228648,2.0679719073,-3.6193697265
 O,0,-7.1117094042,1.0688901386,-4.3452931309
 H,0,-6.8057377157,-1.0547803814,-4.6450054297
 H,0,-9.207191411,-1.5921548915,-6.3092144938
 H,0,-9.6551823454,-0.5961900031,-4.1653779571
 H,0,-10.0527849885,0.5118698039,-5.4803021495
 H,0,-8.4755706891,2.7332608877,-3.0770816981
 H,0,-10.0141943668,2.0550477422,-3.5019938087
 N,0,-6.7944214997,0.4729483794,-7.1670866989
 C,0,-6.4675120787,1.6719867259,-7.9242211165
 C,0,-5.9861113792,1.4167200403,-9.3495400934
 O,0,-5.5636954298,0.3741005266,-9.8254253484
 C,0,-5.4688487261,2.5763856679,-7.1418840187
 C,0,-4.3076585069,1.8959138123,-6.3952060561
 C,0,-3.3386356599,0.9895476488,-7.1802795614
 N,0,-3.8298150652,-0.3169288504,-7.6145679688
 C,0,-4.2058851964,-1.2836473068,-6.7128055009
 N,0,-4.2293443878,-1.0498575367,-5.4508024415
 N,0,-4.5943809294,-2.4990343619,-7.3579048929
 O,0,-6.0814287583,2.5439457662,-10.0673531474
 H,0,-5.727915696,2.3722215257,-10.9603852172
 H,0,-6.2056480468,0.2621218862,-6.3662484028
 H,0,-7.3944749985,2.2399523959,-8.0612530212
 H,0,-5.0927429752,3.3265580942,-7.8458731998
 H,0,-6.062766619,3.1140512616,-6.3955623163
 H,0,-3.7059171799,2.7119509743,-5.9746768122
 H,0,-4.6784998528,1.336976797,-5.532414714
 H,0,-2.9730423999,1.5017603074,-8.078897709
 H,0,-2.4727459309,0.8095985136,-6.5356102762
 H,0,-4.2810282096,-0.36200775,-8.5181370723
 H,0,-4.4296643471,-1.892994845,-4.913778046
 H,0,-4.6566630579,-3.2497496117,-6.6744254061
 H,0,-3.9310382198,-2.7581544899,-8.0857058345
 Recover connectivity data from disk.
                           ----------------------------
                           !    Current Parameters    !
                           ! (Angstroms and Degrees)  !
 --------------------------                            --------------------------
 ! Name  Definition              Value                                          !
 --------------------------------------------------------------------------------
 ! R1    R(1,2)                  1.5082                                         !
 ! R2    R(1,9)                  1.0379                                         !
 ! R3    R(1,15)                 1.0265                                         !
 ! R4    R(1,16)                 1.0432                                         !
 ! R5    R(2,3)                  1.5325                                         !
 ! R6    R(2,5)                  1.5218                                         !
 ! R7    R(2,10)                 1.0944                                         !
 ! R8    R(3,4)                  1.233                                          !
 ! R9    R(3,17)                 1.3453                                         !
 ! R10   R(5,6)                  1.5337                                         !
 ! R11   R(5,11)                 1.0918                                         !
 ! R12   R(5,12)                 1.0958                                         !
 ! R13   R(6,7)                  1.3478                                         !
 ! R14   R(6,8)                  1.2359                                         !
 ! R15   R(7,13)                 1.0121                                         !
 ! R16   R(7,14)                 1.0119                                         !
 ! R17   R(17,18)                1.4625                                         !
 ! R18   R(17,28)                1.0176                                         !
 ! R19   R(18,19)                1.536                                          !
 ! R20   R(18,21)                1.5458                                         !
 ! R21   R(18,29)                1.0939                                         !
 ! R22   R(19,20)                1.228                                          !
 ! R23   R(19,37)                1.3662                                         !
 ! R24   R(21,22)                1.5119                                         !
 ! R25   R(21,30)                1.0942                                         !
 ! R26   R(21,31)                1.0941                                         !
 ! R27   R(22,23)                1.4                                            !
 ! R28   R(22,24)                1.4017                                         !
 ! R29   R(23,25)                1.3953                                         !
 ! R30   R(23,32)                1.0876                                         !
 ! R31   R(24,26)                1.3965                                         !
 ! R32   R(24,33)                1.0888                                         !
 ! R33   R(25,27)                1.3968                                         !
 ! R34   R(25,34)                1.0862                                         !
 ! R35   R(26,27)                1.3969                                         !
 ! R36   R(26,35)                1.0869                                         !
 ! R37   R(27,36)                1.0863                                         !
 ! R38   R(37,38)                1.4544                                         !
 ! R39   R(37,45)                1.0174                                         !
 ! R40   R(38,39)                1.5477                                         !
 ! R41   R(38,41)                1.5471                                         !
 ! R42   R(38,46)                1.0898                                         !
 ! R43   R(39,40)                1.2453                                         !
 ! R44   R(39,51)                1.3443                                         !
 ! R45   R(41,42)                1.5316                                         !
 ! R46   R(41,47)                1.0971                                         !
 ! R47   R(41,48)                1.0961                                         !
 ! R48   R(42,43)                1.3543                                         !
 ! R49   R(42,44)                1.2308                                         !
 ! R50   R(43,49)                1.0118                                         !
 ! R51   R(43,50)                1.0098                                         !
 ! R52   R(51,52)                1.4553                                         !
 ! R53   R(51,64)                1.0161                                         !
 ! R54   R(52,53)                1.5259                                         !
 ! R55   R(52,55)                1.558                                          !
 ! R56   R(52,65)                1.0957                                         !
 ! R57   R(53,54)                1.2215                                         !
 ! R58   R(53,62)                1.3398                                         !
 ! R59   R(55,56)                1.5391                                         !
 ! R60   R(55,66)                1.0954                                         !
 ! R61   R(55,67)                1.0949                                         !
 ! R62   R(56,57)                1.5417                                         !
 ! R63   R(56,68)                1.0977                                         !
 ! R64   R(56,69)                1.0929                                         !
 ! R65   R(57,58)                1.4618                                         !
 ! R66   R(57,70)                1.0971                                         !
 ! R67   R(57,71)                1.0944                                         !
 ! R68   R(58,59)                1.3745                                         !
 ! R69   R(58,72)                1.011                                          !
 ! R70   R(59,60)                1.2837                                         !
 ! R71   R(59,61)                1.4298                                         !
 ! R72   R(60,73)                1.0195                                         !
 ! R73   R(61,74)                1.0172                                         !
 ! R74   R(61,75)                1.0183                                         !
 ! R75   R(62,63)                0.9757                                         !
 ! A1    A(2,1,9)              106.7114                                         !
 ! A2    A(2,1,15)             108.257                                          !
 ! A3    A(2,1,16)             108.0233                                         !
 ! A4    A(9,1,15)             113.5875                                         !
 ! A5    A(9,1,16)             112.1668                                         !
 ! A6    A(15,1,16)            107.8967                                         !
 ! A7    A(1,2,3)              103.9947                                         !
 ! A8    A(1,2,5)              110.1638                                         !
 ! A9    A(1,2,10)             106.3097                                         !
 ! A10   A(3,2,5)              118.1499                                         !
 ! A11   A(3,2,10)             107.0594                                         !
 ! A12   A(5,2,10)             110.396                                          !
 ! A13   A(2,3,4)              116.6203                                         !
 ! A14   A(2,3,17)             119.1677                                         !
 ! A15   A(4,3,17)             124.158                                          !
 ! A16   A(2,5,6)              112.0326                                         !
 ! A17   A(2,5,11)             111.0687                                         !
 ! A18   A(2,5,12)             108.66                                           !
 ! A19   A(6,5,11)             109.2761                                         !
 ! A20   A(6,5,12)             108.8192                                         !
 ! A21   A(11,5,12)            106.8209                                         !
 ! A22   A(5,6,7)              115.3177                                         !
 ! A23   A(5,6,8)              121.794                                          !
 ! A24   A(7,6,8)              122.8858                                         !
 ! A25   A(6,7,13)             117.886                                          !
 ! A26   A(6,7,14)             120.8451                                         !
 ! A27   A(13,7,14)            119.0289                                         !
 ! A28   A(3,17,18)            120.1804                                         !
 ! A29   A(3,17,28)            123.1321                                         !
 ! A30   A(18,17,28)           116.1658                                         !
 ! A31   A(17,18,19)           110.145                                          !
 ! A32   A(17,18,21)           110.6218                                         !
 ! A33   A(17,18,29)           105.7569                                         !
 ! A34   A(19,18,21)           112.4065                                         !
 ! A35   A(19,18,29)           108.9721                                         !
 ! A36   A(21,18,29)           108.6958                                         !
 ! A37   A(18,19,20)           120.4149                                         !
 ! A38   A(18,19,37)           118.1049                                         !
 ! A39   A(20,19,37)           121.478                                          !
 ! A40   A(18,21,22)           110.4213                                         !
 ! A41   A(18,21,30)           109.1967                                         !
 ! A42   A(18,21,31)           108.02                                           !
 ! A43   A(22,21,30)           110.6861                                         !
 ! A44   A(22,21,31)           112.0581                                         !
 ! A45   A(30,21,31)           106.3191                                         !
 ! A46   A(21,22,23)           120.8777                                         !
 ! A47   A(21,22,24)           120.3647                                         !
 ! A48   A(23,22,24)           118.5681                                         !
 ! A49   A(22,23,25)           120.7669                                         !
 ! A50   A(22,23,32)           119.494                                          !
 ! A51   A(25,23,32)           119.7379                                         !
 ! A52   A(22,24,26)           120.9369                                         !
 ! A53   A(22,24,33)           119.3164                                         !
 ! A54   A(26,24,33)           119.743                                          !
 ! A55   A(23,25,27)           120.1702                                         !
 ! A56   A(23,25,34)           119.7638                                         !
 ! A57   A(27,25,34)           120.0659                                         !
 ! A58   A(24,26,27)           119.9001                                         !
 ! A59   A(24,26,35)           119.9569                                         !
 ! A60   A(27,26,35)           120.1357                                         !
 ! A61   A(25,27,26)           119.6555                                         !
 ! A62   A(25,27,36)           120.1641                                         !
 ! A63   A(26,27,36)           120.1749                                         !
 ! A64   A(19,37,38)           128.8311                                         !
 ! A65   A(19,37,45)           114.705                                          !
 ! A66   A(38,37,45)           116.2515                                         !
 ! A67   A(37,38,39)           115.4044                                         !
 ! A68   A(37,38,41)           111.0346                                         !
 ! A69   A(37,38,46)           109.7308                                         !
 ! A70   A(39,38,41)           108.5196                                         !
 ! A71   A(39,38,46)           105.8867                                         !
 ! A72   A(41,38,46)           105.712                                          !
 ! A73   A(38,39,40)           120.1018                                         !
 ! A74   A(38,39,51)           117.7857                                         !
 ! A75   A(40,39,51)           121.9393                                         !
 ! A76   A(38,41,42)           114.2096                                         !
 ! A77   A(38,41,47)           107.9925                                         !
 ! A78   A(38,41,48)           108.6644                                         !
 ! A79   A(42,41,47)           108.3893                                         !
 ! A80   A(42,41,48)           110.1658                                         !
 ! A81   A(47,41,48)           107.1685                                         !
 ! A82   A(41,42,43)           115.2313                                         !
 ! A83   A(41,42,44)           122.4038                                         !
 ! A84   A(43,42,44)           122.3646                                         !
 ! A85   A(42,43,49)           118.1791                                         !
 ! A86   A(42,43,50)           122.6611                                         !
 ! A87   A(49,43,50)           118.1638                                         !
 ! A88   A(39,51,52)           121.5969                                         !
 ! A89   A(39,51,64)           117.0225                                         !
 ! A90   A(52,51,64)           116.7977                                         !
 ! A91   A(51,52,53)           114.7718                                         !
 ! A92   A(51,52,55)           111.1631                                         !
 ! A93   A(51,52,65)           107.5841                                         !
 ! A94   A(53,52,55)           111.3415                                         !
 ! A95   A(53,52,65)           103.697                                          !
 ! A96   A(55,52,65)           107.7084                                         !
 ! A97   A(52,53,54)           128.0111                                         !
 ! A98   A(52,53,62)           109.7099                                         !
 ! A99   A(54,53,62)           122.2786                                         !
 ! A100  A(52,55,56)           118.0705                                         !
 ! A101  A(52,55,66)           107.1529                                         !
 ! A102  A(52,55,67)           106.2385                                         !
 ! A103  A(56,55,66)           110.8261                                         !
 ! A104  A(56,55,67)           107.1974                                         !
 ! A105  A(66,55,67)           106.7399                                         !
 ! A106  A(55,56,57)           119.1487                                         !
 ! A107  A(55,56,68)           105.7099                                         !
 ! A108  A(55,56,69)           110.6776                                         !
 ! A109  A(57,56,68)           106.7136                                         !
 ! A110  A(57,56,69)           108.3384                                         !
 ! A111  A(68,56,69)           105.2949                                         !
 ! A112  A(56,57,58)           117.7449                                         !
 ! A113  A(56,57,70)           110.615                                          !
 ! A114  A(56,57,71)           107.0975                                         !
 ! A115  A(58,57,70)           106.6137                                         !
 ! A116  A(58,57,71)           107.0918                                         !
 ! A117  A(70,57,71)           107.1941                                         !
 ! A118  A(57,58,59)           121.7115                                         !
 ! A119  A(57,58,72)           117.0881                                         !
 ! A120  A(59,58,72)           115.652                                          !
 ! A121  A(58,59,60)           121.4601                                         !
 ! A122  A(58,59,61)           112.099                                          !
 ! A123  A(60,59,61)           126.3999                                         !
 ! A124  A(59,60,73)           111.7663                                         !
 ! A125  A(59,61,74)           109.9286                                         !
 ! A126  A(59,61,75)           111.2104                                         !
 ! A127  A(74,61,75)           109.4116                                         !
 ! A128  A(53,62,63)           108.453                                          !
 ! D1    D(9,1,2,3)           -174.9189                                         !
 ! D2    D(9,1,2,5)             57.5294                                         !
 ! D3    D(9,1,2,10)           -62.0926                                         !
 ! D4    D(15,1,2,3)           -52.3045                                         !
 ! D5    D(15,1,2,5)          -179.8561                                         !
 ! D6    D(15,1,2,10)           60.5219                                         !
 ! D7    D(16,1,2,3)            64.2869                                         !
 ! D8    D(16,1,2,5)           -63.2648                                         !
 ! D9    D(16,1,2,10)          177.1132                                         !
 ! D10   D(1,2,3,4)             41.0244                                         !
 ! D11   D(1,2,3,17)          -136.4154                                         !
 ! D12   D(5,2,3,4)            163.454                                          !
 ! D13   D(5,2,3,17)           -13.9859                                         !
 ! D14   D(10,2,3,4)           -71.2609                                         !
 ! D15   D(10,2,3,17)          111.2992                                         !
 ! D16   D(1,2,5,6)            -54.0174                                         !
 ! D17   D(1,2,5,11)            68.4991                                         !
 ! D18   D(1,2,5,12)          -174.2804                                         !
 ! D19   D(3,2,5,6)           -173.2703                                         !
 ! D20   D(3,2,5,11)           -50.7538                                         !
 ! D21   D(3,2,5,12)            66.4667                                         !
 ! D22   D(10,2,5,6)            63.0933                                         !
 ! D23   D(10,2,5,11)         -174.3902                                         !
 ! D24   D(10,2,5,12)          -57.1698                                         !
 ! D25   D(2,3,17,18)         -170.3942                                         !
 ! D26   D(2,3,17,28)            0.9976                                         !
 ! D27   D(4,3,17,18)           12.3718                                         !
 ! D28   D(4,3,17,28)         -176.2363                                         !
 ! D29   D(2,5,6,7)           -172.8989                                         !
 ! D30   D(2,5,6,8)              6.5384                                         !
 ! D31   D(11,5,6,7)            63.5713                                         !
 ! D32   D(11,5,6,8)          -116.9915                                         !
 ! D33   D(12,5,6,7)           -52.7286                                         !
 ! D34   D(12,5,6,8)           126.7087                                         !
 ! D35   D(5,6,7,13)          -177.4156                                         !
 ! D36   D(5,6,7,14)           -14.5818                                         !
 ! D37   D(8,6,7,13)             3.154                                          !
 ! D38   D(8,6,7,14)           165.9878                                         !
 ! D39   D(3,17,18,19)        -130.5848                                         !
 ! D40   D(3,17,18,21)         104.5355                                         !
 ! D41   D(3,17,18,29)         -12.9832                                         !
 ! D42   D(28,17,18,19)         57.4429                                         !
 ! D43   D(28,17,18,21)        -67.4368                                         !
 ! D44   D(28,17,18,29)        175.0445                                         !
 ! D45   D(17,18,19,20)       -125.9452                                         !
 ! D46   D(17,18,19,37)         53.5199                                         !
 ! D47   D(21,18,19,20)         -2.0945                                         !
 ! D48   D(21,18,19,37)        177.3707                                         !
 ! D49   D(29,18,19,20)        118.4615                                         !
 ! D50   D(29,18,19,37)        -62.0733                                         !
 ! D51   D(17,18,21,22)        -49.5442                                         !
 ! D52   D(17,18,21,30)         72.3777                                         !
 ! D53   D(17,18,21,31)       -172.3995                                         !
 ! D54   D(19,18,21,22)       -173.1295                                         !
 ! D55   D(19,18,21,30)        -51.2076                                         !
 ! D56   D(19,18,21,31)         64.0152                                         !
 ! D57   D(29,18,21,22)         66.1554                                         !
 ! D58   D(29,18,21,30)       -171.9228                                         !
 ! D59   D(29,18,21,31)        -56.6999                                         !
 ! D60   D(18,19,37,38)          0.0254                                         !
 ! D61   D(18,19,37,45)       -174.4204                                         !
 ! D62   D(20,19,37,38)        179.4845                                         !
 ! D63   D(20,19,37,45)          5.0388                                         !
 ! D64   D(18,21,22,23)        -79.41                                           !
 ! D65   D(18,21,22,24)         95.5159                                         !
 ! D66   D(30,21,22,23)        159.5506                                         !
 ! D67   D(30,21,22,24)        -25.5235                                         !
 ! D68   D(31,21,22,23)         41.0562                                         !
 ! D69   D(31,21,22,24)       -144.0178                                         !
 ! D70   D(21,22,23,25)        174.766                                          !
 ! D71   D(21,22,23,32)         -4.831                                          !
 ! D72   D(24,22,23,25)         -0.2493                                         !
 ! D73   D(24,22,23,32)       -179.8462                                         !
 ! D74   D(21,22,24,26)       -174.6898                                         !
 ! D75   D(21,22,24,33)          6.0089                                         !
 ! D76   D(23,22,24,26)          0.3518                                         !
 ! D77   D(23,22,24,33)       -178.9495                                         !
 ! D78   D(22,23,25,27)         -0.1757                                         !
 ! D79   D(22,23,25,34)        179.7094                                         !
 ! D80   D(32,23,25,27)        179.4203                                         !
 ! D81   D(32,23,25,34)         -0.6947                                         !
 ! D82   D(22,24,26,27)         -0.0291                                         !
 ! D83   D(22,24,26,35)       -179.0467                                         !
 ! D84   D(33,24,26,27)        179.2693                                         !
 ! D85   D(33,24,26,35)          0.2516                                         !
 ! D86   D(23,25,27,26)          0.5023                                         !
 ! D87   D(23,25,27,36)        179.6539                                         !
 ! D88   D(34,25,27,26)       -179.3824                                         !
 ! D89   D(34,25,27,36)         -0.2308                                         !
 ! D90   D(24,26,27,25)         -0.4002                                         !
 ! D91   D(24,26,27,36)       -179.5517                                         !
 ! D92   D(35,26,27,25)        178.6157                                         !
 ! D93   D(35,26,27,36)         -0.5359                                         !
 ! D94   D(19,37,38,39)        -95.558                                          !
 ! D95   D(19,37,38,41)        140.4296                                         !
 ! D96   D(19,37,38,46)         23.9323                                         !
 ! D97   D(45,37,38,39)         78.8156                                         !
 ! D98   D(45,37,38,41)        -45.1968                                         !
 ! D99   D(45,37,38,46)       -161.6941                                         !
 ! D100  D(37,38,39,40)        154.5972                                         !
 ! D101  D(37,38,39,51)        -30.0937                                         !
 ! D102  D(41,38,39,40)        -80.0827                                         !
 ! D103  D(41,38,39,51)         95.2264                                         !
 ! D104  D(46,38,39,40)         33.013                                          !
 ! D105  D(46,38,39,51)       -151.6779                                         !
 ! D106  D(37,38,41,42)         59.7724                                         !
 ! D107  D(37,38,41,47)        -60.8716                                         !
 ! D108  D(37,38,41,48)       -176.8029                                         !
 ! D109  D(39,38,41,42)        -68.0743                                         !
 ! D110  D(39,38,41,47)        171.2817                                         !
 ! D111  D(39,38,41,48)         55.3503                                         !
 ! D112  D(46,38,41,42)        178.7144                                         !
 ! D113  D(46,38,41,47)         58.0704                                         !
 ! D114  D(46,38,41,48)        -57.861                                          !
 ! D115  D(38,39,51,52)       -154.2248                                         !
 ! D116  D(38,39,51,64)          0.9927                                         !
 ! D117  D(40,39,51,52)         20.9928                                         !
 ! D118  D(40,39,51,64)        176.2103                                         !
 ! D119  D(38,41,42,43)        167.8817                                         !
 ! D120  D(38,41,42,44)        -12.3117                                         !
 ! D121  D(47,41,42,43)        -71.6954                                         !
 ! D122  D(47,41,42,44)        108.1113                                         !
 ! D123  D(48,41,42,43)         45.2714                                         !
 ! D124  D(48,41,42,44)       -134.922                                          !
 ! D125  D(41,42,43,49)        173.3085                                         !
 ! D126  D(41,42,43,50)          4.9453                                         !
 ! D127  D(44,42,43,49)         -6.4982                                         !
 ! D128  D(44,42,43,50)       -174.8615                                         !
 ! D129  D(39,51,52,53)        -90.7203                                         !
 ! D130  D(39,51,52,55)        141.8026                                         !
 ! D131  D(39,51,52,65)         24.1024                                         !
 ! D132  D(64,51,52,53)        114.0096                                         !
 ! D133  D(64,51,52,55)        -13.4675                                         !
 ! D134  D(64,51,52,65)       -131.1677                                         !
 ! D135  D(51,52,53,54)        -17.8546                                         !
 ! D136  D(51,52,53,62)        162.377                                          !
 ! D137  D(55,52,53,54)        109.5318                                         !
 ! D138  D(55,52,53,62)        -70.2365                                         !
 ! D139  D(65,52,53,54)       -134.9149                                         !
 ! D140  D(65,52,53,62)         45.3167                                         !
 ! D141  D(51,52,55,56)         41.417                                          !
 ! D142  D(51,52,55,66)        167.3109                                         !
 ! D143  D(51,52,55,67)        -78.8696                                         !
 ! D144  D(53,52,55,56)        -87.9027                                         !
 ! D145  D(53,52,55,66)         37.9912                                         !
 ! D146  D(53,52,55,67)        151.8106                                         !
 ! D147  D(65,52,55,56)        159.0418                                         !
 ! D148  D(65,52,55,66)        -75.0643                                         !
 ! D149  D(65,52,55,67)         38.7551                                         !
 ! D150  D(52,53,62,63)        177.1938                                         !
 ! D151  D(54,53,62,63)         -2.5903                                         !
 ! D152  D(52,55,56,57)         56.6829                                         !
 ! D153  D(52,55,56,68)        176.6125                                         !
 ! D154  D(52,55,56,69)        -69.8688                                         !
 ! D155  D(66,55,56,57)        -67.4047                                         !
 ! D156  D(66,55,56,68)         52.5249                                         !
 ! D157  D(66,55,56,69)        166.0437                                         !
 ! D158  D(67,55,56,57)        176.4714                                         !
 ! D159  D(67,55,56,68)        -63.599                                          !
 ! D160  D(67,55,56,69)         49.9198                                         !
 ! D161  D(55,56,57,58)        -72.7475                                         !
 ! D162  D(55,56,57,70)         50.1428                                         !
 ! D163  D(55,56,57,71)        166.6395                                         !
 ! D164  D(68,56,57,58)        167.8351                                         !
 ! D165  D(68,56,57,70)        -69.2746                                         !
 ! D166  D(68,56,57,71)         47.2221                                         !
 ! D167  D(69,56,57,58)         54.9001                                         !
 ! D168  D(69,56,57,70)        177.7904                                         !
 ! D169  D(69,56,57,71)        -65.7129                                         !
 ! D170  D(56,57,58,59)        -63.3861                                         !
 ! D171  D(56,57,58,72)         89.1875                                         !
 ! D172  D(70,57,58,59)        171.7169                                         !
 ! D173  D(70,57,58,72)        -35.7095                                         !
 ! D174  D(71,57,58,59)         57.2299                                         !
 ! D175  D(71,57,58,72)       -150.1966                                         !
 ! D176  D(57,58,59,60)          4.8553                                         !
 ! D177  D(57,58,59,61)       -177.3323                                         !
 ! D178  D(72,58,59,60)       -148.0849                                         !
 ! D179  D(72,58,59,61)         29.7276                                         !
 ! D180  D(58,59,60,73)       -173.7518                                         !
 ! D181  D(61,59,60,73)          8.7665                                         !
 ! D182  D(58,59,61,74)        166.9304                                         !
 ! D183  D(58,59,61,75)         45.604                                          !
 ! D184  D(60,59,61,74)        -15.388                                          !
 ! D185  D(60,59,61,75)       -136.7144                                         !
 --------------------------------------------------------------------------------
 Symmetry turned off by external request.
 Stoichiometry    C23H36N9O7(1+)
 Framework group  C1[X(C23H36N9O7)]
 Deg. of freedom   219
 Full point group                 C1      NOp   1
                          Input orientation:                          
 ---------------------------------------------------------------------
 Center     Atomic      Atomic             Coordinates (Angstroms)
 Number     Number       Type             X           Y           Z
 ---------------------------------------------------------------------
      1          7           0      -10.031911   -1.462313   -9.947604
      2          6           0       -8.898066   -2.454833   -9.883853
      3          6           0       -8.927093   -2.958199   -8.436723
      4          8           0      -10.038769   -3.173702   -7.948949
      5          6           0       -7.614451   -1.818555  -10.397076
      6          6           0       -7.789715   -1.218604  -11.797586
      7          7           0       -6.658925   -0.770613  -12.378370
      8          8           0       -8.894276   -1.165015  -12.349472
      9          1           0      -10.106553   -1.157604  -10.936966
     10          1           0       -9.188869   -3.295051  -10.521926
     11          1           0       -7.260534   -1.043351   -9.714604
     12          1           0       -6.833884   -2.586646  -10.436695
     13          1           0       -6.735469   -0.330688  -13.286590
     14          1           0       -5.816350   -0.632540  -11.835361
     15          1           0      -10.879928   -1.919680   -9.593590
     16          1           0       -9.803984   -0.670374   -9.307983
     17          7           0       -7.769136   -3.087793   -7.764256
     18          6           0       -7.744489   -3.759176   -6.465179
     19          6           0       -6.992949   -2.898189   -5.438914
     20          8           0       -6.054423   -3.368106   -4.801502
     21          6           0       -7.144183   -5.177616   -6.596698
     22          6           0       -7.805388   -5.927189   -7.731092
     23          6           0       -9.061579   -6.522054   -7.563428
     24          6           0       -7.217991   -5.948769   -9.003559
     25          6           0       -9.717984   -7.119181   -8.640173
     26          6           0       -7.870819   -6.542972  -10.085671
     27          6           0       -9.127041   -7.126896   -9.905832
     28          1           0       -6.863871   -2.852709   -8.165110
     29          1           0       -8.790243   -3.848210   -6.156934
     30          1           0       -6.065643   -5.097847   -6.762906
     31          1           0       -7.270468   -5.688853   -5.637644
     32          1           0       -9.532353   -6.511751   -6.583085
     33          1           0       -6.233704   -5.504931   -9.143971
     34          1           0      -10.690131   -7.580166   -8.490651
     35          1           0       -7.393847   -6.564368  -11.062119
     36          1           0       -9.635636   -7.596742  -10.742841
     37          7           0       -7.392772   -1.602786   -5.269603
     38          6           0       -8.465473   -0.884531   -5.939408
     39          6           0       -8.036375   -0.041647   -7.164441
     40          8           0       -8.857683    0.214828   -8.064737
     41          6           0       -9.220286    0.034969   -4.950312
     42          6           0       -8.340706    1.097199   -4.284167
     43          7           0       -9.011323    2.067972   -3.619370
     44          8           0       -7.111709    1.068890   -4.345293
     45          1           0       -6.805738   -1.054780   -4.645005
     46          1           0       -9.207191   -1.592155   -6.309214
     47          1           0       -9.655182   -0.596190   -4.165378
     48          1           0      -10.052785    0.511870   -5.480302
     49          1           0       -8.475571    2.733261   -3.077082
     50          1           0      -10.014194    2.055048   -3.501994
     51          7           0       -6.794421    0.472948   -7.167087
     52          6           0       -6.467512    1.671987   -7.924221
     53          6           0       -5.986111    1.416720   -9.349540
     54          8           0       -5.563695    0.374101   -9.825425
     55          6           0       -5.468849    2.576386   -7.141884
     56          6           0       -4.307659    1.895914   -6.395206
     57          6           0       -3.338636    0.989548   -7.180280
     58          7           0       -3.829815   -0.316929   -7.614568
     59          6           0       -4.205885   -1.283647   -6.712806
     60          7           0       -4.229344   -1.049858   -5.450802
     61          7           0       -4.594381   -2.499034   -7.357905
     62          8           0       -6.081429    2.543946  -10.067353
     63          1           0       -5.727916    2.372222  -10.960385
     64          1           0       -6.205648    0.262122   -6.366248
     65          1           0       -7.394475    2.239952   -8.061253
     66          1           0       -5.092743    3.326558   -7.845873
     67          1           0       -6.062767    3.114051   -6.395562
     68          1           0       -3.705917    2.711951   -5.974677
     69          1           0       -4.678500    1.336977   -5.532415
     70          1           0       -2.973042    1.501760   -8.078898
     71          1           0       -2.472746    0.809599   -6.535610
     72          1           0       -4.281028   -0.362008   -8.518137
     73          1           0       -4.429664   -1.892995   -4.913778
     74          1           0       -4.656663   -3.249750   -6.674425
     75          1           0       -3.931038   -2.758154   -8.085706
 ---------------------------------------------------------------------
 Rotational constants (GHZ):           0.1269110           0.0816675           0.0694025
 Standard basis: 6-31G(d) (6D, 7F)
   657 basis functions,  1236 primitive gaussians,   657 cartesian basis functions
   146 alpha electrons      146 beta electrons
       nuclear repulsion energy      5180.6021092225 Hartrees.
 NAtoms=   75 NActive=   75 NUniq=   75 SFac= 1.00D+00 NAtFMM=   60 NAOKFM=T Big=T
 Integral buffers will be    131072 words long.
 Raffenetti 2 integral format.
 Two-electron integral symmetry is turned off.
 Nuclear repulsion after empirical dispersion term =     5180.4787290638 Hartrees.
 One-electron integrals computed using PRISM.
 NBasis=   657 RedAO= T EigKep=  4.66D-04  NBF=   657
 NBsUse=   657 1.00D-06 EigRej= -1.00D+00 NBFU=   657
 Initial guess from the checkpoint file:  "conf-156.chk"
 B after Tr=     0.000000    0.000000    0.000000
         Rot=    1.000000    0.000000    0.000000    0.000000 Ang=   0.00 deg.
 Requested convergence on RMS density matrix=1.00D-08 within 128 cycles.
 Requested convergence on MAX density matrix=1.00D-06.
 Requested convergence on             energy=1.00D-06.
 No special actions if energy rises.
 SCF Done:  E(RB3LYP) =  -1917.49564666     A.U. after    1 cycles
            NFock=  1  Conv=0.78D-08     -V/T= 2.0093

 **********************************************************************

            Population analysis using the SCF Density.

 **********************************************************************

 Alpha  occ. eigenvalues --  -19.32570 -19.27802 -19.25051 -19.24851 -19.24404
 Alpha  occ. eigenvalues --  -19.22666 -19.21908 -14.55714 -14.48652 -14.47896
 Alpha  occ. eigenvalues --  -14.47887 -14.46529 -14.46236 -14.43966 -14.42402
 Alpha  occ. eigenvalues --  -14.36398 -10.45406 -10.42432 -10.41932 -10.41493
 Alpha  occ. eigenvalues --  -10.40445 -10.39424 -10.38645 -10.36331 -10.35760
 Alpha  occ. eigenvalues --  -10.35665 -10.34051 -10.33304 -10.31767 -10.29945
 Alpha  occ. eigenvalues --  -10.29432 -10.28511 -10.28093 -10.27473 -10.27326
 Alpha  occ. eigenvalues --  -10.27019 -10.26983 -10.26929 -10.26467  -1.23950
 Alpha  occ. eigenvalues --   -1.17251  -1.16409  -1.16257  -1.14852  -1.14452
 Alpha  occ. eigenvalues --   -1.13856  -1.10697  -1.05868  -1.05349  -1.04900
 Alpha  occ. eigenvalues --   -1.03110  -1.02654  -1.01373  -0.97007  -0.93964
 Alpha  occ. eigenvalues --   -0.92376  -0.92270  -0.90716  -0.88989  -0.88054
 Alpha  occ. eigenvalues --   -0.84321  -0.83418  -0.82567  -0.81017  -0.79596
 Alpha  occ. eigenvalues --   -0.77984  -0.75834  -0.74146  -0.72776  -0.72068
 Alpha  occ. eigenvalues --   -0.71405  -0.70954  -0.69677  -0.69278  -0.68903
 Alpha  occ. eigenvalues --   -0.68663  -0.68518  -0.66843  -0.66268  -0.65803
 Alpha  occ. eigenvalues --   -0.65000  -0.64573  -0.63442  -0.62908  -0.62514
 Alpha  occ. eigenvalues --   -0.62188  -0.61364  -0.60742  -0.60232  -0.59432
 Alpha  occ. eigenvalues --   -0.58994  -0.58682  -0.58545  -0.57613  -0.56983
 Alpha  occ. eigenvalues --   -0.56614  -0.56161  -0.55608  -0.54995  -0.54709
 Alpha  occ. eigenvalues --   -0.54094  -0.53872  -0.53580  -0.53428  -0.53315
 Alpha  occ. eigenvalues --   -0.52958  -0.52623  -0.52431  -0.51641  -0.51560
 Alpha  occ. eigenvalues --   -0.50941  -0.50216  -0.50177  -0.49940  -0.49585
 Alpha  occ. eigenvalues --   -0.49213  -0.48682  -0.48248  -0.48125  -0.47905
 Alpha  occ. eigenvalues --   -0.47334  -0.47135  -0.45880  -0.45007  -0.44357
 Alpha  occ. eigenvalues --   -0.43952  -0.43164  -0.42503  -0.42236  -0.42147
 Alpha  occ. eigenvalues --   -0.41233  -0.40297  -0.39581  -0.39001  -0.38741
 Alpha  occ. eigenvalues --   -0.38499  -0.38443  -0.37543  -0.36539  -0.36152
 Alpha  occ. eigenvalues --   -0.35292  -0.35138  -0.33388  -0.33127  -0.32564
 Alpha  occ. eigenvalues --   -0.30722
 Alpha virt. eigenvalues --   -0.12676  -0.11793  -0.11159  -0.10207  -0.09043
 Alpha virt. eigenvalues --   -0.08484  -0.08424  -0.08339  -0.05582  -0.04742
 Alpha virt. eigenvalues --   -0.03908  -0.03196  -0.02382  -0.01294  -0.01032
 Alpha virt. eigenvalues --   -0.00687   0.00377   0.00868   0.01326   0.01839
 Alpha virt. eigenvalues --    0.02237   0.02543   0.02861   0.03317   0.03621
 Alpha virt. eigenvalues --    0.04190   0.04280   0.04729   0.05037   0.05409
 Alpha virt. eigenvalues --    0.05979   0.06304   0.06377   0.06495   0.07004
 Alpha virt. eigenvalues --    0.07157   0.07733   0.08280   0.08450   0.08584
 Alpha virt. eigenvalues --    0.08781   0.08956   0.09303   0.09786   0.09830
 Alpha virt. eigenvalues --    0.10326   0.10757   0.11075   0.11611   0.11667
 Alpha virt. eigenvalues --    0.12070   0.12773   0.13250   0.13905   0.14223
 Alpha virt. eigenvalues --    0.14345   0.14847   0.15663   0.16201   0.16786
 Alpha virt. eigenvalues --    0.17667   0.18372   0.18639   0.19340   0.20288
 Alpha virt. eigenvalues --    0.21237   0.21714   0.22605   0.23496   0.24138
 Alpha virt. eigenvalues --    0.24173   0.25022   0.25671   0.25919   0.26669
 Alpha virt. eigenvalues --    0.27116   0.27797   0.28468   0.29401   0.30068
 Alpha virt. eigenvalues --    0.31618   0.33122   0.35169   0.35986   0.36498
 Alpha virt. eigenvalues --    0.36686   0.37033   0.37707   0.39833   0.40579
 Alpha virt. eigenvalues --    0.41413   0.42203   0.42399   0.43365   0.44019
 Alpha virt. eigenvalues --    0.44566   0.45032   0.45519   0.46092   0.46321
 Alpha virt. eigenvalues --    0.46821   0.46987   0.47491   0.48032   0.48308
 Alpha virt. eigenvalues --    0.48717   0.49000   0.49571   0.49800   0.50003
 Alpha virt. eigenvalues --    0.50349   0.50390   0.51054   0.51491   0.51554
 Alpha virt. eigenvalues --    0.52216   0.52494   0.52703   0.53379   0.53431
 Alpha virt. eigenvalues --    0.53710   0.53907   0.54588   0.54933   0.55258
 Alpha virt. eigenvalues --    0.55516   0.56363   0.56529   0.56812   0.56875
 Alpha virt. eigenvalues --    0.57364   0.58042   0.58718   0.59300   0.59580
 Alpha virt. eigenvalues --    0.59889   0.60586   0.60907   0.61673   0.62029
 Alpha virt. eigenvalues --    0.63136   0.63570   0.63969   0.65154   0.65350
 Alpha virt. eigenvalues --    0.65609   0.65990   0.66613   0.67066   0.67586
 Alpha virt. eigenvalues --    0.67839   0.68538   0.69420   0.70013   0.70892
 Alpha virt. eigenvalues --    0.71583   0.72477   0.72611   0.72883   0.73686
 Alpha virt. eigenvalues --    0.73902   0.74254   0.74671   0.74838   0.75378
 Alpha virt. eigenvalues --    0.75426   0.75715   0.75922   0.76231   0.76405
 Alpha virt. eigenvalues --    0.76735   0.76880   0.77456   0.77844   0.78050
 Alpha virt. eigenvalues --    0.78535   0.78615   0.79008   0.79532   0.80081
 Alpha virt. eigenvalues --    0.80867   0.80976   0.81445   0.81820   0.82093
 Alpha virt. eigenvalues --    0.82399   0.82898   0.83466   0.83823   0.84262
 Alpha virt. eigenvalues --    0.84580   0.84820   0.85503   0.86135   0.86359
 Alpha virt. eigenvalues --    0.86537   0.87112   0.87643   0.88049   0.88282
 Alpha virt. eigenvalues --    0.88963   0.89706   0.90409   0.90763   0.91250
 Alpha virt. eigenvalues --    0.91886   0.92148   0.92806   0.93721   0.94120
 Alpha virt. eigenvalues --    0.94410   0.95484   0.96218   0.96776   0.98045
 Alpha virt. eigenvalues --    0.98283   0.98511   0.99112   1.01246   1.01497
 Alpha virt. eigenvalues --    1.03038   1.04064   1.04679   1.05193   1.05650
 Alpha virt. eigenvalues --    1.06224   1.06999   1.07349   1.08664   1.09347
 Alpha virt. eigenvalues --    1.10012   1.10128   1.10652   1.12003   1.12442
 Alpha virt. eigenvalues --    1.12508   1.13490   1.14502   1.14827   1.15275
 Alpha virt. eigenvalues --    1.16125   1.16993   1.17870   1.18438   1.19013
 Alpha virt. eigenvalues --    1.19809   1.20370   1.20718   1.22718   1.24167
 Alpha virt. eigenvalues --    1.24594   1.25572   1.26341   1.27192   1.27499
 Alpha virt. eigenvalues --    1.28091   1.28867   1.29241   1.29636   1.30619
 Alpha virt. eigenvalues --    1.31531   1.32462   1.32733   1.33481   1.34054
 Alpha virt. eigenvalues --    1.34637   1.35041   1.35675   1.37983   1.38216
 Alpha virt. eigenvalues --    1.39738   1.40217   1.40748   1.41286   1.41705
 Alpha virt. eigenvalues --    1.42739   1.43551   1.44285   1.44850   1.46448
 Alpha virt. eigenvalues --    1.47252   1.47843   1.49179   1.49415   1.49687
 Alpha virt. eigenvalues --    1.50066   1.51338   1.52470   1.53197   1.54910
 Alpha virt. eigenvalues --    1.55465   1.55654   1.57377   1.57604   1.58333
 Alpha virt. eigenvalues --    1.60463   1.61044   1.61578   1.61985   1.62323
 Alpha virt. eigenvalues --    1.63686   1.64292   1.65311   1.65586   1.66388
 Alpha virt. eigenvalues --    1.67139   1.67824   1.68254   1.68548   1.69197
 Alpha virt. eigenvalues --    1.69948   1.70686   1.71089   1.71251   1.71407
 Alpha virt. eigenvalues --    1.72062   1.73336   1.73412   1.73960   1.74296
 Alpha virt. eigenvalues --    1.74456   1.75258   1.76171   1.76499   1.76763
 Alpha virt. eigenvalues --    1.77946   1.78114   1.78514   1.79044   1.80035
 Alpha virt. eigenvalues --    1.80483   1.81045   1.81535   1.82048   1.82551
 Alpha virt. eigenvalues --    1.83070   1.83846   1.84414   1.84626   1.85564
 Alpha virt. eigenvalues --    1.86209   1.86402   1.87248   1.87906   1.88237
 Alpha virt. eigenvalues --    1.88947   1.89576   1.89671   1.90691   1.91180
 Alpha virt. eigenvalues --    1.92493   1.93001   1.93863   1.94263   1.95126
 Alpha virt. eigenvalues --    1.95627   1.96234   1.96674   1.97641   1.98128
 Alpha virt. eigenvalues --    1.98885   2.00081   2.00581   2.00803   2.01878
 Alpha virt. eigenvalues --    2.01995   2.03792   2.04671   2.05535   2.06469
 Alpha virt. eigenvalues --    2.06784   2.07099   2.07996   2.08444   2.08770
 Alpha virt. eigenvalues --    2.10025   2.10835   2.11988   2.13363   2.13541
 Alpha virt. eigenvalues --    2.14608   2.15687   2.15979   2.16379   2.17417
 Alpha virt. eigenvalues --    2.18020   2.18707   2.19875   2.20997   2.21787
 Alpha virt. eigenvalues --    2.22908   2.23039   2.24571   2.26247   2.26893
 Alpha virt. eigenvalues --    2.27571   2.28811   2.29201   2.29409   2.30554
 Alpha virt. eigenvalues --    2.31226   2.31876   2.32463   2.32872   2.33440
 Alpha virt. eigenvalues --    2.34270   2.34876   2.35697   2.36641   2.38069
 Alpha virt. eigenvalues --    2.38665   2.39544   2.40587   2.41144   2.42296
 Alpha virt. eigenvalues --    2.43336   2.44676   2.45233   2.47681   2.48243
 Alpha virt. eigenvalues --    2.48781   2.49244   2.50094   2.50489   2.50980
 Alpha virt. eigenvalues --    2.51501   2.51853   2.52768   2.53507   2.53627
 Alpha virt. eigenvalues --    2.54870   2.56681   2.57463   2.57782   2.58889
 Alpha virt. eigenvalues --    2.60514   2.61752   2.62571   2.63605   2.64172
 Alpha virt. eigenvalues --    2.64513   2.65613   2.65971   2.66854   2.67422
 Alpha virt. eigenvalues --    2.67545   2.69178   2.71213   2.72254   2.74408
 Alpha virt. eigenvalues --    2.76305   2.78015   2.81561   2.83929   2.85331
 Alpha virt. eigenvalues --    2.87732   2.89174   2.89918   2.90459   2.92565
 Alpha virt. eigenvalues --    2.93535   2.95280   2.96473   2.96870   2.97247
 Alpha virt. eigenvalues --    2.98185   2.98952   3.00244   3.05271   3.05647
 Alpha virt. eigenvalues --    3.09457   3.32862   3.69858   3.70342   3.72425
 Alpha virt. eigenvalues --    3.73487   3.81621   3.88264   3.90386   3.91912
 Alpha virt. eigenvalues --    3.94277   3.97302   4.00338   4.02634   4.02698
 Alpha virt. eigenvalues --    4.03777   4.05513   4.07526   4.09021   4.12575
 Alpha virt. eigenvalues --    4.13039   4.16533   4.17660   4.18772   4.22145
 Alpha virt. eigenvalues --    4.24377   4.27040   4.28983   4.29615   4.35668
 Alpha virt. eigenvalues --    4.37407   4.40291   4.41242   4.44430   4.45652
 Alpha virt. eigenvalues --    4.49315   4.56278   4.59163   4.61499   4.66496
 Alpha virt. eigenvalues --    4.67614
          Condensed to atoms (all electrons):
 Mulliken charges:
               1
     1  N   -0.765470
     2  C   -0.114118
     3  C    0.670019
     4  O   -0.542511
     5  C   -0.439257
     6  C    0.624117
     7  N   -0.745955
     8  O   -0.531209
     9  H    0.427961
    10  H    0.239411
    11  H    0.235871
    12  H    0.202849
    13  H    0.364330
    14  H    0.372552
    15  H    0.410563
    16  H    0.439253
    17  N   -0.627209
    18  C   -0.092940
    19  C    0.641456
    20  O   -0.520817
    21  C   -0.357565
    22  C    0.165428
    23  C   -0.166164
    24  C   -0.200393
    25  C   -0.127353
    26  C   -0.140799
    27  C   -0.134435
    28  H    0.377174
    29  H    0.215763
    30  H    0.157426
    31  H    0.188738
    32  H    0.138709
    33  H    0.113296
    34  H    0.150489
    35  H    0.140230
    36  H    0.148541
    37  N   -0.623167
    38  C   -0.071831
    39  C    0.644326
    40  O   -0.608758
    41  C   -0.390856
    42  C    0.605508
    43  N   -0.736037
    44  O   -0.519402
    45  H    0.382568
    46  H    0.198770
    47  H    0.207901
    48  H    0.191301
    49  H    0.365380
    50  H    0.357032
    51  N   -0.593568
    52  C   -0.046639
    53  C    0.607752
    54  O   -0.508565
    55  C   -0.304014
    56  C   -0.315834
    57  C   -0.129454
    58  N   -0.620768
    59  C    0.560620
    60  N   -0.664765
    61  N   -0.818284
    62  O   -0.532476
    63  H    0.425358
    64  H    0.407838
    65  H    0.203877
    66  H    0.172433
    67  H    0.178942
    68  H    0.160474
    69  H    0.221133
    70  H    0.137577
    71  H    0.186570
    72  H    0.350181
    73  H    0.315777
    74  H    0.355438
    75  H    0.329681
 Sum of Mulliken charges =   1.00000
 Mulliken charges with hydrogens summed into heavy atoms:
               1
     1  N    0.512308
     2  C    0.125293
     3  C    0.670019
     4  O   -0.542511
     5  C   -0.000537
     6  C    0.624117
     7  N   -0.009073
     8  O   -0.531209
    17  N   -0.250036
    18  C    0.122822
    19  C    0.641456
    20  O   -0.520817
    21  C   -0.011401
    22  C    0.165428
    23  C   -0.027454
    24  C   -0.087097
    25  C    0.023136
    26  C   -0.000568
    27  C    0.014106
    37  N   -0.240599
    38  C    0.126938
    39  C    0.644326
    40  O   -0.608758
    41  C    0.008347
    42  C    0.605508
    43  N   -0.013626
    44  O   -0.519402
    51  N   -0.185729
    52  C    0.157238
    53  C    0.607752
    54  O   -0.508565
    55  C    0.047361
    56  C    0.065773
    57  C    0.194693
    58  N   -0.270587
    59  C    0.560620
    60  N   -0.348988
    61  N   -0.133166
    62  O   -0.107117
 Electronic spatial extent (au):  <R**2>=         137159.7339
 Charge=              1.0000 electrons
 Dipole moment (field-independent basis, Debye):
    X=            -38.9319    Y=             -1.8108    Z=            -42.3948  Tot=             57.5873
 Quadrupole moment (field-independent basis, Debye-Ang):
   XX=            118.6890   YY=           -184.4288   ZZ=            191.1017
   XY=             22.1774   XZ=            312.0615   YZ=             34.3840
 Traceless Quadrupole moment (field-independent basis, Debye-Ang):
   XX=             76.9017   YY=           -226.2161   ZZ=            149.3144
   XY=             22.1774   XZ=            312.0615   YZ=             34.3840
 Octapole moment (field-independent basis, Debye-Ang**2):
  XXX=           1654.9736  YYY=            990.6552  ZZZ=            927.1209  XYY=           1286.3766
  XXY=            115.1943  XXZ=           -818.6662  XZZ=          -1275.4950  YZZ=             -7.5513
  YYZ=           1402.1620  XYZ=           -358.4399
 Hexadecapole moment (field-independent basis, Debye-Ang**3):
 XXXX=         -43785.8001 YYYY=         -13607.6806 ZZZZ=         -41872.6050 XXXY=          -6528.7210
 XXXZ=         -15088.6669 YYYX=          -7990.4019 YYYZ=          -8127.4893 ZZZX=          -9253.5195
 ZZZY=          -5751.1174 XXYY=         -11744.7000 XXZZ=          -4552.4579 YYZZ=         -13732.9883
 XXYZ=            619.8641 YYXZ=          -9917.7844 ZZXY=            798.7140
 N-N= 5.180478729064D+03 E-N=-1.480075170694D+04  KE= 1.899785853840D+03
 Unable to Open any file for archive entry.
 1\1\GINC-AMR-107\SP\RB3LYP\6-31G(d)\C23H36N9O7(1+)\KENGMITH\06-Jun-202
 2\0\\# B3LYP/6-31G* empiricaldispersion=gd3 guess=read geom=check nosy
 mm integral(ultrafinegrid)\\Candidate Structure: Conf:156 Charge calc 
 in gas phase\\1,1\N,0,-10.0319108097,-1.46231303,-9.9476037068\C,0,-8.
 898066011,-2.4548326357,-9.8838534937\C,0,-8.9270927949,-2.958198812,-
 8.4367230685\O,0,-10.0387690212,-3.1737020981,-7.9489488639\C,0,-7.614
 4509222,-1.8185551336,-10.3970757702\C,0,-7.7897145907,-1.2186036764,-
 11.7975858197\N,0,-6.6589246308,-0.7706133453,-12.3783695308\O,0,-8.89
 42756391,-1.1650153975,-12.3494723397\H,0,-10.1065533414,-1.1576039969
 ,-10.9369661648\H,0,-9.1888693063,-3.2950511656,-10.5219255212\H,0,-7.
 2605344646,-1.0433513639,-9.714604184\H,0,-6.8338843457,-2.5866457395,
 -10.4366950022\H,0,-6.7354690392,-0.3306880362,-13.2865900437\H,0,-5.8
 163499577,-0.6325401685,-11.8353613659\H,0,-10.8799283726,-1.919679694
 8,-9.593590282\H,0,-9.8039837996,-0.67037448,-9.3079829236\N,0,-7.7691
 364659,-3.0877929964,-7.7642556464\C,0,-7.7444890335,-3.7591755732,-6.
 4651788179\C,0,-6.9929485921,-2.898189225,-5.4389143757\O,0,-6.0544233
 978,-3.3681056496,-4.8015023871\C,0,-7.1441825184,-5.1776160774,-6.596
 6982418\C,0,-7.8053880518,-5.9271888153,-7.731091789\C,0,-9.061579124,
 -6.5220539428,-7.5634276975\C,0,-7.2179910834,-5.9487690985,-9.0035588
 206\C,0,-9.7179840361,-7.1191806397,-8.6401726868\C,0,-7.8708186281,-6
 .5429717484,-10.0856709077\C,0,-9.1270408698,-7.1268959744,-9.90583227
 22\H,0,-6.8638714916,-2.8527094273,-8.1651099237\H,0,-8.7902426267,-3.
 8482102422,-6.1569342837\H,0,-6.0656430463,-5.0978470374,-6.7629063288
 \H,0,-7.2704676446,-5.6888529419,-5.6376435039\H,0,-9.532352818,-6.511
 7508398,-6.5830848164\H,0,-6.2337039972,-5.5049313899,-9.1439708856\H,
 0,-10.6901309732,-7.58016563,-8.4906514069\H,0,-7.3938472885,-6.564367
 7615,-11.0621189626\H,0,-9.6356359854,-7.5967416189,-10.7428408026\N,0
 ,-7.3927720076,-1.6027862147,-5.2696025537\C,0,-8.4654729962,-0.884530
 5672,-5.9394082292\C,0,-8.0363748911,-0.0416468568,-7.1644408391\O,0,-
 8.8576833378,0.2148275215,-8.0647374945\C,0,-9.2202859709,0.0349692985
 ,-4.9503117514\C,0,-8.3407060914,1.0971994176,-4.2841672479\N,0,-9.011
 3228648,2.0679719073,-3.6193697265\O,0,-7.1117094042,1.0688901386,-4.3
 452931309\H,0,-6.8057377157,-1.0547803814,-4.6450054297\H,0,-9.2071914
 11,-1.5921548915,-6.3092144938\H,0,-9.6551823454,-0.5961900031,-4.1653
 779571\H,0,-10.0527849885,0.5118698039,-5.4803021495\H,0,-8.4755706891
 ,2.7332608877,-3.0770816981\H,0,-10.0141943668,2.0550477422,-3.5019938
 087\N,0,-6.7944214997,0.4729483794,-7.1670866989\C,0,-6.4675120787,1.6
 719867259,-7.9242211165\C,0,-5.9861113792,1.4167200403,-9.3495400934\O
 ,0,-5.5636954298,0.3741005266,-9.8254253484\C,0,-5.4688487261,2.576385
 6679,-7.1418840187\C,0,-4.3076585069,1.8959138123,-6.3952060561\C,0,-3
 .3386356599,0.9895476488,-7.1802795614\N,0,-3.8298150652,-0.3169288504
 ,-7.6145679688\C,0,-4.2058851964,-1.2836473068,-6.7128055009\N,0,-4.22
 93443878,-1.0498575367,-5.4508024415\N,0,-4.5943809294,-2.4990343619,-
 7.3579048929\O,0,-6.0814287583,2.5439457662,-10.0673531474\H,0,-5.7279
 15696,2.3722215257,-10.9603852172\H,0,-6.2056480468,0.2621218862,-6.36
 62484028\H,0,-7.3944749985,2.2399523959,-8.0612530212\H,0,-5.092742975
 2,3.3265580942,-7.8458731998\H,0,-6.062766619,3.1140512616,-6.39556231
 63\H,0,-3.7059171799,2.7119509743,-5.9746768122\H,0,-4.6784998528,1.33
 6976797,-5.532414714\H,0,-2.9730423999,1.5017603074,-8.078897709\H,0,-
 2.4727459309,0.8095985136,-6.5356102762\H,0,-4.2810282096,-0.36200775,
 -8.5181370723\H,0,-4.4296643471,-1.892994845,-4.913778046\H,0,-4.65666
 30579,-3.2497496117,-6.6744254061\H,0,-3.9310382198,-2.7581544899,-8.0
 857058345\\Version=ES64L-G16RevC.01\HF=-1917.4956467\RMSD=7.793e-09\Di
 pole=-1.6669847,2.1846295,-1.9831474\Quadrupole=57.1745406,-168.186111
 ,111.0115704,16.4883778,232.0100963,25.5636825\PG=C01 [X(C23H36N9O7)]\
 \@
 The archive entry for this job was punched.


 ON INDUCTION, OR "WHY DO YOU BELIEVE THE SUN WILL RISE TOMORROW?":

 ... THE FARMER WHO HAS FED THE CHICKEN EVERY DAY THROUGHOUT ITS
 LIFE AT LAST WRINGS ITS NECK INSTEAD, SHOWING THAT MORE REFINED VIEWS
 AS TO THE UNIFORMITY OF NATURE WOULD HAVE BEEN USEFUL TO THE CHICKEN.

                               -- BERTRAND RUSSELL
 Job cpu time:       0 days  0 hours  1 minutes 59.2 seconds.
 Elapsed time:       0 days  0 hours  0 minutes 30.5 seconds.
 File lengths (MBytes):  RWF=    344 Int=      0 D2E=      0 Chk=     48 Scr=     16
 Normal termination of Gaussian 16 at Mon Jun  6 02:41:22 2022.
