 Entering Gaussian System, Link 0=/opt/software/Gaussian/g16-AVX2-C.01/g16/g16
 Input=charge-conf-304.com
 Output=charge-conf-304.log
 Initial command:
 /opt/software/Gaussian/g16-AVX2-C.01/g16/l1.exe "/mnt/gs18/scratch/users/kengmith/Gau-56908.inp" -scrdir="/mnt/gs18/scratch/users/kengmith/"
 Entering Link 1 = /opt/software/Gaussian/g16-AVX2-C.01/g16/l1.exe PID=     56939.
  
 Copyright (c) 1988-2019, Gaussian, Inc.  All Rights Reserved.
  
 This is part of the Gaussian(R) 16 program.  It is based on
 the Gaussian(R) 09 system (copyright 2009, Gaussian, Inc.),
 the Gaussian(R) 03 system (copyright 2003, Gaussian, Inc.),
 the Gaussian(R) 98 system (copyright 1998, Gaussian, Inc.),
 the Gaussian(R) 94 system (copyright 1995, Gaussian, Inc.),
 the Gaussian 92(TM) system (copyright 1992, Gaussian, Inc.),
 the Gaussian 90(TM) system (copyright 1990, Gaussian, Inc.),
 the Gaussian 88(TM) system (copyright 1988, Gaussian, Inc.),
 the Gaussian 86(TM) system (copyright 1986, Carnegie Mellon
 University), and the Gaussian 82(TM) system (copyright 1983,
 Carnegie Mellon University). Gaussian is a federally registered
 trademark of Gaussian, Inc.
  
 This software contains proprietary and confidential information,
 including trade secrets, belonging to Gaussian, Inc.
  
 This software is provided under written license and may be
 used, copied, transmitted, or stored only in accord with that
 written license.
  
 The following legend is applicable only to US Government
 contracts under FAR:
  
                    RESTRICTED RIGHTS LEGEND
  
 Use, reproduction and disclosure by the US Government is
 subject to restrictions as set forth in subparagraphs (a)
 and (c) of the Commercial Computer Software - Restricted
 Rights clause in FAR 52.227-19.
  
 Gaussian, Inc.
 340 Quinnipiac St., Bldg. 40, Wallingford CT 06492
  
  
 ---------------------------------------------------------------
 Warning -- This program may not be used in any manner that
 competes with the business of Gaussian, Inc. or will provide
 assistance to any competitor of Gaussian, Inc.  The licensee
 of this program is prohibited from giving any competitor of
 Gaussian, Inc. access to this program.  By using this program,
 the user acknowledges that Gaussian, Inc. is engaged in the
 business of creating and licensing software in the field of
 computational chemistry and represents and warrants to the
 licensee that it is not a competitor of Gaussian, Inc. and that
 it will not use this program in any manner prohibited above.
 ---------------------------------------------------------------
  

 Cite this work as:
 Gaussian 16, Revision C.01,
 M. J. Frisch, G. W. Trucks, H. B. Schlegel, G. E. Scuseria, 
 M. A. Robb, J. R. Cheeseman, G. Scalmani, V. Barone, 
 G. A. Petersson, H. Nakatsuji, X. Li, M. Caricato, A. V. Marenich, 
 J. Bloino, B. G. Janesko, R. Gomperts, B. Mennucci, H. P. Hratchian, 
 J. V. Ortiz, A. F. Izmaylov, J. L. Sonnenberg, D. Williams-Young, 
 F. Ding, F. Lipparini, F. Egidi, J. Goings, B. Peng, A. Petrone, 
 T. Henderson, D. Ranasinghe, V. G. Zakrzewski, J. Gao, N. Rega, 
 G. Zheng, W. Liang, M. Hada, M. Ehara, K. Toyota, R. Fukuda, 
 J. Hasegawa, M. Ishida, T. Nakajima, Y. Honda, O. Kitao, H. Nakai, 
 T. Vreven, K. Throssell, J. A. Montgomery, Jr., J. E. Peralta, 
 F. Ogliaro, M. J. Bearpark, J. J. Heyd, E. N. Brothers, K. N. Kudin, 
 V. N. Staroverov, T. A. Keith, R. Kobayashi, J. Normand, 
 K. Raghavachari, A. P. Rendell, J. C. Burant, S. S. Iyengar, 
 J. Tomasi, M. Cossi, J. M. Millam, M. Klene, C. Adamo, R. Cammi, 
 J. W. Ochterski, R. L. Martin, K. Morokuma, O. Farkas, 
 J. B. Foresman, and D. J. Fox, Gaussian, Inc., Wallingford CT, 2019.
 
 ******************************************
 Gaussian 16:  ES64L-G16RevC.01  3-Jul-2019
                 6-Jun-2022 
 ******************************************
 %mem=8gb
 %nproc=4
 Will use up to    4 processors via shared memory.
 %chk=conf-304.chk
 ----------------------------------------------------------------------
 # B3LYP/6-31G* empiricaldispersion=gd3 guess=read geom=check nosymm in
 tegral(ultrafinegrid)
 ----------------------------------------------------------------------
 1/29=2,38=1,172=1/1;
 2/12=2,15=1,40=1/2;
 3/5=1,6=6,7=1,11=2,14=-4,25=1,30=1,74=-5,75=-5,116=-2,124=31/1,2,3;
 4/5=1/1;
 5/5=2,38=6/2;
 6/7=2,8=2,9=2,10=2,28=1/1;
 99/5=1,9=1/99;
 ------------------------------------------------------
 Candidate Structure: Conf:304 Charge calc in gas phase
 ------------------------------------------------------
 Structure from the checkpoint file:  "conf-304.chk"
 Charge =  1 Multiplicity = 1
 Redundant internal coordinates found in file.  (old form).
 N,0,-7.4051964567,1.6063094271,-7.31669096
 C,0,-6.1660026749,0.7803431346,-7.5519652252
 C,0,-6.4781326562,-0.0619350209,-8.8002816367
 O,0,-7.0165372142,0.4889169746,-9.7580398396
 C,0,-5.7753146541,0.0164335869,-6.2904387789
 C,0,-5.7896145634,0.8644037627,-5.015712346
 N,0,-5.422137143,0.2013041457,-3.9100053574
 O,0,-6.1265910023,2.059105899,-5.0295308336
 H,0,-8.2210193855,0.9937325205,-7.1434008555
 H,0,-5.3820507767,1.4929756265,-7.8255403264
 H,0,-6.4596286149,-0.8152451949,-6.1309291064
 H,0,-4.7723131922,-0.39697463,-6.4347017053
 H,0,-5.4577737812,0.6966910296,-3.0286893981
 H,0,-5.2789106072,-0.8183017486,-3.9164783668
 H,0,-7.1958864217,2.1810053049,-6.4686157409
 H,0,-7.6087249938,2.1539529907,-8.1584731209
 N,0,-6.1957177047,-1.37851373,-8.7222665173
 C,0,-6.2836479635,-2.2683980476,-9.8767034209
 C,0,-7.1349806335,-3.4697146841,-9.4294579963
 O,0,-6.623211171,-4.5424911175,-9.1159523176
 C,0,-4.8777037683,-2.6902191962,-10.3594516331
 C,0,-3.9748164435,-1.4834373645,-10.4763577743
 C,0,-4.0572000204,-0.6278003279,-11.5811881775
 C,0,-3.109330806,-1.1428134036,-9.4279587651
 C,0,-3.2961746064,0.5404814245,-11.6373091262
 C,0,-2.3467457248,0.0255186785,-9.4772200875
 C,0,-2.4418027879,0.872757321,-10.5835787093
 H,0,-5.6738454156,-1.7663647513,-7.9341329331
 H,0,-6.7830360591,-1.7065724118,-10.6685109488
 H,0,-4.4691759484,-3.4214985221,-9.6569160899
 H,0,-4.9877232566,-3.2073431473,-11.3190589149
 H,0,-4.7259285464,-0.875791895,-12.4023433171
 H,0,-3.0286332449,-1.8047399652,-8.5676065868
 H,0,-3.3693056577,1.1907030376,-12.5043558784
 H,0,-1.6715664647,0.2679117192,-8.6607809534
 H,0,-1.8462031818,1.7799763919,-10.6291314517
 N,0,-8.4869477002,-3.2899441061,-9.3385938414
 C,0,-9.2548762558,-2.0538458538,-9.3998448884
 C,0,-9.5333798962,-1.3892160346,-8.0264998461
 O,0,-9.6188514405,-0.1626928216,-7.9522601547
 C,0,-10.5849823416,-2.273908262,-10.1518187847
 C,0,-11.4600481719,-3.3820063757,-9.5565625786
 N,0,-12.6578193428,-3.5555649534,-10.1514072571
 O,0,-11.0972261469,-4.0824329777,-8.6032682385
 H,0,-8.9948475434,-4.1159511114,-9.0362018098
 H,0,-8.6951551234,-1.2951079251,-9.9488360977
 H,0,-10.3561636463,-2.5341651281,-11.1925381382
 H,0,-11.1431933426,-1.3303385109,-10.1722099055
 H,0,-13.2551004286,-4.3061705868,-9.8292531619
 H,0,-12.9541310619,-3.0152495394,-10.9516035167
 N,0,-9.700333095,-2.2238990744,-6.9624328014
 C,0,-10.3277938569,-1.7716650528,-5.7239863462
 C,0,-9.6282064374,-0.5685842725,-5.1088434431
 O,0,-8.4987452282,-0.181203215,-5.3293802803
 C,0,-10.4233900568,-2.9359302506,-4.700682858
 C,0,-9.1942987202,-3.8548885843,-4.5333610544
 C,0,-7.8147858373,-3.200372633,-4.2911514154
 N,0,-7.0136806509,-3.2236235901,-5.5118312019
 C,0,-5.6533313344,-3.1070866929,-5.501774541
 N,0,-5.0237436916,-2.7261039978,-4.4368211536
 N,0,-5.0681791529,-3.3463288395,-6.7615267082
 O,0,-10.4402669136,0.0218932391,-4.2191101444
 H,0,-9.9483722917,0.7582834428,-3.807530904
 H,0,-9.9618392889,-3.1718845587,-7.2312090827
 H,0,-11.3501135479,-1.4289644911,-5.9323286372
 H,0,-10.7005808191,-2.4938328513,-3.7384909349
 H,0,-11.269646959,-3.5645861766,-5.0012659239
 H,0,-9.4247128792,-4.5106531765,-3.6867838727
 H,0,-9.1073669997,-4.526860734,-5.3960311871
 H,0,-7.910496918,-2.1808278567,-3.8995729481
 H,0,-7.2540708808,-3.7632477704,-3.5406208934
 H,0,-7.5041032451,-3.1229657705,-6.3908515258
 H,0,-4.0150480762,-2.8373321521,-4.5426273884
 H,0,-4.0617009812,-3.465576647,-6.7198012419
 H,0,-5.5000888124,-4.0884497141,-7.3150159158
 Recover connectivity data from disk.
                           ----------------------------
                           !    Current Parameters    !
                           ! (Angstroms and Degrees)  !
 --------------------------                            --------------------------
 ! Name  Definition              Value                                          !
 --------------------------------------------------------------------------------
 ! R1    R(1,2)                  1.5077                                         !
 ! R2    R(1,9)                  1.0348                                         !
 ! R3    R(1,15)                 1.0456                                         !
 ! R4    R(1,16)                 1.0247                                         !
 ! R5    R(2,3)                  1.5379                                         !
 ! R6    R(2,5)                  1.5257                                         !
 ! R7    R(2,10)                 1.0942                                         !
 ! R8    R(3,4)                  1.2291                                         !
 ! R9    R(3,17)                 1.3488                                         !
 ! R10   R(5,6)                  1.5311                                         !
 ! R11   R(5,11)                 1.0888                                         !
 ! R12   R(5,12)                 1.0944                                         !
 ! R13   R(6,7)                  1.3406                                         !
 ! R14   R(6,8)                  1.2414                                         !
 ! R15   R(7,13)                 1.0116                                         !
 ! R16   R(7,14)                 1.0296                                         !
 ! R17   R(17,18)                1.4603                                         !
 ! R18   R(17,28)                1.0217                                         !
 ! R19   R(18,19)                1.5388                                         !
 ! R20   R(18,21)                1.5452                                         !
 ! R21   R(18,29)                1.0918                                         !
 ! R22   R(19,20)                1.2292                                         !
 ! R23   R(19,37)                1.3669                                         !
 ! R24   R(21,22)                1.5117                                         !
 ! R25   R(21,30)                1.0933                                         !
 ! R26   R(21,31)                1.0956                                         !
 ! R27   R(22,23)                1.3998                                         !
 ! R28   R(22,24)                1.4015                                         !
 ! R29   R(23,25)                1.3954                                         !
 ! R30   R(23,32)                1.0877                                         !
 ! R31   R(24,26)                1.3961                                         !
 ! R32   R(24,33)                1.0885                                         !
 ! R33   R(25,27)                1.3967                                         !
 ! R34   R(25,34)                1.0862                                         !
 ! R35   R(26,27)                1.3967                                         !
 ! R36   R(26,35)                1.0868                                         !
 ! R37   R(27,36)                1.0862                                         !
 ! R38   R(37,38)                1.4565                                         !
 ! R39   R(37,45)                1.0157                                         !
 ! R40   R(38,39)                1.5509                                         !
 ! R41   R(38,41)                1.5437                                         !
 ! R42   R(38,46)                1.091                                          !
 ! R43   R(39,40)                1.2317                                         !
 ! R44   R(39,51)                1.3626                                         !
 ! R45   R(41,42)                1.5323                                         !
 ! R46   R(41,47)                1.0969                                         !
 ! R47   R(41,48)                1.0965                                         !
 ! R48   R(42,43)                1.3486                                         !
 ! R49   R(42,44)                1.2373                                         !
 ! R50   R(43,49)                1.0119                                         !
 ! R51   R(43,50)                1.01                                           !
 ! R52   R(51,52)                1.4601                                         !
 ! R53   R(51,64)                1.0195                                         !
 ! R54   R(52,53)                1.5216                                         !
 ! R55   R(52,55)                1.553                                          !
 ! R56   R(52,65)                1.0982                                         !
 ! R57   R(53,54)                1.2142                                         !
 ! R58   R(53,62)                1.3415                                         !
 ! R59   R(55,56)                1.5437                                         !
 ! R60   R(55,66)                1.0946                                         !
 ! R61   R(55,67)                1.0962                                         !
 ! R62   R(56,57)                1.546                                          !
 ! R63   R(56,68)                1.0954                                         !
 ! R64   R(56,69)                1.097                                          !
 ! R65   R(57,58)                1.4603                                         !
 ! R66   R(57,70)                1.0963                                         !
 ! R67   R(57,71)                1.0929                                         !
 ! R68   R(58,59)                1.3654                                         !
 ! R69   R(58,72)                1.0116                                         !
 ! R70   R(59,60)                1.2945                                         !
 ! R71   R(59,61)                1.4095                                         !
 ! R72   R(60,73)                1.0203                                         !
 ! R73   R(61,74)                1.0144                                         !
 ! R74   R(61,75)                1.0216                                         !
 ! R75   R(62,63)                0.9765                                         !
 ! A1    A(2,1,9)              110.4754                                         !
 ! A2    A(2,1,15)             105.2564                                         !
 ! A3    A(2,1,16)             109.1385                                         !
 ! A4    A(9,1,15)             110.3254                                         !
 ! A5    A(9,1,16)             107.2991                                         !
 ! A6    A(15,1,16)            114.3509                                         !
 ! A7    A(1,2,3)              105.0633                                         !
 ! A8    A(1,2,5)              110.839                                          !
 ! A9    A(1,2,10)             105.7291                                         !
 ! A10   A(3,2,5)              116.6743                                         !
 ! A11   A(3,2,10)             107.4073                                         !
 ! A12   A(5,2,10)             110.4487                                         !
 ! A13   A(2,3,4)              118.4222                                         !
 ! A14   A(2,3,17)             116.4333                                         !
 ! A15   A(4,3,17)             125.0491                                         !
 ! A16   A(2,5,6)              114.1248                                         !
 ! A17   A(2,5,11)             110.0394                                         !
 ! A18   A(2,5,12)             108.3507                                         !
 ! A19   A(6,5,11)             107.1705                                         !
 ! A20   A(6,5,12)             109.1182                                         !
 ! A21   A(11,5,12)            107.8658                                         !
 ! A22   A(5,6,7)              114.2157                                         !
 ! A23   A(5,6,8)              121.7542                                         !
 ! A24   A(7,6,8)              124.0278                                         !
 ! A25   A(6,7,13)             117.8172                                         !
 ! A26   A(6,7,14)             121.5161                                         !
 ! A27   A(13,7,14)            119.6894                                         !
 ! A28   A(3,17,18)            122.4467                                         !
 ! A29   A(3,17,28)            121.4734                                         !
 ! A30   A(18,17,28)           114.1577                                         !
 ! A31   A(17,18,19)           106.2176                                         !
 ! A32   A(17,18,21)           111.0117                                         !
 ! A33   A(17,18,29)           106.6966                                         !
 ! A34   A(19,18,21)           112.3997                                         !
 ! A35   A(19,18,29)           111.0672                                         !
 ! A36   A(21,18,29)           109.2737                                         !
 ! A37   A(18,19,20)           121.675                                          !
 ! A38   A(18,19,37)           117.6356                                         !
 ! A39   A(20,19,37)           120.6376                                         !
 ! A40   A(18,21,22)           110.4676                                         !
 ! A41   A(18,21,30)           108.7742                                         !
 ! A42   A(18,21,31)           108.1264                                         !
 ! A43   A(22,21,30)           111.1303                                         !
 ! A44   A(22,21,31)           111.6562                                         !
 ! A45   A(30,21,31)           106.5375                                         !
 ! A46   A(21,22,23)           120.9199                                         !
 ! A47   A(21,22,24)           120.3318                                         !
 ! A48   A(23,22,24)           118.5672                                         !
 ! A49   A(22,23,25)           120.7566                                         !
 ! A50   A(22,23,32)           119.5174                                         !
 ! A51   A(25,23,32)           119.7254                                         !
 ! A52   A(22,24,26)           120.9525                                         !
 ! A53   A(22,24,33)           119.2906                                         !
 ! A54   A(26,24,33)           119.7557                                         !
 ! A55   A(23,25,27)           120.1624                                         !
 ! A56   A(23,25,34)           119.772                                          !
 ! A57   A(27,25,34)           120.0655                                         !
 ! A58   A(24,26,27)           119.8951                                         !
 ! A59   A(24,26,35)           119.9662                                         !
 ! A60   A(27,26,35)           120.1345                                         !
 ! A61   A(25,27,26)           119.665                                          !
 ! A62   A(25,27,36)           120.1643                                         !
 ! A63   A(26,27,36)           120.1674                                         !
 ! A64   A(19,37,38)           129.0726                                         !
 ! A65   A(19,37,45)           114.0426                                         !
 ! A66   A(38,37,45)           116.0426                                         !
 ! A67   A(37,38,39)           114.9058                                         !
 ! A68   A(37,38,41)           110.7191                                         !
 ! A69   A(37,38,46)           109.9298                                         !
 ! A70   A(39,38,41)           109.7373                                         !
 ! A71   A(39,38,46)           103.8674                                         !
 ! A72   A(41,38,46)           107.2208                                         !
 ! A73   A(38,39,40)           119.5087                                         !
 ! A74   A(38,39,51)           116.8062                                         !
 ! A75   A(40,39,51)           123.6684                                         !
 ! A76   A(38,41,42)           113.9483                                         !
 ! A77   A(38,41,47)           108.4365                                         !
 ! A78   A(38,41,48)           108.967                                          !
 ! A79   A(42,41,47)           108.4287                                         !
 ! A80   A(42,41,48)           109.8033                                         !
 ! A81   A(47,41,48)           107.0211                                         !
 ! A82   A(41,42,43)           115.4003                                         !
 ! A83   A(41,42,44)           122.7653                                         !
 ! A84   A(43,42,44)           121.8316                                         !
 ! A85   A(42,43,49)           118.6393                                         !
 ! A86   A(42,43,50)           122.7657                                         !
 ! A87   A(49,43,50)           118.4181                                         !
 ! A88   A(39,51,52)           121.6856                                         !
 ! A89   A(39,51,64)           113.2754                                         !
 ! A90   A(52,51,64)           113.6653                                         !
 ! A91   A(51,52,53)           112.9675                                         !
 ! A92   A(51,52,55)           110.6794                                         !
 ! A93   A(51,52,65)           109.6204                                         !
 ! A94   A(53,52,55)           110.7735                                         !
 ! A95   A(53,52,65)           104.9499                                         !
 ! A96   A(55,52,65)           107.557                                          !
 ! A97   A(52,53,54)           127.3365                                         !
 ! A98   A(52,53,62)           109.7446                                         !
 ! A99   A(54,53,62)           122.8943                                         !
 ! A100  A(52,55,56)           117.9489                                         !
 ! A101  A(52,55,66)           106.9788                                         !
 ! A102  A(52,55,67)           107.2638                                         !
 ! A103  A(56,55,66)           110.2903                                         !
 ! A104  A(56,55,67)           107.636                                          !
 ! A105  A(66,55,67)           106.0911                                         !
 ! A106  A(55,56,57)           118.3854                                         !
 ! A107  A(55,56,68)           105.8232                                         !
 ! A108  A(55,56,69)           110.0301                                         !
 ! A109  A(57,56,68)           108.6673                                         !
 ! A110  A(57,56,69)           108.17                                           !
 ! A111  A(68,56,69)           104.9361                                         !
 ! A112  A(56,57,58)           110.5987                                         !
 ! A113  A(56,57,70)           111.8244                                         !
 ! A114  A(56,57,71)           110.3244                                         !
 ! A115  A(58,57,70)           111.1781                                         !
 ! A116  A(58,57,71)           106.5222                                         !
 ! A117  A(70,57,71)           106.1678                                         !
 ! A118  A(57,58,59)           122.6204                                         !
 ! A119  A(57,58,72)           117.3117                                         !
 ! A120  A(59,58,72)           118.7459                                         !
 ! A121  A(58,59,60)           121.0482                                         !
 ! A122  A(58,59,61)           113.1139                                         !
 ! A123  A(60,59,61)           125.6859                                         !
 ! A124  A(59,60,73)           111.3111                                         !
 ! A125  A(59,61,74)           113.2731                                         !
 ! A126  A(59,61,75)           115.5962                                         !
 ! A127  A(74,61,75)           110.878                                          !
 ! A128  A(53,62,63)           107.85                                           !
 ! D1    D(9,1,2,3)             60.9549                                         !
 ! D2    D(9,1,2,5)            -65.9061                                         !
 ! D3    D(9,1,2,10)           174.3867                                         !
 ! D4    D(15,1,2,3)          -179.9563                                         !
 ! D5    D(15,1,2,5)            53.1827                                         !
 ! D6    D(15,1,2,10)          -66.5245                                         !
 ! D7    D(16,1,2,3)           -56.7919                                         !
 ! D8    D(16,1,2,5)           176.3471                                         !
 ! D9    D(16,1,2,10)           56.6399                                         !
 ! D10   D(1,2,3,4)             44.3126                                         !
 ! D11   D(1,2,3,17)          -132.3165                                         !
 ! D12   D(5,2,3,4)            167.5074                                         !
 ! D13   D(5,2,3,17)            -9.1216                                         !
 ! D14   D(10,2,3,4)           -67.9337                                         !
 ! D15   D(10,2,3,17)          115.4373                                         !
 ! D16   D(1,2,5,6)            -46.5672                                         !
 ! D17   D(1,2,5,11)            73.9411                                         !
 ! D18   D(1,2,5,12)          -168.3459                                         !
 ! D19   D(3,2,5,6)           -166.7279                                         !
 ! D20   D(3,2,5,11)           -46.2195                                         !
 ! D21   D(3,2,5,12)            71.4935                                         !
 ! D22   D(10,2,5,6)            70.2727                                         !
 ! D23   D(10,2,5,11)         -169.2189                                         !
 ! D24   D(10,2,5,12)          -51.5059                                         !
 ! D25   D(2,3,17,18)         -172.3003                                         !
 ! D26   D(2,3,17,28)           -9.0052                                         !
 ! D27   D(4,3,17,18)           11.3213                                         !
 ! D28   D(4,3,17,28)          174.6165                                         !
 ! D29   D(2,5,6,7)           -178.8017                                         !
 ! D30   D(2,5,6,8)              1.7227                                         !
 ! D31   D(11,5,6,7)            59.1015                                         !
 ! D32   D(11,5,6,8)          -120.3741                                         !
 ! D33   D(12,5,6,7)           -57.4467                                         !
 ! D34   D(12,5,6,8)           123.0777                                         !
 ! D35   D(5,6,7,13)          -176.9227                                         !
 ! D36   D(5,6,7,14)            -8.2727                                         !
 ! D37   D(8,6,7,13)             2.5393                                         !
 ! D38   D(8,6,7,14)           171.1893                                         !
 ! D39   D(3,17,18,19)        -129.2935                                         !
 ! D40   D(3,17,18,21)         108.2375                                         !
 ! D41   D(3,17,18,29)         -10.7335                                         !
 ! D42   D(28,17,18,19)         66.2925                                         !
 ! D43   D(28,17,18,21)        -56.1765                                         !
 ! D44   D(28,17,18,29)       -175.1475                                         !
 ! D45   D(17,18,19,20)       -101.1828                                         !
 ! D46   D(17,18,19,37)         76.2155                                         !
 ! D47   D(21,18,19,20)         20.4029                                         !
 ! D48   D(21,18,19,37)       -162.1988                                         !
 ! D49   D(29,18,19,20)        143.1792                                         !
 ! D50   D(29,18,19,37)        -39.4224                                         !
 ! D51   D(17,18,21,22)        -47.8687                                         !
 ! D52   D(17,18,21,30)         74.3586                                         !
 ! D53   D(17,18,21,31)       -170.3251                                         !
 ! D54   D(19,18,21,22)       -166.6786                                         !
 ! D55   D(19,18,21,30)        -44.4514                                         !
 ! D56   D(19,18,21,31)         70.865                                          !
 ! D57   D(29,18,21,22)         69.5412                                         !
 ! D58   D(29,18,21,30)       -168.2316                                         !
 ! D59   D(29,18,21,31)        -52.9152                                         !
 ! D60   D(18,19,37,38)        -10.8707                                         !
 ! D61   D(18,19,37,45)       -179.8153                                         !
 ! D62   D(20,19,37,38)        166.556                                          !
 ! D63   D(20,19,37,45)         -2.3886                                         !
 ! D64   D(18,21,22,23)        -78.989                                          !
 ! D65   D(18,21,22,24)         96.0512                                         !
 ! D66   D(30,21,22,23)        160.178                                          !
 ! D67   D(30,21,22,24)        -24.7819                                         !
 ! D68   D(31,21,22,23)         41.3755                                         !
 ! D69   D(31,21,22,24)       -143.5843                                         !
 ! D70   D(21,22,23,25)        175.0146                                         !
 ! D71   D(21,22,23,32)         -4.7094                                         !
 ! D72   D(24,22,23,25)         -0.1113                                         !
 ! D73   D(24,22,23,32)       -179.8352                                         !
 ! D74   D(21,22,24,26)       -174.9515                                         !
 ! D75   D(21,22,24,33)          5.4492                                         !
 ! D76   D(23,22,24,26)          0.2039                                         !
 ! D77   D(23,22,24,33)       -179.3954                                         !
 ! D78   D(22,23,25,27)         -0.1901                                         !
 ! D79   D(22,23,25,34)        179.7306                                         !
 ! D80   D(32,23,25,27)        179.5333                                         !
 ! D81   D(32,23,25,34)         -0.546                                          !
 ! D82   D(22,24,26,27)          0.0049                                         !
 ! D83   D(22,24,26,35)       -179.2483                                         !
 ! D84   D(33,24,26,27)        179.6023                                         !
 ! D85   D(33,24,26,35)          0.3492                                         !
 ! D86   D(23,25,27,26)          0.4003                                         !
 ! D87   D(23,25,27,36)        179.7372                                         !
 ! D88   D(34,25,27,26)       -179.5202                                         !
 ! D89   D(34,25,27,36)         -0.1833                                         !
 ! D90   D(24,26,27,25)         -0.308                                          !
 ! D91   D(24,26,27,36)       -179.6449                                         !
 ! D92   D(35,26,27,25)        178.9439                                         !
 ! D93   D(35,26,27,36)         -0.393                                          !
 ! D94   D(19,37,38,39)        -92.2298                                         !
 ! D95   D(19,37,38,41)        142.7612                                         !
 ! D96   D(19,37,38,46)         24.4776                                         !
 ! D97   D(45,37,38,39)         76.5307                                         !
 ! D98   D(45,37,38,41)        -48.4783                                         !
 ! D99   D(45,37,38,46)       -166.7619                                         !
 ! D100  D(37,38,39,40)        148.3166                                         !
 ! D101  D(37,38,39,51)        -33.1195                                         !
 ! D102  D(41,38,39,40)        -86.1628                                         !
 ! D103  D(41,38,39,51)         92.4011                                         !
 ! D104  D(46,38,39,40)         28.2023                                         !
 ! D105  D(46,38,39,51)       -153.2338                                         !
 ! D106  D(37,38,41,42)         56.4377                                         !
 ! D107  D(37,38,41,47)        -64.4047                                         !
 ! D108  D(37,38,41,48)        179.4374                                         !
 ! D109  D(39,38,41,42)        -71.446                                          !
 ! D110  D(39,38,41,47)        167.7116                                         !
 ! D111  D(39,38,41,48)         51.5537                                         !
 ! D112  D(46,38,41,42)        176.3571                                         !
 ! D113  D(46,38,41,47)         55.5147                                         !
 ! D114  D(46,38,41,48)        -60.6433                                         !
 ! D115  D(38,39,51,52)       -162.4328                                         !
 ! D116  D(38,39,51,64)        -21.2621                                         !
 ! D117  D(40,39,51,52)         16.0655                                         !
 ! D118  D(40,39,51,64)        157.2362                                         !
 ! D119  D(38,41,42,43)        176.9277                                         !
 ! D120  D(38,41,42,44)         -3.6666                                         !
 ! D121  D(47,41,42,43)        -62.2256                                         !
 ! D122  D(47,41,42,44)        117.1802                                         !
 ! D123  D(48,41,42,43)         54.3852                                         !
 ! D124  D(48,41,42,44)       -126.2091                                         !
 ! D125  D(41,42,43,49)        176.8247                                         !
 ! D126  D(41,42,43,50)          1.7394                                         !
 ! D127  D(44,42,43,49)         -2.5872                                         !
 ! D128  D(44,42,43,50)       -177.6725                                         !
 ! D129  D(39,51,52,53)        -56.7199                                         !
 ! D130  D(39,51,52,55)        178.4106                                         !
 ! D131  D(39,51,52,65)         59.9299                                         !
 ! D132  D(64,51,52,53)        162.2461                                         !
 ! D133  D(64,51,52,55)         37.3765                                         !
 ! D134  D(64,51,52,65)        -81.1041                                         !
 ! D135  D(51,52,53,54)        -19.1315                                         !
 ! D136  D(51,52,53,62)        162.6466                                         !
 ! D137  D(55,52,53,54)        105.6869                                         !
 ! D138  D(55,52,53,62)        -72.535                                          !
 ! D139  D(65,52,53,54)       -138.5139                                         !
 ! D140  D(65,52,53,62)         43.2642                                         !
 ! D141  D(51,52,55,56)         43.4392                                         !
 ! D142  D(51,52,55,66)        168.3604                                         !
 ! D143  D(51,52,55,67)        -78.1642                                         !
 ! D144  D(53,52,55,56)        -82.6657                                         !
 ! D145  D(53,52,55,66)         42.2555                                         !
 ! D146  D(53,52,55,67)        155.7309                                         !
 ! D147  D(65,52,55,56)        163.1665                                         !
 ! D148  D(65,52,55,66)        -71.9123                                         !
 ! D149  D(65,52,55,67)         41.5631                                         !
 ! D150  D(52,53,62,63)        176.9902                                         !
 ! D151  D(54,53,62,63)         -1.3262                                         !
 ! D152  D(52,55,56,57)         50.7326                                         !
 ! D153  D(52,55,56,68)        172.8251                                         !
 ! D154  D(52,55,56,69)        -74.3161                                         !
 ! D155  D(66,55,56,57)        -72.5387                                         !
 ! D156  D(66,55,56,68)         49.5537                                         !
 ! D157  D(66,55,56,69)        162.4126                                         !
 ! D158  D(67,55,56,57)        172.1451                                         !
 ! D159  D(67,55,56,68)        -65.7624                                         !
 ! D160  D(67,55,56,69)         47.0964                                         !
 ! D161  D(55,56,57,58)       -103.2251                                         !
 ! D162  D(55,56,57,70)         21.2643                                         !
 ! D163  D(55,56,57,71)        139.1815                                         !
 ! D164  D(68,56,57,58)        136.1308                                         !
 ! D165  D(68,56,57,70)        -99.3797                                         !
 ! D166  D(68,56,57,71)         18.5374                                         !
 ! D167  D(69,56,57,58)         22.7267                                         !
 ! D168  D(69,56,57,70)        147.2161                                         !
 ! D169  D(69,56,57,71)        -94.8667                                         !
 ! D170  D(56,57,58,59)       -159.1255                                         !
 ! D171  D(56,57,58,72)         34.1838                                         !
 ! D172  D(70,57,58,59)         76.017                                          !
 ! D173  D(70,57,58,72)        -90.6737                                         !
 ! D174  D(71,57,58,59)        -39.2228                                         !
 ! D175  D(71,57,58,72)        154.0865                                         !
 ! D176  D(57,58,59,60)        -12.8185                                         !
 ! D177  D(57,58,59,61)        171.418                                          !
 ! D178  D(72,58,59,60)        153.6903                                         !
 ! D179  D(72,58,59,61)        -22.0732                                         !
 ! D180  D(58,59,60,73)        170.6161                                         !
 ! D181  D(61,59,60,73)        -14.1823                                         !
 ! D182  D(58,59,61,74)       -167.1496                                         !
 ! D183  D(58,59,61,75)        -37.6406                                         !
 ! D184  D(60,59,61,74)         17.3194                                         !
 ! D185  D(60,59,61,75)        146.8284                                         !
 --------------------------------------------------------------------------------
 Symmetry turned off by external request.
 Stoichiometry    C23H36N9O7(1+)
 Framework group  C1[X(C23H36N9O7)]
 Deg. of freedom   219
 Full point group                 C1      NOp   1
                          Input orientation:                          
 ---------------------------------------------------------------------
 Center     Atomic      Atomic             Coordinates (Angstroms)
 Number     Number       Type             X           Y           Z
 ---------------------------------------------------------------------
      1          7           0       -7.405196    1.606309   -7.316691
      2          6           0       -6.166003    0.780343   -7.551965
      3          6           0       -6.478133   -0.061935   -8.800282
      4          8           0       -7.016537    0.488917   -9.758040
      5          6           0       -5.775315    0.016434   -6.290439
      6          6           0       -5.789615    0.864404   -5.015712
      7          7           0       -5.422137    0.201304   -3.910005
      8          8           0       -6.126591    2.059106   -5.029531
      9          1           0       -8.221019    0.993733   -7.143401
     10          1           0       -5.382051    1.492976   -7.825540
     11          1           0       -6.459629   -0.815245   -6.130929
     12          1           0       -4.772313   -0.396975   -6.434702
     13          1           0       -5.457774    0.696691   -3.028689
     14          1           0       -5.278911   -0.818302   -3.916478
     15          1           0       -7.195886    2.181005   -6.468616
     16          1           0       -7.608725    2.153953   -8.158473
     17          7           0       -6.195718   -1.378514   -8.722267
     18          6           0       -6.283648   -2.268398   -9.876703
     19          6           0       -7.134981   -3.469715   -9.429458
     20          8           0       -6.623211   -4.542491   -9.115952
     21          6           0       -4.877704   -2.690219  -10.359452
     22          6           0       -3.974816   -1.483437  -10.476358
     23          6           0       -4.057200   -0.627800  -11.581188
     24          6           0       -3.109331   -1.142813   -9.427959
     25          6           0       -3.296175    0.540481  -11.637309
     26          6           0       -2.346746    0.025519   -9.477220
     27          6           0       -2.441803    0.872757  -10.583579
     28          1           0       -5.673845   -1.766365   -7.934133
     29          1           0       -6.783036   -1.706572  -10.668511
     30          1           0       -4.469176   -3.421499   -9.656916
     31          1           0       -4.987723   -3.207343  -11.319059
     32          1           0       -4.725929   -0.875792  -12.402343
     33          1           0       -3.028633   -1.804740   -8.567607
     34          1           0       -3.369306    1.190703  -12.504356
     35          1           0       -1.671566    0.267912   -8.660781
     36          1           0       -1.846203    1.779976  -10.629131
     37          7           0       -8.486948   -3.289944   -9.338594
     38          6           0       -9.254876   -2.053846   -9.399845
     39          6           0       -9.533380   -1.389216   -8.026500
     40          8           0       -9.618851   -0.162693   -7.952260
     41          6           0      -10.584982   -2.273908  -10.151819
     42          6           0      -11.460048   -3.382006   -9.556563
     43          7           0      -12.657819   -3.555565  -10.151407
     44          8           0      -11.097226   -4.082433   -8.603268
     45          1           0       -8.994848   -4.115951   -9.036202
     46          1           0       -8.695155   -1.295108   -9.948836
     47          1           0      -10.356164   -2.534165  -11.192538
     48          1           0      -11.143193   -1.330339  -10.172210
     49          1           0      -13.255100   -4.306171   -9.829253
     50          1           0      -12.954131   -3.015250  -10.951604
     51          7           0       -9.700333   -2.223899   -6.962433
     52          6           0      -10.327794   -1.771665   -5.723986
     53          6           0       -9.628206   -0.568584   -5.108843
     54          8           0       -8.498745   -0.181203   -5.329380
     55          6           0      -10.423390   -2.935930   -4.700683
     56          6           0       -9.194299   -3.854889   -4.533361
     57          6           0       -7.814786   -3.200373   -4.291151
     58          7           0       -7.013681   -3.223624   -5.511831
     59          6           0       -5.653331   -3.107087   -5.501775
     60          7           0       -5.023744   -2.726104   -4.436821
     61          7           0       -5.068179   -3.346329   -6.761527
     62          8           0      -10.440267    0.021893   -4.219110
     63          1           0       -9.948372    0.758283   -3.807531
     64          1           0       -9.961839   -3.171885   -7.231209
     65          1           0      -11.350114   -1.428964   -5.932329
     66          1           0      -10.700581   -2.493833   -3.738491
     67          1           0      -11.269647   -3.564586   -5.001266
     68          1           0       -9.424713   -4.510653   -3.686784
     69          1           0       -9.107367   -4.526861   -5.396031
     70          1           0       -7.910497   -2.180828   -3.899573
     71          1           0       -7.254071   -3.763248   -3.540621
     72          1           0       -7.504103   -3.122966   -6.390852
     73          1           0       -4.015048   -2.837332   -4.542627
     74          1           0       -4.061701   -3.465577   -6.719801
     75          1           0       -5.500089   -4.088450   -7.315016
 ---------------------------------------------------------------------
 Rotational constants (GHZ):           0.1210586           0.0882734           0.0698064
 Standard basis: 6-31G(d) (6D, 7F)
   657 basis functions,  1236 primitive gaussians,   657 cartesian basis functions
   146 alpha electrons      146 beta electrons
       nuclear repulsion energy      5200.6155696036 Hartrees.
 NAtoms=   75 NActive=   75 NUniq=   75 SFac= 1.00D+00 NAtFMM=   60 NAOKFM=T Big=T
 Integral buffers will be    131072 words long.
 Raffenetti 2 integral format.
 Two-electron integral symmetry is turned off.
 Nuclear repulsion after empirical dispersion term =     5200.4919451841 Hartrees.
 One-electron integrals computed using PRISM.
 NBasis=   657 RedAO= T EigKep=  4.59D-04  NBF=   657
 NBsUse=   657 1.00D-06 EigRej= -1.00D+00 NBFU=   657
 Initial guess from the checkpoint file:  "conf-304.chk"
 B after Tr=     0.000000    0.000000    0.000000
         Rot=    1.000000    0.000000    0.000000    0.000000 Ang=   0.00 deg.
 Requested convergence on RMS density matrix=1.00D-08 within 128 cycles.
 Requested convergence on MAX density matrix=1.00D-06.
 Requested convergence on             energy=1.00D-06.
 No special actions if energy rises.
 SCF Done:  E(RB3LYP) =  -1917.50396285     A.U. after    3 cycles
            NFock=  3  Conv=0.62D-09     -V/T= 2.0093

 **********************************************************************

            Population analysis using the SCF Density.

 **********************************************************************

 Alpha  occ. eigenvalues --  -19.31560 -19.26208 -19.24609 -19.24187 -19.23331
 Alpha  occ. eigenvalues --  -19.22652 -19.22307 -14.54328 -14.47990 -14.47721
 Alpha  occ. eigenvalues --  -14.47459 -14.47068 -14.45673 -14.45087 -14.44485
 Alpha  occ. eigenvalues --  -14.39316 -10.44488 -10.41809 -10.41317 -10.40819
 Alpha  occ. eigenvalues --  -10.40043 -10.39795 -10.39068 -10.37258 -10.35845
 Alpha  occ. eigenvalues --  -10.35826 -10.34035 -10.32421 -10.31443 -10.31110
 Alpha  occ. eigenvalues --  -10.30507 -10.29258 -10.28437 -10.28014 -10.27332
 Alpha  occ. eigenvalues --  -10.27137 -10.26902 -10.26820 -10.26759  -1.22908
 Alpha  occ. eigenvalues --   -1.16487  -1.15756  -1.15612  -1.14515  -1.13892
 Alpha  occ. eigenvalues --   -1.13615  -1.09255  -1.08276  -1.05316  -1.04548
 Alpha  occ. eigenvalues --   -1.03216  -1.02601  -1.00078  -0.99172  -0.94641
 Alpha  occ. eigenvalues --   -0.93791  -0.91443  -0.90834  -0.89611  -0.87589
 Alpha  occ. eigenvalues --   -0.85367  -0.83029  -0.82428  -0.80121  -0.79665
 Alpha  occ. eigenvalues --   -0.78890  -0.75854  -0.74313  -0.71759  -0.71320
 Alpha  occ. eigenvalues --   -0.70379  -0.70232  -0.69965  -0.69672  -0.69075
 Alpha  occ. eigenvalues --   -0.68534  -0.68338  -0.67210  -0.66421  -0.65610
 Alpha  occ. eigenvalues --   -0.64799  -0.63854  -0.63165  -0.62930  -0.62352
 Alpha  occ. eigenvalues --   -0.61981  -0.61162  -0.60717  -0.60447  -0.59523
 Alpha  occ. eigenvalues --   -0.58953  -0.58326  -0.57786  -0.57265  -0.56795
 Alpha  occ. eigenvalues --   -0.56506  -0.56448  -0.56143  -0.55677  -0.54953
 Alpha  occ. eigenvalues --   -0.54465  -0.54129  -0.53795  -0.53529  -0.53164
 Alpha  occ. eigenvalues --   -0.53033  -0.52465  -0.52276  -0.51797  -0.51419
 Alpha  occ. eigenvalues --   -0.51112  -0.50619  -0.50395  -0.50089  -0.49886
 Alpha  occ. eigenvalues --   -0.48896  -0.48690  -0.48682  -0.48163  -0.47862
 Alpha  occ. eigenvalues --   -0.47682  -0.46730  -0.45677  -0.45542  -0.44819
 Alpha  occ. eigenvalues --   -0.44481  -0.43758  -0.43649  -0.42135  -0.42017
 Alpha  occ. eigenvalues --   -0.40636  -0.39976  -0.39259  -0.38602  -0.38130
 Alpha  occ. eigenvalues --   -0.37846  -0.37742  -0.37443  -0.36688  -0.36503
 Alpha  occ. eigenvalues --   -0.36125  -0.35648  -0.35249  -0.33038  -0.32968
 Alpha  occ. eigenvalues --   -0.32467
 Alpha virt. eigenvalues --   -0.12104  -0.11235  -0.10820  -0.09709  -0.08968
 Alpha virt. eigenvalues --   -0.08441  -0.08312  -0.07568  -0.05762  -0.04631
 Alpha virt. eigenvalues --   -0.03644  -0.03413  -0.02896  -0.02462  -0.00354
 Alpha virt. eigenvalues --    0.00004   0.00562   0.00888   0.01392   0.01702
 Alpha virt. eigenvalues --    0.02258   0.02513   0.03247   0.03484   0.03702
 Alpha virt. eigenvalues --    0.04104   0.04401   0.04515   0.04576   0.05098
 Alpha virt. eigenvalues --    0.05380   0.05668   0.05980   0.06437   0.06614
 Alpha virt. eigenvalues --    0.07180   0.07571   0.07852   0.07941   0.08785
 Alpha virt. eigenvalues --    0.08800   0.09118   0.09548   0.09740   0.10429
 Alpha virt. eigenvalues --    0.10608   0.11197   0.11589   0.11816   0.12363
 Alpha virt. eigenvalues --    0.12391   0.12996   0.13283   0.13486   0.13833
 Alpha virt. eigenvalues --    0.14676   0.14980   0.15273   0.15293   0.15985
 Alpha virt. eigenvalues --    0.16493   0.18169   0.18483   0.19334   0.19675
 Alpha virt. eigenvalues --    0.21226   0.22095   0.22922   0.23400   0.23491
 Alpha virt. eigenvalues --    0.24522   0.25183   0.25639   0.25849   0.26545
 Alpha virt. eigenvalues --    0.26700   0.27458   0.28561   0.29789   0.30424
 Alpha virt. eigenvalues --    0.31398   0.32645   0.34374   0.36078   0.37018
 Alpha virt. eigenvalues --    0.37487   0.38154   0.39294   0.40503   0.41410
 Alpha virt. eigenvalues --    0.41854   0.42305   0.42978   0.43222   0.43852
 Alpha virt. eigenvalues --    0.44440   0.44630   0.45783   0.45835   0.46381
 Alpha virt. eigenvalues --    0.46879   0.47295   0.47427   0.47888   0.48024
 Alpha virt. eigenvalues --    0.48741   0.48965   0.49315   0.49859   0.50094
 Alpha virt. eigenvalues --    0.50456   0.50674   0.51219   0.51426   0.51999
 Alpha virt. eigenvalues --    0.52320   0.52423   0.52866   0.53202   0.53668
 Alpha virt. eigenvalues --    0.53952   0.54123   0.54386   0.54475   0.55030
 Alpha virt. eigenvalues --    0.55619   0.55871   0.56171   0.56396   0.56871
 Alpha virt. eigenvalues --    0.57222   0.57879   0.58174   0.58835   0.59176
 Alpha virt. eigenvalues --    0.59568   0.60407   0.60780   0.61969   0.62931
 Alpha virt. eigenvalues --    0.63274   0.63788   0.64358   0.64855   0.65371
 Alpha virt. eigenvalues --    0.66066   0.66577   0.66746   0.66898   0.67612
 Alpha virt. eigenvalues --    0.68232   0.68843   0.69274   0.70156   0.70541
 Alpha virt. eigenvalues --    0.71080   0.71408   0.72207   0.73059   0.73412
 Alpha virt. eigenvalues --    0.73559   0.73741   0.74292   0.74612   0.74952
 Alpha virt. eigenvalues --    0.75554   0.76037   0.76275   0.76488   0.76848
 Alpha virt. eigenvalues --    0.76988   0.77150   0.77500   0.77875   0.78480
 Alpha virt. eigenvalues --    0.78763   0.78965   0.79578   0.80425   0.80683
 Alpha virt. eigenvalues --    0.81091   0.81286   0.82139   0.82219   0.82630
 Alpha virt. eigenvalues --    0.83127   0.83585   0.83634   0.84365   0.84948
 Alpha virt. eigenvalues --    0.85193   0.85601   0.86008   0.86251   0.86621
 Alpha virt. eigenvalues --    0.87442   0.87664   0.88161   0.88250   0.88615
 Alpha virt. eigenvalues --    0.88967   0.88989   0.90581   0.91094   0.91874
 Alpha virt. eigenvalues --    0.92631   0.93294   0.93570   0.94334   0.94779
 Alpha virt. eigenvalues --    0.95922   0.96242   0.96492   0.97097   0.97295
 Alpha virt. eigenvalues --    0.97716   0.99818   1.00491   1.01264   1.02743
 Alpha virt. eigenvalues --    1.03219   1.03726   1.04292   1.05298   1.05686
 Alpha virt. eigenvalues --    1.05840   1.06730   1.07104   1.07588   1.07936
 Alpha virt. eigenvalues --    1.08647   1.09312   1.10107   1.10707   1.11486
 Alpha virt. eigenvalues --    1.11602   1.13588   1.14008   1.15624   1.16147
 Alpha virt. eigenvalues --    1.17732   1.18159   1.19493   1.19870   1.21339
 Alpha virt. eigenvalues --    1.21476   1.21707   1.22208   1.23169   1.23521
 Alpha virt. eigenvalues --    1.25312   1.25909   1.26731   1.27070   1.27397
 Alpha virt. eigenvalues --    1.28509   1.29509   1.29925   1.30062   1.30743
 Alpha virt. eigenvalues --    1.32023   1.32362   1.34007   1.34681   1.35171
 Alpha virt. eigenvalues --    1.35728   1.37016   1.37743   1.37996   1.38671
 Alpha virt. eigenvalues --    1.39560   1.40008   1.41105   1.41456   1.42903
 Alpha virt. eigenvalues --    1.43470   1.43577   1.45260   1.45444   1.45926
 Alpha virt. eigenvalues --    1.47269   1.48572   1.49742   1.50405   1.51665
 Alpha virt. eigenvalues --    1.51883   1.52904   1.53438   1.54561   1.55349
 Alpha virt. eigenvalues --    1.55603   1.56765   1.56982   1.57821   1.59773
 Alpha virt. eigenvalues --    1.59948   1.60896   1.61195   1.61664   1.62102
 Alpha virt. eigenvalues --    1.62575   1.63956   1.64503   1.64991   1.65698
 Alpha virt. eigenvalues --    1.66122   1.67620   1.67947   1.69283   1.70251
 Alpha virt. eigenvalues --    1.71034   1.71071   1.71841   1.72109   1.72581
 Alpha virt. eigenvalues --    1.72845   1.73239   1.74017   1.74191   1.75003
 Alpha virt. eigenvalues --    1.75395   1.75746   1.76385   1.76689   1.77368
 Alpha virt. eigenvalues --    1.77494   1.78535   1.79179   1.79644   1.79767
 Alpha virt. eigenvalues --    1.80463   1.81266   1.81620   1.82472   1.82679
 Alpha virt. eigenvalues --    1.83458   1.84345   1.85414   1.85444   1.86459
 Alpha virt. eigenvalues --    1.86705   1.86975   1.87641   1.89607   1.89632
 Alpha virt. eigenvalues --    1.90111   1.90341   1.90980   1.91893   1.92378
 Alpha virt. eigenvalues --    1.92773   1.93594   1.93743   1.94622   1.95247
 Alpha virt. eigenvalues --    1.95536   1.96604   1.97102   1.97492   1.98140
 Alpha virt. eigenvalues --    1.98633   1.99085   2.00428   2.00500   2.01934
 Alpha virt. eigenvalues --    2.03512   2.03664   2.04111   2.05291   2.06473
 Alpha virt. eigenvalues --    2.06692   2.07095   2.08160   2.08623   2.09203
 Alpha virt. eigenvalues --    2.09930   2.11022   2.12499   2.13061   2.13427
 Alpha virt. eigenvalues --    2.14362   2.15275   2.15772   2.16321   2.17476
 Alpha virt. eigenvalues --    2.18709   2.19819   2.20026   2.21130   2.21763
 Alpha virt. eigenvalues --    2.22901   2.23118   2.23955   2.25428   2.25736
 Alpha virt. eigenvalues --    2.27636   2.27960   2.28574   2.29646   2.29979
 Alpha virt. eigenvalues --    2.30914   2.31905   2.32304   2.32467   2.33063
 Alpha virt. eigenvalues --    2.33545   2.34353   2.35388   2.36549   2.38455
 Alpha virt. eigenvalues --    2.39342   2.40352   2.41326   2.42317   2.42883
 Alpha virt. eigenvalues --    2.43943   2.44507   2.46442   2.46967   2.48326
 Alpha virt. eigenvalues --    2.49135   2.49501   2.50115   2.50474   2.51200
 Alpha virt. eigenvalues --    2.52198   2.52714   2.52796   2.53563   2.54003
 Alpha virt. eigenvalues --    2.54244   2.56596   2.57742   2.57872   2.58700
 Alpha virt. eigenvalues --    2.60207   2.61823   2.62186   2.63343   2.63815
 Alpha virt. eigenvalues --    2.64146   2.64500   2.66107   2.66741   2.67005
 Alpha virt. eigenvalues --    2.68956   2.69604   2.72664   2.73225   2.74709
 Alpha virt. eigenvalues --    2.76410   2.76876   2.80718   2.83695   2.86945
 Alpha virt. eigenvalues --    2.87948   2.89269   2.89677   2.90292   2.91107
 Alpha virt. eigenvalues --    2.92646   2.94865   2.97097   2.97192   2.98947
 Alpha virt. eigenvalues --    2.99343   3.00393   3.02025   3.05088   3.06619
 Alpha virt. eigenvalues --    3.08744   3.32994   3.69361   3.73083   3.78241
 Alpha virt. eigenvalues --    3.81605   3.84051   3.87800   3.89815   3.92459
 Alpha virt. eigenvalues --    3.97353   3.99102   3.99444   4.01024   4.02251
 Alpha virt. eigenvalues --    4.04762   4.05279   4.09422   4.10015   4.12495
 Alpha virt. eigenvalues --    4.12958   4.17764   4.18087   4.20404   4.24377
 Alpha virt. eigenvalues --    4.25222   4.28358   4.30849   4.31819   4.36053
 Alpha virt. eigenvalues --    4.37514   4.37845   4.40461   4.41363   4.46253
 Alpha virt. eigenvalues --    4.50471   4.55182   4.58905   4.63072   4.66244
 Alpha virt. eigenvalues --    4.69209
          Condensed to atoms (all electrons):
 Mulliken charges:
               1
     1  N   -0.769148
     2  C   -0.124306
     3  C    0.658087
     4  O   -0.535864
     5  C   -0.428984
     6  C    0.643132
     7  N   -0.774884
     8  O   -0.562804
     9  H    0.456193
    10  H    0.230865
    11  H    0.225280
    12  H    0.195999
    13  H    0.350920
    14  H    0.412038
    15  H    0.428015
    16  H    0.405726
    17  N   -0.659865
    18  C   -0.070058
    19  C    0.617523
    20  O   -0.516788
    21  C   -0.371173
    22  C    0.170944
    23  C   -0.168070
    24  C   -0.197534
    25  C   -0.126052
    26  C   -0.138512
    27  C   -0.132714
    28  H    0.422411
    29  H    0.199766
    30  H    0.168423
    31  H    0.177477
    32  H    0.135070
    33  H    0.107653
    34  H    0.150102
    35  H    0.141258
    36  H    0.149212
    37  N   -0.617370
    38  C   -0.088503
    39  C    0.631074
    40  O   -0.555292
    41  C   -0.390687
    42  C    0.612757
    43  N   -0.728769
    44  O   -0.541022
    45  H    0.362823
    46  H    0.216676
    47  H    0.205888
    48  H    0.207148
    49  H    0.369739
    50  H    0.363785
    51  N   -0.636858
    52  C   -0.015367
    53  C    0.618002
    54  O   -0.502331
    55  C   -0.325060
    56  C   -0.309408
    57  C   -0.108203
    58  N   -0.608170
    59  C    0.610941
    60  N   -0.686762
    61  N   -0.831069
    62  O   -0.547624
    63  H    0.431079
    64  H    0.382718
    65  H    0.198074
    66  H    0.187797
    67  H    0.180614
    68  H    0.179425
    69  H    0.159378
    70  H    0.157172
    71  H    0.191247
    72  H    0.344560
    73  H    0.288644
    74  H    0.343048
    75  H    0.380566
 Sum of Mulliken charges =   1.00000
 Mulliken charges with hydrogens summed into heavy atoms:
               1
     1  N    0.520785
     2  C    0.106559
     3  C    0.658087
     4  O   -0.535864
     5  C   -0.007705
     6  C    0.643132
     7  N   -0.011925
     8  O   -0.562804
    17  N   -0.237454
    18  C    0.129709
    19  C    0.617523
    20  O   -0.516788
    21  C   -0.025274
    22  C    0.170944
    23  C   -0.033000
    24  C   -0.089881
    25  C    0.024050
    26  C    0.002747
    27  C    0.016498
    37  N   -0.254548
    38  C    0.128173
    39  C    0.631074
    40  O   -0.555292
    41  C    0.022349
    42  C    0.612757
    43  N    0.004755
    44  O   -0.541022
    51  N   -0.254140
    52  C    0.182707
    53  C    0.618002
    54  O   -0.502331
    55  C    0.043351
    56  C    0.029396
    57  C    0.240216
    58  N   -0.263610
    59  C    0.610941
    60  N   -0.398117
    61  N   -0.107455
    62  O   -0.116545
 Electronic spatial extent (au):  <R**2>=         135544.8505
 Charge=              1.0000 electrons
 Dipole moment (field-independent basis, Debye):
    X=            -41.1262    Y=             -6.2776    Z=            -36.7059  Tot=             55.4806
 Quadrupole moment (field-independent basis, Debye-Ang):
   XX=            191.7932   YY=           -200.8869   ZZ=            100.3852
   XY=             70.9510   XZ=            328.7148   YZ=             51.6502
 Traceless Quadrupole moment (field-independent basis, Debye-Ang):
   XX=            161.3627   YY=           -231.3174   ZZ=             69.9547
   XY=             70.9510   XZ=            328.7148   YZ=             51.6502
 Octapole moment (field-independent basis, Debye-Ang**2):
  XXX=            257.7284  YYY=            997.4620  ZZZ=           2019.6002  XYY=           1364.6082
  XXY=           -544.5265  XXZ=          -1765.1820  XZZ=          -1427.2368  YZZ=           -150.9830
  YYZ=           1537.4888  XYZ=           -657.9206
 Hexadecapole moment (field-independent basis, Debye-Ang**3):
 XXXX=         -26341.2077 YYYY=          -7594.2038 ZZZZ=         -54543.2202 XXXY=           2886.9212
 XXXZ=           4079.5012 YYYX=          -8134.7823 YYYZ=          -7881.3787 ZZZX=          -5759.6970
 ZZZY=          -2698.5761 XXYY=         -11337.3184 XXZZ=           5628.3699 YYZZ=         -14073.5996
 XXYZ=           5888.5579 YYXZ=          -9993.1694 ZZXY=           3934.5856
 N-N= 5.200491945184D+03 E-N=-1.484075780618D+04  KE= 1.899809954488D+03
 Unable to Open any file for archive entry.
 1\1\GINC-AMR-243\SP\RB3LYP\6-31G(d)\C23H36N9O7(1+)\KENGMITH\06-Jun-202
 2\0\\# B3LYP/6-31G* empiricaldispersion=gd3 guess=read geom=check nosy
 mm integral(ultrafinegrid)\\Candidate Structure: Conf:304 Charge calc 
 in gas phase\\1,1\N,0,-7.4051964567,1.6063094271,-7.31669096\C,0,-6.16
 60026749,0.7803431346,-7.5519652252\C,0,-6.4781326562,-0.0619350209,-8
 .8002816367\O,0,-7.0165372142,0.4889169746,-9.7580398396\C,0,-5.775314
 6541,0.0164335869,-6.2904387789\C,0,-5.7896145634,0.8644037627,-5.0157
 12346\N,0,-5.422137143,0.2013041457,-3.9100053574\O,0,-6.1265910023,2.
 059105899,-5.0295308336\H,0,-8.2210193855,0.9937325205,-7.1434008555\H
 ,0,-5.3820507767,1.4929756265,-7.8255403264\H,0,-6.4596286149,-0.81524
 51949,-6.1309291064\H,0,-4.7723131922,-0.39697463,-6.4347017053\H,0,-5
 .4577737812,0.6966910296,-3.0286893981\H,0,-5.2789106072,-0.8183017486
 ,-3.9164783668\H,0,-7.1958864217,2.1810053049,-6.4686157409\H,0,-7.608
 7249938,2.1539529907,-8.1584731209\N,0,-6.1957177047,-1.37851373,-8.72
 22665173\C,0,-6.2836479635,-2.2683980476,-9.8767034209\C,0,-7.13498063
 35,-3.4697146841,-9.4294579963\O,0,-6.623211171,-4.5424911175,-9.11595
 23176\C,0,-4.8777037683,-2.6902191962,-10.3594516331\C,0,-3.9748164435
 ,-1.4834373645,-10.4763577743\C,0,-4.0572000204,-0.6278003279,-11.5811
 881775\C,0,-3.109330806,-1.1428134036,-9.4279587651\C,0,-3.2961746064,
 0.5404814245,-11.6373091262\C,0,-2.3467457248,0.0255186785,-9.47722008
 75\C,0,-2.4418027879,0.872757321,-10.5835787093\H,0,-5.6738454156,-1.7
 663647513,-7.9341329331\H,0,-6.7830360591,-1.7065724118,-10.6685109488
 \H,0,-4.4691759484,-3.4214985221,-9.6569160899\H,0,-4.9877232566,-3.20
 73431473,-11.3190589149\H,0,-4.7259285464,-0.875791895,-12.4023433171\
 H,0,-3.0286332449,-1.8047399652,-8.5676065868\H,0,-3.3693056577,1.1907
 030376,-12.5043558784\H,0,-1.6715664647,0.2679117192,-8.6607809534\H,0
 ,-1.8462031818,1.7799763919,-10.6291314517\N,0,-8.4869477002,-3.289944
 1061,-9.3385938414\C,0,-9.2548762558,-2.0538458538,-9.3998448884\C,0,-
 9.5333798962,-1.3892160346,-8.0264998461\O,0,-9.6188514405,-0.16269282
 16,-7.9522601547\C,0,-10.5849823416,-2.273908262,-10.1518187847\C,0,-1
 1.4600481719,-3.3820063757,-9.5565625786\N,0,-12.6578193428,-3.5555649
 534,-10.1514072571\O,0,-11.0972261469,-4.0824329777,-8.6032682385\H,0,
 -8.9948475434,-4.1159511114,-9.0362018098\H,0,-8.6951551234,-1.2951079
 251,-9.9488360977\H,0,-10.3561636463,-2.5341651281,-11.1925381382\H,0,
 -11.1431933426,-1.3303385109,-10.1722099055\H,0,-13.2551004286,-4.3061
 705868,-9.8292531619\H,0,-12.9541310619,-3.0152495394,-10.9516035167\N
 ,0,-9.700333095,-2.2238990744,-6.9624328014\C,0,-10.3277938569,-1.7716
 650528,-5.7239863462\C,0,-9.6282064374,-0.5685842725,-5.1088434431\O,0
 ,-8.4987452282,-0.181203215,-5.3293802803\C,0,-10.4233900568,-2.935930
 2506,-4.700682858\C,0,-9.1942987202,-3.8548885843,-4.5333610544\C,0,-7
 .8147858373,-3.200372633,-4.2911514154\N,0,-7.0136806509,-3.2236235901
 ,-5.5118312019\C,0,-5.6533313344,-3.1070866929,-5.501774541\N,0,-5.023
 7436916,-2.7261039978,-4.4368211536\N,0,-5.0681791529,-3.3463288395,-6
 .7615267082\O,0,-10.4402669136,0.0218932391,-4.2191101444\H,0,-9.94837
 22917,0.7582834428,-3.807530904\H,0,-9.9618392889,-3.1718845587,-7.231
 2090827\H,0,-11.3501135479,-1.4289644911,-5.9323286372\H,0,-10.7005808
 191,-2.4938328513,-3.7384909349\H,0,-11.269646959,-3.5645861766,-5.001
 2659239\H,0,-9.4247128792,-4.5106531765,-3.6867838727\H,0,-9.107366999
 7,-4.526860734,-5.3960311871\H,0,-7.910496918,-2.1808278567,-3.8995729
 481\H,0,-7.2540708808,-3.7632477704,-3.5406208934\H,0,-7.5041032451,-3
 .1229657705,-6.3908515258\H,0,-4.0150480762,-2.8373321521,-4.542627388
 4\H,0,-4.0617009812,-3.465576647,-6.7198012419\H,0,-5.5000888124,-4.08
 84497141,-7.3150159158\\Version=ES64L-G16RevC.01\HF=-1917.5039629\RMSD
 =6.218e-10\Dipole=-2.3900391,0.3350445,-0.0158683\Quadrupole=119.96920
 31,-171.9788104,52.0096073,52.7503222,244.3914302,38.4006303\PG=C01 [X
 (C23H36N9O7)]\\@
 The archive entry for this job was punched.


 MICRO CREDO - NEVER TRUST A COMPUTER BIGGER
               BIGGER THAN YOU CAN LIFT.
 Job cpu time:       0 days  0 hours  5 minutes 26.0 seconds.
 Elapsed time:       0 days  0 hours  1 minutes 22.3 seconds.
 File lengths (MBytes):  RWF=    344 Int=      0 D2E=      0 Chk=     48 Scr=     16
 Normal termination of Gaussian 16 at Mon Jun  6 02:42:21 2022.
