 Entering Gaussian System, Link 0=/opt/software/Gaussian/g16-AVX2-C.01/g16/g16
 Input=charge-conf-255.com
 Output=charge-conf-255.log
 Initial command:
 /opt/software/Gaussian/g16-AVX2-C.01/g16/l1.exe "/mnt/gs18/scratch/users/kengmith/Gau-56915.inp" -scrdir="/mnt/gs18/scratch/users/kengmith/"
 Entering Link 1 = /opt/software/Gaussian/g16-AVX2-C.01/g16/l1.exe PID=     56941.
  
 Copyright (c) 1988-2019, Gaussian, Inc.  All Rights Reserved.
  
 This is part of the Gaussian(R) 16 program.  It is based on
 the Gaussian(R) 09 system (copyright 2009, Gaussian, Inc.),
 the Gaussian(R) 03 system (copyright 2003, Gaussian, Inc.),
 the Gaussian(R) 98 system (copyright 1998, Gaussian, Inc.),
 the Gaussian(R) 94 system (copyright 1995, Gaussian, Inc.),
 the Gaussian 92(TM) system (copyright 1992, Gaussian, Inc.),
 the Gaussian 90(TM) system (copyright 1990, Gaussian, Inc.),
 the Gaussian 88(TM) system (copyright 1988, Gaussian, Inc.),
 the Gaussian 86(TM) system (copyright 1986, Carnegie Mellon
 University), and the Gaussian 82(TM) system (copyright 1983,
 Carnegie Mellon University). Gaussian is a federally registered
 trademark of Gaussian, Inc.
  
 This software contains proprietary and confidential information,
 including trade secrets, belonging to Gaussian, Inc.
  
 This software is provided under written license and may be
 used, copied, transmitted, or stored only in accord with that
 written license.
  
 The following legend is applicable only to US Government
 contracts under FAR:
  
                    RESTRICTED RIGHTS LEGEND
  
 Use, reproduction and disclosure by the US Government is
 subject to restrictions as set forth in subparagraphs (a)
 and (c) of the Commercial Computer Software - Restricted
 Rights clause in FAR 52.227-19.
  
 Gaussian, Inc.
 340 Quinnipiac St., Bldg. 40, Wallingford CT 06492
  
  
 ---------------------------------------------------------------
 Warning -- This program may not be used in any manner that
 competes with the business of Gaussian, Inc. or will provide
 assistance to any competitor of Gaussian, Inc.  The licensee
 of this program is prohibited from giving any competitor of
 Gaussian, Inc. access to this program.  By using this program,
 the user acknowledges that Gaussian, Inc. is engaged in the
 business of creating and licensing software in the field of
 computational chemistry and represents and warrants to the
 licensee that it is not a competitor of Gaussian, Inc. and that
 it will not use this program in any manner prohibited above.
 ---------------------------------------------------------------
  

 Cite this work as:
 Gaussian 16, Revision C.01,
 M. J. Frisch, G. W. Trucks, H. B. Schlegel, G. E. Scuseria, 
 M. A. Robb, J. R. Cheeseman, G. Scalmani, V. Barone, 
 G. A. Petersson, H. Nakatsuji, X. Li, M. Caricato, A. V. Marenich, 
 J. Bloino, B. G. Janesko, R. Gomperts, B. Mennucci, H. P. Hratchian, 
 J. V. Ortiz, A. F. Izmaylov, J. L. Sonnenberg, D. Williams-Young, 
 F. Ding, F. Lipparini, F. Egidi, J. Goings, B. Peng, A. Petrone, 
 T. Henderson, D. Ranasinghe, V. G. Zakrzewski, J. Gao, N. Rega, 
 G. Zheng, W. Liang, M. Hada, M. Ehara, K. Toyota, R. Fukuda, 
 J. Hasegawa, M. Ishida, T. Nakajima, Y. Honda, O. Kitao, H. Nakai, 
 T. Vreven, K. Throssell, J. A. Montgomery, Jr., J. E. Peralta, 
 F. Ogliaro, M. J. Bearpark, J. J. Heyd, E. N. Brothers, K. N. Kudin, 
 V. N. Staroverov, T. A. Keith, R. Kobayashi, J. Normand, 
 K. Raghavachari, A. P. Rendell, J. C. Burant, S. S. Iyengar, 
 J. Tomasi, M. Cossi, J. M. Millam, M. Klene, C. Adamo, R. Cammi, 
 J. W. Ochterski, R. L. Martin, K. Morokuma, O. Farkas, 
 J. B. Foresman, and D. J. Fox, Gaussian, Inc., Wallingford CT, 2019.
 
 ******************************************
 Gaussian 16:  ES64L-G16RevC.01  3-Jul-2019
                 6-Jun-2022 
 ******************************************
 %mem=8gb
 %nproc=4
 Will use up to    4 processors via shared memory.
 %chk=conf-255.chk
 ----------------------------------------------------------------------
 # B3LYP/6-31G* empiricaldispersion=gd3 guess=read geom=check nosymm in
 tegral(ultrafinegrid)
 ----------------------------------------------------------------------
 1/29=2,38=1,172=1/1;
 2/12=2,15=1,40=1/2;
 3/5=1,6=6,7=1,11=2,14=-4,25=1,30=1,74=-5,75=-5,116=-2,124=31/1,2,3;
 4/5=1/1;
 5/5=2,38=6/2;
 6/7=2,8=2,9=2,10=2,28=1/1;
 99/5=1,9=1/99;
 ------------------------------------------------------
 Candidate Structure: Conf:255 Charge calc in gas phase
 ------------------------------------------------------
 Structure from the checkpoint file:  "conf-255.chk"
 Charge =  1 Multiplicity = 1
 Redundant internal coordinates found in file.  (old form).
 N,0,-3.5872077208,-1.8478528533,-7.8353790325
 C,0,-4.7833911816,-2.5959917877,-8.3535119832
 C,0,-5.7647478066,-1.5360706197,-8.880458202
 O,0,-5.2784169298,-0.5339745722,-9.3998172172
 C,0,-5.2233143427,-3.6401302053,-7.32563166
 C,0,-4.1058422691,-4.6661711375,-7.1094459904
 N,0,-4.4902521539,-5.9076024628,-6.7496766522
 O,0,-2.9165911158,-4.3619243728,-7.2473085416
 H,0,-3.8734285345,-1.3162898971,-6.9890197351
 H,0,-4.4461011112,-3.116404757,-9.2575894034
 H,0,-5.449327234,-3.1702660687,-6.3601212024
 H,0,-6.1301421798,-4.1335540911,-7.6865309976
 H,0,-3.7747274141,-6.5891735012,-6.5299290056
 H,0,-5.4560826607,-6.1661007244,-6.6153075357
 H,0,-2.8669379908,-2.5634821143,-7.608541363
 H,0,-3.2927912555,-1.169358917,-8.5474651919
 N,0,-7.0873161676,-1.8194174717,-8.8465146733
 C,0,-7.965641413,-1.336822768,-9.9223602417
 C,0,-9.3214131002,-0.9590798476,-9.2937207779
 O,0,-10.2691557298,-1.748240797,-9.3379232298
 C,0,-8.1357850054,-2.4236435835,-11.0217664073
 C,0,-6.8588315849,-3.1978424005,-11.2587341419
 C,0,-5.7871428204,-2.6394051955,-11.9677460901
 C,0,-6.690183418,-4.4669986119,-10.6853947838
 C,0,-4.5777349723,-3.3260474356,-12.094096006
 C,0,-5.4839406548,-5.160247927,-10.808900379
 C,0,-4.4196188415,-4.5875604655,-11.5114972444
 H,0,-7.4220810315,-2.6563362955,-8.3662697323
 H,0,-7.4692334641,-0.4643701192,-10.3479132686
 H,0,-8.9396662655,-3.0984070692,-10.7179949351
 H,0,-8.4759201608,-1.9258226517,-11.9368930762
 H,0,-5.895102016,-1.6536488216,-12.4128964897
 H,0,-7.5184580351,-4.9172985129,-10.1418215564
 H,0,-3.7603112745,-2.8787235099,-12.6525366697
 H,0,-5.375744604,-6.1464218875,-10.3650701173
 H,0,-3.4813468923,-5.1246794439,-11.6162264213
 N,0,-9.418695241,0.2210881683,-8.6345921627
 C,0,-8.3836862111,1.2102063302,-8.3938833966
 C,0,-7.5234237928,0.9918040113,-7.1406395025
 O,0,-6.4040051263,1.5494987739,-7.1281165018
 C,0,-8.9770430026,2.634687826,-8.3516030427
 C,0,-10.0004126544,2.8135086238,-7.2265419556
 N,0,-10.1791655073,4.0840502244,-6.7940891395
 O,0,-10.6255628059,1.8617220323,-6.760209174
 H,0,-10.2768580639,0.3711139912,-8.1055485445
 H,0,-7.6573824013,1.1878833128,-9.2078832701
 H,0,-9.478056525,2.8329425211,-9.307034747
 H,0,-8.1525703511,3.3481979262,-8.2548323277
 H,0,-10.9063627319,4.2619705172,-6.113814258
 H,0,-9.6889605849,4.8720522728,-7.1909338305
 N,0,-7.9742075248,0.2613280836,-6.1098122216
 C,0,-7.1651077721,0.168398649,-4.8819421894
 C,0,-6.0029443579,-0.8179166087,-5.1094963087
 O,0,-5.8319045084,-1.8761586691,-4.548222641
 C,0,-7.9666746465,-0.0861022781,-3.5960224985
 C,0,-9.1469128682,-1.066659523,-3.6014222079
 C,0,-8.8538511874,-2.5443404639,-3.884965394
 N,0,-8.4548071551,-2.8813870367,-5.2577309702
 C,0,-9.2873539159,-2.7506913349,-6.3366567141
 N,0,-10.1668550686,-1.8127225438,-6.3761269321
 N,0,-8.980649923,-3.6519537497,-7.3998338638
 O,0,-5.1178299284,-0.389419734,-6.0435062312
 H,0,-5.4386541073,0.4815204885,-6.4607062704
 H,0,-8.8641199036,-0.2532319472,-6.1759440476
 H,0,-6.6810422028,1.1471116401,-4.7712690606
 H,0,-7.2374346946,-0.3868740427,-2.8344387646
 H,0,-8.362536762,0.8859948134,-3.2812773388
 H,0,-9.5775948897,-1.031787515,-2.5922094029
 H,0,-9.9322111096,-0.7235927855,-4.2776135416
 H,0,-8.0375430717,-2.8878753824,-3.2442886526
 H,0,-9.7539177824,-3.1186740863,-3.6272023676
 H,0,-7.6720368501,-3.5088424812,-5.348558379
 H,0,-10.7529181013,-1.8826136153,-7.2062484602
 H,0,-9.6163445263,-3.5078161984,-8.1844643218
 H,0,-9.00191658,-4.6255631632,-7.1039309515
 Recover connectivity data from disk.
                           ----------------------------
                           !    Current Parameters    !
                           ! (Angstroms and Degrees)  !
 --------------------------                            --------------------------
 ! Name  Definition              Value                                          !
 --------------------------------------------------------------------------------
 ! R1    R(1,2)                  1.503                                          !
 ! R2    R(1,9)                  1.0396                                         !
 ! R3    R(1,15)                 1.0404                                         !
 ! R4    R(1,16)                 1.0267                                         !
 ! R5    R(2,3)                  1.5376                                         !
 ! R6    R(2,5)                  1.5298                                         !
 ! R7    R(2,10)                 1.0963                                         !
 ! R8    R(3,4)                  1.229                                          !
 ! R9    R(3,17)                 1.353                                          !
 ! R10   R(5,6)                  1.5324                                         !
 ! R11   R(5,11)                 1.0973                                         !
 ! R12   R(5,12)                 1.0936                                         !
 ! R13   R(6,7)                  1.3485                                         !
 ! R14   R(6,8)                  1.2353                                         !
 ! R15   R(7,13)                 1.0123                                         !
 ! R16   R(7,14)                 1.0088                                         !
 ! R17   R(17,18)                1.4703                                         !
 ! R18   R(17,28)                1.0213                                         !
 ! R19   R(18,19)                1.5414                                         !
 ! R20   R(18,21)                1.5553                                         !
 ! R21   R(18,29)                1.0903                                         !
 ! R22   R(19,20)                1.2341                                         !
 ! R23   R(19,37)                1.3553                                         !
 ! R24   R(21,22)                1.512                                          !
 ! R25   R(21,30)                1.0926                                         !
 ! R26   R(21,31)                1.0959                                         !
 ! R27   R(22,23)                1.4011                                         !
 ! R28   R(22,24)                1.4028                                         !
 ! R29   R(23,25)                1.3965                                         !
 ! R30   R(23,32)                1.087                                          !
 ! R31   R(24,26)                1.3967                                         !
 ! R32   R(24,33)                1.0882                                         !
 ! R33   R(25,27)                1.3985                                         !
 ! R34   R(25,34)                1.0863                                         !
 ! R35   R(26,27)                1.398                                          !
 ! R36   R(26,35)                1.0868                                         !
 ! R37   R(27,36)                1.0862                                         !
 ! R38   R(37,38)                1.4517                                         !
 ! R39   R(37,45)                1.0192                                         !
 ! R40   R(38,39)                1.5357                                         !
 ! R41   R(38,41)                1.5437                                         !
 ! R42   R(38,46)                1.0912                                         !
 ! R43   R(39,40)                1.2507                                         !
 ! R44   R(39,51)                1.3414                                         !
 ! R45   R(41,42)                1.5313                                         !
 ! R46   R(41,47)                1.0969                                         !
 ! R47   R(41,48)                1.0946                                         !
 ! R48   R(42,43)                1.354                                          !
 ! R49   R(42,44)                1.2305                                         !
 ! R50   R(43,49)                1.0116                                         !
 ! R51   R(43,50)                1.0093                                         !
 ! R52   R(51,52)                1.4734                                         !
 ! R53   R(51,64)                1.0301                                         !
 ! R54   R(52,53)                1.5412                                         !
 ! R55   R(52,55)                1.5365                                         !
 ! R56   R(52,65)                1.0975                                         !
 ! R57   R(53,54)                1.21                                           !
 ! R58   R(53,62)                1.3562                                         !
 ! R59   R(55,56)                1.5344                                         !
 ! R60   R(55,66)                1.0965                                         !
 ! R61   R(55,67)                1.0958                                         !
 ! R62   R(56,57)                1.5329                                         !
 ! R63   R(56,68)                1.0978                                         !
 ! R64   R(56,69)                1.0916                                         !
 ! R65   R(57,58)                1.4688                                         !
 ! R66   R(57,70)                1.0931                                         !
 ! R67   R(57,71)                1.0984                                         !
 ! R68   R(58,59)                1.369                                          !
 ! R69   R(58,72)                1.0073                                         !
 ! R70   R(59,60)                1.2864                                         !
 ! R71   R(59,61)                1.4271                                         !
 ! R72   R(60,73)                1.0186                                         !
 ! R73   R(61,74)                1.0201                                         !
 ! R74   R(61,75)                1.0178                                         !
 ! R75   R(62,63)                1.0176                                         !
 ! A1    A(2,1,9)              108.4239                                         !
 ! A2    A(2,1,15)             106.485                                          !
 ! A3    A(2,1,16)             108.5465                                         !
 ! A4    A(9,1,15)             111.3958                                         !
 ! A5    A(9,1,16)             107.7998                                         !
 ! A6    A(15,1,16)            114.0333                                         !
 ! A7    A(1,2,3)              106.4375                                         !
 ! A8    A(1,2,5)              109.6928                                         !
 ! A9    A(1,2,10)             106.0043                                         !
 ! A10   A(3,2,5)              121.1464                                         !
 ! A11   A(3,2,10)             103.9436                                         !
 ! A12   A(5,2,10)             108.5759                                         !
 ! A13   A(2,3,4)              117.0221                                         !
 ! A14   A(2,3,17)             118.0945                                         !
 ! A15   A(4,3,17)             124.6225                                         !
 ! A16   A(2,5,6)              110.004                                          !
 ! A17   A(2,5,11)             110.9883                                         !
 ! A18   A(2,5,12)             108.945                                          !
 ! A19   A(6,5,11)             108.2267                                         !
 ! A20   A(6,5,12)             110.4341                                         !
 ! A21   A(11,5,12)            108.2262                                         !
 ! A22   A(5,6,7)              116.4986                                         !
 ! A23   A(5,6,8)              121.4266                                         !
 ! A24   A(7,6,8)              122.0716                                         !
 ! A25   A(6,7,13)             118.441                                          !
 ! A26   A(6,7,14)             122.9812                                         !
 ! A27   A(13,7,14)            118.3766                                         !
 ! A28   A(3,17,18)            119.7914                                         !
 ! A29   A(3,17,28)            120.2516                                         !
 ! A30   A(18,17,28)           114.6591                                         !
 ! A31   A(17,18,19)           107.9054                                         !
 ! A32   A(17,18,21)           110.6852                                         !
 ! A33   A(17,18,29)           106.0375                                         !
 ! A34   A(19,18,21)           111.3043                                         !
 ! A35   A(19,18,29)           111.3184                                         !
 ! A36   A(21,18,29)           109.4565                                         !
 ! A37   A(18,19,20)           120.2757                                         !
 ! A38   A(18,19,37)           118.3519                                         !
 ! A39   A(20,19,37)           121.2756                                         !
 ! A40   A(18,21,22)           112.099                                          !
 ! A41   A(18,21,30)           108.3919                                         !
 ! A42   A(18,21,31)           107.8672                                         !
 ! A43   A(22,21,30)           110.4092                                         !
 ! A44   A(22,21,31)           111.3368                                         !
 ! A45   A(30,21,31)           106.5198                                         !
 ! A46   A(21,22,23)           121.4137                                         !
 ! A47   A(21,22,24)           120.0479                                         !
 ! A48   A(23,22,24)           118.3892                                         !
 ! A49   A(22,23,25)           120.8134                                         !
 ! A50   A(22,23,32)           119.5198                                         !
 ! A51   A(25,23,32)           119.6614                                         !
 ! A52   A(22,24,26)           121.1129                                         !
 ! A53   A(22,24,33)           119.1437                                         !
 ! A54   A(26,24,33)           119.7421                                         !
 ! A55   A(23,25,27)           120.2489                                         !
 ! A56   A(23,25,34)           119.7164                                         !
 ! A57   A(27,25,34)           120.0337                                         !
 ! A58   A(24,26,27)           119.9077                                         !
 ! A59   A(24,26,35)           120.0149                                         !
 ! A60   A(27,26,35)           120.076                                          !
 ! A61   A(25,27,26)           119.5254                                         !
 ! A62   A(25,27,36)           120.2352                                         !
 ! A63   A(26,27,36)           120.2336                                         !
 ! A64   A(19,37,38)           128.5192                                         !
 ! A65   A(19,37,45)           116.1716                                         !
 ! A66   A(38,37,45)           114.4516                                         !
 ! A67   A(37,38,39)           115.9629                                         !
 ! A68   A(37,38,41)           111.0523                                         !
 ! A69   A(37,38,46)           109.6898                                         !
 ! A70   A(39,38,41)           108.9171                                         !
 ! A71   A(39,38,46)           103.4744                                         !
 ! A72   A(41,38,46)           107.1672                                         !
 ! A73   A(38,39,40)           116.4956                                         !
 ! A74   A(38,39,51)           121.0856                                         !
 ! A75   A(40,39,51)           122.4048                                         !
 ! A76   A(38,41,42)           112.628                                          !
 ! A77   A(38,41,47)           108.5718                                         !
 ! A78   A(38,41,48)           108.3246                                         !
 ! A79   A(42,41,47)           108.2758                                         !
 ! A80   A(42,41,48)           111.2403                                         !
 ! A81   A(47,41,48)           107.6511                                         !
 ! A82   A(41,42,43)           115.6238                                         !
 ! A83   A(41,42,44)           121.8445                                         !
 ! A84   A(43,42,44)           122.5278                                         !
 ! A85   A(42,43,49)           118.3432                                         !
 ! A86   A(42,43,50)           122.8824                                         !
 ! A87   A(49,43,50)           118.4403                                         !
 ! A88   A(39,51,52)           119.3542                                         !
 ! A89   A(39,51,64)           120.8641                                         !
 ! A90   A(52,51,64)           119.7621                                         !
 ! A91   A(51,52,53)           109.3543                                         !
 ! A92   A(51,52,55)           114.9239                                         !
 ! A93   A(51,52,65)           105.6643                                         !
 ! A94   A(53,52,55)           114.2647                                         !
 ! A95   A(53,52,65)           104.6557                                         !
 ! A96   A(55,52,65)           107.0624                                         !
 ! A97   A(52,53,54)           126.7126                                         !
 ! A98   A(52,53,62)           113.0548                                         !
 ! A99   A(54,53,62)           120.2321                                         !
 ! A100  A(52,55,56)           120.2757                                         !
 ! A101  A(52,55,66)           106.2466                                         !
 ! A102  A(52,55,67)           106.3742                                         !
 ! A103  A(56,55,66)           109.7981                                         !
 ! A104  A(56,55,67)           106.8607                                         !
 ! A105  A(66,55,67)           106.5053                                         !
 ! A106  A(55,56,57)           118.0091                                         !
 ! A107  A(55,56,68)           106.1537                                         !
 ! A108  A(55,56,69)           110.7739                                         !
 ! A109  A(57,56,68)           106.0014                                         !
 ! A110  A(57,56,69)           109.0205                                         !
 ! A111  A(68,56,69)           106.0955                                         !
 ! A112  A(56,57,58)           116.4889                                         !
 ! A113  A(56,57,70)           109.7132                                         !
 ! A114  A(56,57,71)           107.697                                          !
 ! A115  A(58,57,70)           105.8304                                         !
 ! A116  A(58,57,71)           108.7826                                         !
 ! A117  A(70,57,71)           108.0639                                         !
 ! A118  A(57,58,59)           123.3288                                         !
 ! A119  A(57,58,72)           115.9977                                         !
 ! A120  A(59,58,72)           117.4496                                         !
 ! A121  A(58,59,60)           120.6338                                         !
 ! A122  A(58,59,61)           113.3362                                         !
 ! A123  A(60,59,61)           125.7703                                         !
 ! A124  A(59,60,73)           111.6143                                         !
 ! A125  A(59,61,74)           110.4793                                         !
 ! A126  A(59,61,75)           112.5212                                         !
 ! A127  A(74,61,75)           110.2289                                         !
 ! A128  A(53,62,63)           110.3037                                         !
 ! D1    D(9,1,2,3)             68.154                                          !
 ! D2    D(9,1,2,5)            -64.5616                                         !
 ! D3    D(9,1,2,10)           178.396                                          !
 ! D4    D(15,1,2,3)          -171.8738                                         !
 ! D5    D(15,1,2,5)            55.4107                                         !
 ! D6    D(15,1,2,10)          -61.6318                                         !
 ! D7    D(16,1,2,3)           -48.6935                                         !
 ! D8    D(16,1,2,5)           178.5909                                         !
 ! D9    D(16,1,2,10)           61.5485                                         !
 ! D10   D(1,2,3,4)             34.5561                                         !
 ! D11   D(1,2,3,17)          -151.0365                                         !
 ! D12   D(5,2,3,4)            160.6287                                         !
 ! D13   D(5,2,3,17)           -24.9639                                         !
 ! D14   D(10,2,3,4)           -77.1247                                         !
 ! D15   D(10,2,3,17)           97.2827                                         !
 ! D16   D(1,2,5,6)            -62.319                                          !
 ! D17   D(1,2,5,11)            57.4281                                         !
 ! D18   D(1,2,5,12)           176.4971                                         !
 ! D19   D(3,2,5,6)            173.107                                          !
 ! D20   D(3,2,5,11)           -67.1459                                         !
 ! D21   D(3,2,5,12)            51.9232                                         !
 ! D22   D(10,2,5,6)            53.0986                                         !
 ! D23   D(10,2,5,11)          172.8457                                         !
 ! D24   D(10,2,5,12)          -68.0852                                         !
 ! D25   D(2,3,17,18)         -144.6354                                         !
 ! D26   D(2,3,17,28)            8.2934                                         !
 ! D27   D(4,3,17,18)           29.3087                                         !
 ! D28   D(4,3,17,28)         -177.7625                                         !
 ! D29   D(2,5,6,7)           -151.205                                          !
 ! D30   D(2,5,6,8)             29.4358                                         !
 ! D31   D(11,5,6,7)            87.3829                                         !
 ! D32   D(11,5,6,8)           -91.9763                                         !
 ! D33   D(12,5,6,7)           -30.9173                                         !
 ! D34   D(12,5,6,8)           149.7235                                         !
 ! D35   D(5,6,7,13)          -175.3671                                         !
 ! D36   D(5,6,7,14)            -0.6107                                         !
 ! D37   D(8,6,7,13)             3.9876                                         !
 ! D38   D(8,6,7,14)           178.744                                          !
 ! D39   D(3,17,18,19)        -143.7454                                         !
 ! D40   D(3,17,18,21)          94.2414                                         !
 ! D41   D(3,17,18,29)         -24.3784                                         !
 ! D42   D(28,17,18,19)         61.8854                                         !
 ! D43   D(28,17,18,21)        -60.1279                                         !
 ! D44   D(28,17,18,29)       -178.7477                                         !
 ! D45   D(17,18,19,20)        -98.4025                                         !
 ! D46   D(17,18,19,37)         78.0659                                         !
 ! D47   D(21,18,19,20)         23.2279                                         !
 ! D48   D(21,18,19,37)       -160.3037                                         !
 ! D49   D(29,18,19,20)        145.6376                                         !
 ! D50   D(29,18,19,37)        -37.894                                          !
 ! D51   D(17,18,21,22)        -37.1617                                         !
 ! D52   D(17,18,21,30)         84.9546                                         !
 ! D53   D(17,18,21,31)       -160.0831                                         !
 ! D54   D(19,18,21,22)       -157.1603                                         !
 ! D55   D(19,18,21,30)        -35.0439                                         !
 ! D56   D(19,18,21,31)         79.9183                                         !
 ! D57   D(29,18,21,22)         79.3621                                         !
 ! D58   D(29,18,21,30)       -158.5215                                         !
 ! D59   D(29,18,21,31)        -43.5593                                         !
 ! D60   D(18,19,37,38)         -1.7305                                         !
 ! D61   D(18,19,37,45)       -170.445                                          !
 ! D62   D(20,19,37,38)        174.7009                                         !
 ! D63   D(20,19,37,45)          5.9865                                         !
 ! D64   D(18,21,22,23)        -75.3064                                         !
 ! D65   D(18,21,22,24)        100.1822                                         !
 ! D66   D(30,21,22,23)        163.735                                          !
 ! D67   D(30,21,22,24)        -20.7765                                         !
 ! D68   D(31,21,22,23)         45.6318                                         !
 ! D69   D(31,21,22,24)       -138.8796                                         !
 ! D70   D(21,22,23,25)        175.1936                                         !
 ! D71   D(21,22,23,32)         -3.9628                                         !
 ! D72   D(24,22,23,25)         -0.3675                                         !
 ! D73   D(24,22,23,32)       -179.524                                          !
 ! D74   D(21,22,24,26)       -175.3257                                         !
 ! D75   D(21,22,24,33)          5.0779                                         !
 ! D76   D(23,22,24,26)          0.298                                          !
 ! D77   D(23,22,24,33)       -179.2983                                         !
 ! D78   D(22,23,25,27)          0.0165                                         !
 ! D79   D(22,23,25,34)        179.6579                                         !
 ! D80   D(32,23,25,27)        179.1718                                         !
 ! D81   D(32,23,25,34)         -1.1868                                         !
 ! D82   D(22,24,26,27)          0.1236                                         !
 ! D83   D(22,24,26,35)       -179.4546                                         !
 ! D84   D(33,24,26,27)        179.7176                                         !
 ! D85   D(33,24,26,35)          0.1394                                         !
 ! D86   D(23,25,27,26)          0.4107                                         !
 ! D87   D(23,25,27,36)        179.5403                                         !
 ! D88   D(34,25,27,26)       -179.2296                                         !
 ! D89   D(34,25,27,36)         -0.0999                                         !
 ! D90   D(24,26,27,25)         -0.4788                                         !
 ! D91   D(24,26,27,36)       -179.6085                                         !
 ! D92   D(35,26,27,25)        179.0991                                         !
 ! D93   D(35,26,27,36)         -0.0306                                         !
 ! D94   D(19,37,38,39)        -86.7564                                         !
 ! D95   D(19,37,38,41)        148.2275                                         !
 ! D96   D(19,37,38,46)         29.9558                                         !
 ! D97   D(45,37,38,39)         82.1192                                         !
 ! D98   D(45,37,38,41)        -42.8969                                         !
 ! D99   D(45,37,38,46)       -161.1685                                         !
 ! D100  D(37,38,39,40)        158.4235                                         !
 ! D101  D(37,38,39,51)        -22.9099                                         !
 ! D102  D(41,38,39,40)        -75.4741                                         !
 ! D103  D(41,38,39,51)        103.1925                                         !
 ! D104  D(46,38,39,40)         38.2893                                         !
 ! D105  D(46,38,39,51)       -143.0441                                         !
 ! D106  D(37,38,41,42)         61.3298                                         !
 ! D107  D(37,38,41,47)        -58.5683                                         !
 ! D108  D(37,38,41,48)       -175.1993                                         !
 ! D109  D(39,38,41,42)        -67.5579                                         !
 ! D110  D(39,38,41,47)        172.544                                          !
 ! D111  D(39,38,41,48)         55.913                                          !
 ! D112  D(46,38,41,42)       -178.8838                                         !
 ! D113  D(46,38,41,47)         61.2181                                         !
 ! D114  D(46,38,41,48)        -55.4129                                         !
 ! D115  D(38,39,51,52)       -174.9603                                         !
 ! D116  D(38,39,51,64)          6.6533                                         !
 ! D117  D(40,39,51,52)          3.6262                                         !
 ! D118  D(40,39,51,64)       -174.7602                                         !
 ! D119  D(38,41,42,43)        155.7845                                         !
 ! D120  D(38,41,42,44)        -24.9199                                         !
 ! D121  D(47,41,42,43)        -84.1465                                         !
 ! D122  D(47,41,42,44)         95.1492                                         !
 ! D123  D(48,41,42,43)         33.9504                                         !
 ! D124  D(48,41,42,44)       -146.754                                          !
 ! D125  D(41,42,43,49)        174.3648                                         !
 ! D126  D(41,42,43,50)          1.1123                                         !
 ! D127  D(44,42,43,49)         -4.9256                                         !
 ! D128  D(44,42,43,50)       -178.178                                          !
 ! D129  D(39,51,52,53)        -77.2974                                         !
 ! D130  D(39,51,52,55)        152.6474                                         !
 ! D131  D(39,51,52,65)         34.8509                                         !
 ! D132  D(64,51,52,53)        101.1071                                         !
 ! D133  D(64,51,52,55)        -28.9481                                         !
 ! D134  D(64,51,52,65)       -146.7446                                         !
 ! D135  D(51,52,53,54)       -115.1316                                         !
 ! D136  D(51,52,53,62)         65.12                                           !
 ! D137  D(55,52,53,54)         15.2802                                         !
 ! D138  D(55,52,53,62)       -164.4682                                         !
 ! D139  D(65,52,53,54)        132.0596                                         !
 ! D140  D(65,52,53,62)        -47.6888                                         !
 ! D141  D(51,52,55,56)         40.2821                                         !
 ! D142  D(51,52,55,66)        165.6366                                         !
 ! D143  D(51,52,55,67)        -81.1564                                         !
 ! D144  D(53,52,55,56)        -87.331                                          !
 ! D145  D(53,52,55,66)         38.0234                                         !
 ! D146  D(53,52,55,67)        151.2305                                         !
 ! D147  D(65,52,55,56)        157.2865                                         !
 ! D148  D(65,52,55,66)        -77.359                                          !
 ! D149  D(65,52,55,67)         35.8481                                         !
 ! D150  D(52,53,62,63)         -4.0252                                         !
 ! D151  D(54,53,62,63)        176.2082                                         !
 ! D152  D(52,55,56,57)         64.2179                                         !
 ! D153  D(52,55,56,68)       -177.1531                                         !
 ! D154  D(52,55,56,69)        -62.408                                          !
 ! D155  D(66,55,56,57)        -59.4558                                         !
 ! D156  D(66,55,56,68)         59.1732                                         !
 ! D157  D(66,55,56,69)        173.9183                                         !
 ! D158  D(67,55,56,57)       -174.5823                                         !
 ! D159  D(67,55,56,68)        -55.9533                                         !
 ! D160  D(67,55,56,69)         58.7918                                         !
 ! D161  D(55,56,57,58)        -70.136                                          !
 ! D162  D(55,56,57,70)         50.0179                                         !
 ! D163  D(55,56,57,71)        167.4099                                         !
 ! D164  D(68,56,57,58)        171.1548                                         !
 ! D165  D(68,56,57,70)        -68.6914                                         !
 ! D166  D(68,56,57,71)         48.7006                                         !
 ! D167  D(69,56,57,58)         57.3308                                         !
 ! D168  D(69,56,57,70)        177.4846                                         !
 ! D169  D(69,56,57,71)        -65.1234                                         !
 ! D170  D(56,57,58,59)        -65.7135                                         !
 ! D171  D(56,57,58,72)        135.1366                                         !
 ! D172  D(70,57,58,59)        172.0757                                         !
 ! D173  D(70,57,58,72)         12.9258                                         !
 ! D174  D(71,57,58,59)         56.1719                                         !
 ! D175  D(71,57,58,72)       -102.978                                          !
 ! D176  D(57,58,59,60)         32.793                                          !
 ! D177  D(57,58,59,61)       -152.7332                                         !
 ! D178  D(72,58,59,60)       -168.3376                                         !
 ! D179  D(72,58,59,61)          6.1363                                         !
 ! D180  D(58,59,60,73)       -175.953                                          !
 ! D181  D(61,59,60,73)         10.3034                                         !
 ! D182  D(58,59,61,74)       -179.1279                                         !
 ! D183  D(58,59,61,75)         57.2005                                         !
 ! D184  D(60,59,61,74)         -4.9894                                         !
 ! D185  D(60,59,61,75)       -128.661                                          !
 --------------------------------------------------------------------------------
 Symmetry turned off by external request.
 Stoichiometry    C23H36N9O7(1+)
 Framework group  C1[X(C23H36N9O7)]
 Deg. of freedom   219
 Full point group                 C1      NOp   1
                          Input orientation:                          
 ---------------------------------------------------------------------
 Center     Atomic      Atomic             Coordinates (Angstroms)
 Number     Number       Type             X           Y           Z
 ---------------------------------------------------------------------
      1          7           0       -3.587208   -1.847853   -7.835379
      2          6           0       -4.783391   -2.595992   -8.353512
      3          6           0       -5.764748   -1.536071   -8.880458
      4          8           0       -5.278417   -0.533975   -9.399817
      5          6           0       -5.223314   -3.640130   -7.325632
      6          6           0       -4.105842   -4.666171   -7.109446
      7          7           0       -4.490252   -5.907602   -6.749677
      8          8           0       -2.916591   -4.361924   -7.247309
      9          1           0       -3.873429   -1.316290   -6.989020
     10          1           0       -4.446101   -3.116405   -9.257589
     11          1           0       -5.449327   -3.170266   -6.360121
     12          1           0       -6.130142   -4.133554   -7.686531
     13          1           0       -3.774727   -6.589174   -6.529929
     14          1           0       -5.456083   -6.166101   -6.615308
     15          1           0       -2.866938   -2.563482   -7.608541
     16          1           0       -3.292791   -1.169359   -8.547465
     17          7           0       -7.087316   -1.819417   -8.846515
     18          6           0       -7.965641   -1.336823   -9.922360
     19          6           0       -9.321413   -0.959080   -9.293721
     20          8           0      -10.269156   -1.748241   -9.337923
     21          6           0       -8.135785   -2.423644  -11.021766
     22          6           0       -6.858832   -3.197842  -11.258734
     23          6           0       -5.787143   -2.639405  -11.967746
     24          6           0       -6.690183   -4.466999  -10.685395
     25          6           0       -4.577735   -3.326047  -12.094096
     26          6           0       -5.483941   -5.160248  -10.808900
     27          6           0       -4.419619   -4.587560  -11.511497
     28          1           0       -7.422081   -2.656336   -8.366270
     29          1           0       -7.469233   -0.464370  -10.347913
     30          1           0       -8.939666   -3.098407  -10.717995
     31          1           0       -8.475920   -1.925823  -11.936893
     32          1           0       -5.895102   -1.653649  -12.412896
     33          1           0       -7.518458   -4.917299  -10.141822
     34          1           0       -3.760311   -2.878724  -12.652537
     35          1           0       -5.375745   -6.146422  -10.365070
     36          1           0       -3.481347   -5.124679  -11.616226
     37          7           0       -9.418695    0.221088   -8.634592
     38          6           0       -8.383686    1.210206   -8.393883
     39          6           0       -7.523424    0.991804   -7.140640
     40          8           0       -6.404005    1.549499   -7.128117
     41          6           0       -8.977043    2.634688   -8.351603
     42          6           0      -10.000413    2.813509   -7.226542
     43          7           0      -10.179166    4.084050   -6.794089
     44          8           0      -10.625563    1.861722   -6.760209
     45          1           0      -10.276858    0.371114   -8.105549
     46          1           0       -7.657382    1.187883   -9.207883
     47          1           0       -9.478057    2.832943   -9.307035
     48          1           0       -8.152570    3.348198   -8.254832
     49          1           0      -10.906363    4.261971   -6.113814
     50          1           0       -9.688961    4.872052   -7.190934
     51          7           0       -7.974208    0.261328   -6.109812
     52          6           0       -7.165108    0.168399   -4.881942
     53          6           0       -6.002944   -0.817917   -5.109496
     54          8           0       -5.831905   -1.876159   -4.548223
     55          6           0       -7.966675   -0.086102   -3.596022
     56          6           0       -9.146913   -1.066660   -3.601422
     57          6           0       -8.853851   -2.544340   -3.884965
     58          7           0       -8.454807   -2.881387   -5.257731
     59          6           0       -9.287354   -2.750691   -6.336657
     60          7           0      -10.166855   -1.812723   -6.376127
     61          7           0       -8.980650   -3.651954   -7.399834
     62          8           0       -5.117830   -0.389420   -6.043506
     63          1           0       -5.438654    0.481520   -6.460706
     64          1           0       -8.864120   -0.253232   -6.175944
     65          1           0       -6.681042    1.147112   -4.771269
     66          1           0       -7.237435   -0.386874   -2.834439
     67          1           0       -8.362537    0.885995   -3.281277
     68          1           0       -9.577595   -1.031788   -2.592209
     69          1           0       -9.932211   -0.723593   -4.277614
     70          1           0       -8.037543   -2.887875   -3.244289
     71          1           0       -9.753918   -3.118674   -3.627202
     72          1           0       -7.672037   -3.508842   -5.348558
     73          1           0      -10.752918   -1.882614   -7.206248
     74          1           0       -9.616345   -3.507816   -8.184464
     75          1           0       -9.001917   -4.625563   -7.103931
 ---------------------------------------------------------------------
 Rotational constants (GHZ):           0.1397193           0.0835682           0.0707940
 Standard basis: 6-31G(d) (6D, 7F)
   657 basis functions,  1236 primitive gaussians,   657 cartesian basis functions
   146 alpha electrons      146 beta electrons
       nuclear repulsion energy      5244.0110578487 Hartrees.
 NAtoms=   75 NActive=   75 NUniq=   75 SFac= 1.00D+00 NAtFMM=   60 NAOKFM=T Big=T
 Integral buffers will be    131072 words long.
 Raffenetti 2 integral format.
 Two-electron integral symmetry is turned off.
 Nuclear repulsion after empirical dispersion term =     5243.8846726618 Hartrees.
 One-electron integrals computed using PRISM.
 NBasis=   657 RedAO= T EigKep=  4.66D-04  NBF=   657
 NBsUse=   657 1.00D-06 EigRej= -1.00D+00 NBFU=   657
 Initial guess from the checkpoint file:  "conf-255.chk"
 B after Tr=     0.000000    0.000000    0.000000
         Rot=    1.000000    0.000000    0.000000    0.000000 Ang=   0.00 deg.
 Requested convergence on RMS density matrix=1.00D-08 within 128 cycles.
 Requested convergence on MAX density matrix=1.00D-06.
 Requested convergence on             energy=1.00D-06.
 No special actions if energy rises.
 SCF Done:  E(RB3LYP) =  -1917.49942038     A.U. after    1 cycles
            NFock=  1  Conv=0.46D-09     -V/T= 2.0093

 **********************************************************************

            Population analysis using the SCF Density.

 **********************************************************************

 Alpha  occ. eigenvalues --  -19.29703 -19.25030 -19.24978 -19.24227 -19.23618
 Alpha  occ. eigenvalues --  -19.22277 -19.21457 -14.55283 -14.48733 -14.47681
 Alpha  occ. eigenvalues --  -14.47185 -14.46116 -14.45775 -14.45592 -14.44592
 Alpha  occ. eigenvalues --  -14.38250 -10.42924 -10.42668 -10.41721 -10.40204
 Alpha  occ. eigenvalues --  -10.39650 -10.39313 -10.38345 -10.38228 -10.34963
 Alpha  occ. eigenvalues --  -10.34503 -10.34474 -10.33534 -10.30727 -10.30637
 Alpha  occ. eigenvalues --  -10.29653 -10.29044 -10.28970 -10.28959 -10.28781
 Alpha  occ. eigenvalues --  -10.28727 -10.28581 -10.28284 -10.26453  -1.20711
 Alpha  occ. eigenvalues --   -1.16982  -1.16399  -1.15343  -1.14125  -1.13237
 Alpha  occ. eigenvalues --   -1.12275  -1.10393  -1.07639  -1.04743  -1.03794
 Alpha  occ. eigenvalues --   -1.03562  -1.02499  -1.00348  -0.98654  -0.95433
 Alpha  occ. eigenvalues --   -0.94150  -0.92167  -0.89625  -0.88651  -0.88175
 Alpha  occ. eigenvalues --   -0.84288  -0.84213  -0.83755  -0.81080  -0.78775
 Alpha  occ. eigenvalues --   -0.76945  -0.76481  -0.73044  -0.72516  -0.71582
 Alpha  occ. eigenvalues --   -0.71095  -0.70760  -0.70026  -0.69560  -0.69116
 Alpha  occ. eigenvalues --   -0.68932  -0.68391  -0.67731  -0.66537  -0.66174
 Alpha  occ. eigenvalues --   -0.65015  -0.64236  -0.63871  -0.63274  -0.63141
 Alpha  occ. eigenvalues --   -0.61956  -0.61759  -0.61014  -0.60246  -0.59128
 Alpha  occ. eigenvalues --   -0.58794  -0.58465  -0.57533  -0.56779  -0.56033
 Alpha  occ. eigenvalues --   -0.55926  -0.55732  -0.55287  -0.55136  -0.54889
 Alpha  occ. eigenvalues --   -0.54720  -0.54297  -0.53872  -0.53593  -0.53457
 Alpha  occ. eigenvalues --   -0.52794  -0.52382  -0.51732  -0.51502  -0.51252
 Alpha  occ. eigenvalues --   -0.51139  -0.51068  -0.50203  -0.49946  -0.49837
 Alpha  occ. eigenvalues --   -0.49376  -0.48476  -0.48179  -0.48073  -0.47560
 Alpha  occ. eigenvalues --   -0.47428  -0.46463  -0.45750  -0.45215  -0.44048
 Alpha  occ. eigenvalues --   -0.43607  -0.43484  -0.43391  -0.42925  -0.42150
 Alpha  occ. eigenvalues --   -0.40018  -0.39852  -0.39458  -0.39181  -0.38473
 Alpha  occ. eigenvalues --   -0.38207  -0.37874  -0.36835  -0.36315  -0.35916
 Alpha  occ. eigenvalues --   -0.35722  -0.35033  -0.34846  -0.34621  -0.34211
 Alpha  occ. eigenvalues --   -0.32158
 Alpha virt. eigenvalues --   -0.11601  -0.10994  -0.10725  -0.10254  -0.09653
 Alpha virt. eigenvalues --   -0.09535  -0.09209  -0.07354  -0.06597  -0.06050
 Alpha virt. eigenvalues --   -0.03980  -0.02642  -0.01504  -0.01247  -0.00622
 Alpha virt. eigenvalues --   -0.00149   0.00745   0.00910   0.01270   0.01830
 Alpha virt. eigenvalues --    0.02389   0.02773   0.02995   0.03401   0.04109
 Alpha virt. eigenvalues --    0.04263   0.04781   0.05060   0.05313   0.05569
 Alpha virt. eigenvalues --    0.05893   0.06393   0.06772   0.07142   0.07283
 Alpha virt. eigenvalues --    0.07635   0.08046   0.08153   0.08268   0.08566
 Alpha virt. eigenvalues --    0.08931   0.09286   0.09494   0.09874   0.10105
 Alpha virt. eigenvalues --    0.10240   0.11006   0.11292   0.11624   0.11933
 Alpha virt. eigenvalues --    0.12118   0.12662   0.13715   0.13795   0.13881
 Alpha virt. eigenvalues --    0.14742   0.14804   0.15222   0.15497   0.16801
 Alpha virt. eigenvalues --    0.17740   0.18172   0.18606   0.19330   0.20481
 Alpha virt. eigenvalues --    0.21025   0.22031   0.22323   0.22865   0.23364
 Alpha virt. eigenvalues --    0.23993   0.24343   0.25136   0.25686   0.26471
 Alpha virt. eigenvalues --    0.26910   0.27409   0.27783   0.29352   0.29736
 Alpha virt. eigenvalues --    0.31860   0.33548   0.33789   0.35289   0.35832
 Alpha virt. eigenvalues --    0.36249   0.36395   0.37606   0.39360   0.39591
 Alpha virt. eigenvalues --    0.41074   0.41740   0.42753   0.43216   0.43847
 Alpha virt. eigenvalues --    0.43903   0.44452   0.44562   0.45108   0.45821
 Alpha virt. eigenvalues --    0.46314   0.46668   0.47219   0.47392   0.48152
 Alpha virt. eigenvalues --    0.48290   0.48641   0.48957   0.49077   0.49702
 Alpha virt. eigenvalues --    0.50103   0.50365   0.50718   0.51671   0.51832
 Alpha virt. eigenvalues --    0.52249   0.52425   0.52595   0.52933   0.53233
 Alpha virt. eigenvalues --    0.53470   0.54091   0.54725   0.54968   0.55397
 Alpha virt. eigenvalues --    0.55952   0.56433   0.56703   0.56933   0.57437
 Alpha virt. eigenvalues --    0.57700   0.57917   0.58385   0.59026   0.59185
 Alpha virt. eigenvalues --    0.59765   0.60243   0.61079   0.61522   0.62151
 Alpha virt. eigenvalues --    0.63109   0.63351   0.63984   0.64772   0.65072
 Alpha virt. eigenvalues --    0.65128   0.66135   0.66354   0.66793   0.67690
 Alpha virt. eigenvalues --    0.68277   0.68672   0.68934   0.69562   0.70627
 Alpha virt. eigenvalues --    0.71057   0.72151   0.72603   0.72870   0.73018
 Alpha virt. eigenvalues --    0.73758   0.74118   0.74493   0.74884   0.75176
 Alpha virt. eigenvalues --    0.75398   0.75574   0.75800   0.76142   0.76508
 Alpha virt. eigenvalues --    0.77091   0.77392   0.77617   0.78182   0.78208
 Alpha virt. eigenvalues --    0.78759   0.79306   0.79361   0.79591   0.79920
 Alpha virt. eigenvalues --    0.80544   0.80601   0.81159   0.81644   0.82053
 Alpha virt. eigenvalues --    0.82475   0.82983   0.83285   0.84379   0.84943
 Alpha virt. eigenvalues --    0.85408   0.85887   0.85991   0.86328   0.86863
 Alpha virt. eigenvalues --    0.87084   0.87834   0.88069   0.88765   0.89210
 Alpha virt. eigenvalues --    0.89724   0.89826   0.90825   0.91319   0.91677
 Alpha virt. eigenvalues --    0.92087   0.92504   0.92810   0.93684   0.94306
 Alpha virt. eigenvalues --    0.95346   0.95935   0.96652   0.97336   0.97973
 Alpha virt. eigenvalues --    0.98643   0.99486   1.00490   1.01182   1.02423
 Alpha virt. eigenvalues --    1.03081   1.04128   1.04171   1.05413   1.05852
 Alpha virt. eigenvalues --    1.07485   1.08022   1.08642   1.08795   1.09088
 Alpha virt. eigenvalues --    1.10014   1.10793   1.11905   1.12204   1.12509
 Alpha virt. eigenvalues --    1.13423   1.14264   1.15439   1.15984   1.16138
 Alpha virt. eigenvalues --    1.16783   1.16941   1.17372   1.18559   1.19764
 Alpha virt. eigenvalues --    1.21082   1.21473   1.21555   1.22576   1.23238
 Alpha virt. eigenvalues --    1.24102   1.24592   1.26025   1.27094   1.27605
 Alpha virt. eigenvalues --    1.27735   1.27893   1.29718   1.30747   1.31607
 Alpha virt. eigenvalues --    1.32253   1.32590   1.33532   1.33713   1.34367
 Alpha virt. eigenvalues --    1.35411   1.36073   1.36669   1.37135   1.37867
 Alpha virt. eigenvalues --    1.38249   1.39299   1.40319   1.41778   1.42243
 Alpha virt. eigenvalues --    1.42725   1.43167   1.44022   1.45054   1.45698
 Alpha virt. eigenvalues --    1.46058   1.47345   1.48086   1.49777   1.50849
 Alpha virt. eigenvalues --    1.51546   1.53501   1.54063   1.54361   1.54407
 Alpha virt. eigenvalues --    1.56154   1.57181   1.57782   1.58491   1.59287
 Alpha virt. eigenvalues --    1.59639   1.60941   1.61642   1.62268   1.63450
 Alpha virt. eigenvalues --    1.63750   1.64282   1.65194   1.65684   1.66201
 Alpha virt. eigenvalues --    1.66764   1.67654   1.68183   1.68783   1.70019
 Alpha virt. eigenvalues --    1.70128   1.70535   1.71284   1.71503   1.71772
 Alpha virt. eigenvalues --    1.72453   1.72846   1.73303   1.73817   1.74522
 Alpha virt. eigenvalues --    1.75263   1.75945   1.76850   1.77169   1.78080
 Alpha virt. eigenvalues --    1.78445   1.78818   1.79019   1.79924   1.80558
 Alpha virt. eigenvalues --    1.81045   1.81509   1.81750   1.82442   1.82722
 Alpha virt. eigenvalues --    1.83448   1.84241   1.84362   1.84801   1.85197
 Alpha virt. eigenvalues --    1.86478   1.87164   1.87481   1.87745   1.89455
 Alpha virt. eigenvalues --    1.90034   1.90503   1.90763   1.90885   1.91084
 Alpha virt. eigenvalues --    1.91796   1.93646   1.94038   1.94460   1.95340
 Alpha virt. eigenvalues --    1.95722   1.96671   1.96914   1.97367   1.97819
 Alpha virt. eigenvalues --    1.98857   2.00268   2.00509   2.02143   2.02237
 Alpha virt. eigenvalues --    2.03079   2.03813   2.04519   2.05246   2.06011
 Alpha virt. eigenvalues --    2.06276   2.06937   2.07381   2.07787   2.08440
 Alpha virt. eigenvalues --    2.10262   2.11312   2.12285   2.13352   2.13955
 Alpha virt. eigenvalues --    2.14598   2.15392   2.15942   2.16934   2.17448
 Alpha virt. eigenvalues --    2.18074   2.18822   2.19380   2.20609   2.21398
 Alpha virt. eigenvalues --    2.21980   2.23115   2.23518   2.24664   2.25252
 Alpha virt. eigenvalues --    2.27827   2.28312   2.29286   2.30312   2.30947
 Alpha virt. eigenvalues --    2.32051   2.32414   2.33665   2.33738   2.34412
 Alpha virt. eigenvalues --    2.35002   2.35786   2.36112   2.37161   2.38633
 Alpha virt. eigenvalues --    2.38919   2.39741   2.40954   2.41918   2.42466
 Alpha virt. eigenvalues --    2.45153   2.46670   2.47037   2.47737   2.49178
 Alpha virt. eigenvalues --    2.49299   2.49639   2.50459   2.50536   2.51545
 Alpha virt. eigenvalues --    2.52145   2.52836   2.53519   2.53944   2.54979
 Alpha virt. eigenvalues --    2.55200   2.56219   2.56453   2.58142   2.59470
 Alpha virt. eigenvalues --    2.60307   2.61987   2.62680   2.63180   2.64402
 Alpha virt. eigenvalues --    2.65106   2.65433   2.65769   2.66485   2.67160
 Alpha virt. eigenvalues --    2.67950   2.70742   2.71703   2.74181   2.74991
 Alpha virt. eigenvalues --    2.77664   2.78009   2.81656   2.84448   2.85297
 Alpha virt. eigenvalues --    2.86707   2.88210   2.88730   2.90196   2.91322
 Alpha virt. eigenvalues --    2.91872   2.93255   2.94668   2.95688   2.96763
 Alpha virt. eigenvalues --    2.98357   2.99497   3.00155   3.04015   3.06724
 Alpha virt. eigenvalues --    3.11514   3.30986   3.69105   3.71360   3.73036
 Alpha virt. eigenvalues --    3.81876   3.86156   3.87477   3.91262   3.93404
 Alpha virt. eigenvalues --    3.97479   3.99050   4.01981   4.02308   4.03757
 Alpha virt. eigenvalues --    4.05792   4.06836   4.10841   4.11681   4.12803
 Alpha virt. eigenvalues --    4.15003   4.16594   4.19950   4.20787   4.22415
 Alpha virt. eigenvalues --    4.25503   4.29648   4.31643   4.34989   4.36719
 Alpha virt. eigenvalues --    4.37316   4.40534   4.43001   4.44182   4.45712
 Alpha virt. eigenvalues --    4.48605   4.56027   4.60379   4.61202   4.63946
 Alpha virt. eigenvalues --    4.70299
          Condensed to atoms (all electrons):
 Mulliken charges:
               1
     1  N   -0.758859
     2  C   -0.131238
     3  C    0.660341
     4  O   -0.539748
     5  C   -0.448368
     6  C    0.651912
     7  N   -0.738500
     8  O   -0.530601
     9  H    0.433319
    10  H    0.244617
    11  H    0.242596
    12  H    0.179261
    13  H    0.374782
    14  H    0.353992
    15  H    0.430047
    16  H    0.408606
    17  N   -0.654216
    18  C   -0.075976
    19  C    0.632056
    20  O   -0.535102
    21  C   -0.374287
    22  C    0.157347
    23  C   -0.170879
    24  C   -0.200792
    25  C   -0.138003
    26  C   -0.142341
    27  C   -0.144973
    28  H    0.410380
    29  H    0.200337
    30  H    0.183297
    31  H    0.181414
    32  H    0.149486
    33  H    0.126183
    34  H    0.157056
    35  H    0.143324
    36  H    0.156599
    37  N   -0.613560
    38  C   -0.063170
    39  C    0.642211
    40  O   -0.591576
    41  C   -0.390308
    42  C    0.607921
    43  N   -0.737537
    44  O   -0.516206
    45  H    0.386564
    46  H    0.201773
    47  H    0.205741
    48  H    0.195025
    49  H    0.363250
    50  H    0.356202
    51  N   -0.615790
    52  C   -0.082694
    53  C    0.655897
    54  O   -0.471685
    55  C   -0.289354
    56  C   -0.295774
    57  C   -0.119818
    58  N   -0.592792
    59  C    0.580631
    60  N   -0.679963
    61  N   -0.830934
    62  O   -0.660734
    63  H    0.474026
    64  H    0.428364
    65  H    0.197533
    66  H    0.167429
    67  H    0.166140
    68  H    0.156802
    69  H    0.206849
    70  H    0.162307
    71  H    0.161876
    72  H    0.323155
    73  H    0.319768
    74  H    0.369170
    75  H    0.330191
 Sum of Mulliken charges =   1.00000
 Mulliken charges with hydrogens summed into heavy atoms:
               1
     1  N    0.513113
     2  C    0.113379
     3  C    0.660341
     4  O   -0.539748
     5  C   -0.026511
     6  C    0.651912
     7  N   -0.009726
     8  O   -0.530601
    17  N   -0.243836
    18  C    0.124361
    19  C    0.632056
    20  O   -0.535102
    21  C   -0.009575
    22  C    0.157347
    23  C   -0.021393
    24  C   -0.074610
    25  C    0.019053
    26  C    0.000982
    27  C    0.011626
    37  N   -0.226995
    38  C    0.138603
    39  C    0.642211
    40  O   -0.591576
    41  C    0.010458
    42  C    0.607921
    43  N   -0.018085
    44  O   -0.516206
    51  N   -0.187426
    52  C    0.114839
    53  C    0.655897
    54  O   -0.471685
    55  C    0.044216
    56  C    0.067877
    57  C    0.204365
    58  N   -0.269637
    59  C    0.580631
    60  N   -0.360195
    61  N   -0.131573
    62  O   -0.186708
 Electronic spatial extent (au):  <R**2>=         134402.1762
 Charge=              1.0000 electrons
 Dipole moment (field-independent basis, Debye):
    X=            -31.0719    Y=             -8.5659    Z=            -36.1925  Tot=             48.4637
 Quadrupole moment (field-independent basis, Debye-Ang):
   XX=             -5.9859   YY=           -119.7285   ZZ=             71.9080
   XY=             28.3494   XZ=            223.6662   YZ=             63.3691
 Traceless Quadrupole moment (field-independent basis, Debye-Ang):
   XX=             11.9496   YY=           -101.7930   ZZ=             89.8434
   XY=             28.3494   XZ=            223.6662   YZ=             63.3691
 Octapole moment (field-independent basis, Debye-Ang**2):
  XXX=           3260.8424  YYY=            701.1598  ZZZ=           2638.3965  XYY=            852.0948
  XXY=            366.1852  XXZ=            215.3617  XZZ=           -161.7264  YZZ=           -137.0969
  YYZ=           1009.5103  XYZ=           -180.7919
 Hexadecapole moment (field-independent basis, Debye-Ang**3):
 XXXX=         -64641.6501 YYYY=          -7177.8679 ZZZZ=         -64743.3895 XXXY=          -7513.5086
 XXXZ=         -26018.4338 YYYX=          -4243.0607 YYYZ=          -6791.7813 ZZZX=         -21696.2101
 ZZZY=          -5273.3115 XXYY=          -8358.3618 XXZZ=         -15469.1598 YYZZ=         -11373.4209
 XXYZ=          -3450.2242 YYXZ=          -7017.0994 ZZXY=           -768.5114
 N-N= 5.243884672662D+03 E-N=-1.492764452603D+04  KE= 1.899791615429D+03
 Unable to Open any file for archive entry.
 1\1\GINC-AMR-243\SP\RB3LYP\6-31G(d)\C23H36N9O7(1+)\KENGMITH\06-Jun-202
 2\0\\# B3LYP/6-31G* empiricaldispersion=gd3 guess=read geom=check nosy
 mm integral(ultrafinegrid)\\Candidate Structure: Conf:255 Charge calc 
 in gas phase\\1,1\N,0,-3.5872077208,-1.8478528533,-7.8353790325\C,0,-4
 .7833911816,-2.5959917877,-8.3535119832\C,0,-5.7647478066,-1.536070619
 7,-8.880458202\O,0,-5.2784169298,-0.5339745722,-9.3998172172\C,0,-5.22
 33143427,-3.6401302053,-7.32563166\C,0,-4.1058422691,-4.6661711375,-7.
 1094459904\N,0,-4.4902521539,-5.9076024628,-6.7496766522\O,0,-2.916591
 1158,-4.3619243728,-7.2473085416\H,0,-3.8734285345,-1.3162898971,-6.98
 90197351\H,0,-4.4461011112,-3.116404757,-9.2575894034\H,0,-5.449327234
 ,-3.1702660687,-6.3601212024\H,0,-6.1301421798,-4.1335540911,-7.686530
 9976\H,0,-3.7747274141,-6.5891735012,-6.5299290056\H,0,-5.4560826607,-
 6.1661007244,-6.6153075357\H,0,-2.8669379908,-2.5634821143,-7.60854136
 3\H,0,-3.2927912555,-1.169358917,-8.5474651919\N,0,-7.0873161676,-1.81
 94174717,-8.8465146733\C,0,-7.965641413,-1.336822768,-9.9223602417\C,0
 ,-9.3214131002,-0.9590798476,-9.2937207779\O,0,-10.2691557298,-1.74824
 0797,-9.3379232298\C,0,-8.1357850054,-2.4236435835,-11.0217664073\C,0,
 -6.8588315849,-3.1978424005,-11.2587341419\C,0,-5.7871428204,-2.639405
 1955,-11.9677460901\C,0,-6.690183418,-4.4669986119,-10.6853947838\C,0,
 -4.5777349723,-3.3260474356,-12.094096006\C,0,-5.4839406548,-5.1602479
 27,-10.808900379\C,0,-4.4196188415,-4.5875604655,-11.5114972444\H,0,-7
 .4220810315,-2.6563362955,-8.3662697323\H,0,-7.4692334641,-0.464370119
 2,-10.3479132686\H,0,-8.9396662655,-3.0984070692,-10.7179949351\H,0,-8
 .4759201608,-1.9258226517,-11.9368930762\H,0,-5.895102016,-1.653648821
 6,-12.4128964897\H,0,-7.5184580351,-4.9172985129,-10.1418215564\H,0,-3
 .7603112745,-2.8787235099,-12.6525366697\H,0,-5.375744604,-6.146421887
 5,-10.3650701173\H,0,-3.4813468923,-5.1246794439,-11.6162264213\N,0,-9
 .418695241,0.2210881683,-8.6345921627\C,0,-8.3836862111,1.2102063302,-
 8.3938833966\C,0,-7.5234237928,0.9918040113,-7.1406395025\O,0,-6.40400
 51263,1.5494987739,-7.1281165018\C,0,-8.9770430026,2.634687826,-8.3516
 030427\C,0,-10.0004126544,2.8135086238,-7.2265419556\N,0,-10.179165507
 3,4.0840502244,-6.7940891395\O,0,-10.6255628059,1.8617220323,-6.760209
 174\H,0,-10.2768580639,0.3711139912,-8.1055485445\H,0,-7.6573824013,1.
 1878833128,-9.2078832701\H,0,-9.478056525,2.8329425211,-9.307034747\H,
 0,-8.1525703511,3.3481979262,-8.2548323277\H,0,-10.9063627319,4.261970
 5172,-6.113814258\H,0,-9.6889605849,4.8720522728,-7.1909338305\N,0,-7.
 9742075248,0.2613280836,-6.1098122216\C,0,-7.1651077721,0.168398649,-4
 .8819421894\C,0,-6.0029443579,-0.8179166087,-5.1094963087\O,0,-5.83190
 45084,-1.8761586691,-4.548222641\C,0,-7.9666746465,-0.0861022781,-3.59
 60224985\C,0,-9.1469128682,-1.066659523,-3.6014222079\C,0,-8.853851187
 4,-2.5443404639,-3.884965394\N,0,-8.4548071551,-2.8813870367,-5.257730
 9702\C,0,-9.2873539159,-2.7506913349,-6.3366567141\N,0,-10.1668550686,
 -1.8127225438,-6.3761269321\N,0,-8.980649923,-3.6519537497,-7.39983386
 38\O,0,-5.1178299284,-0.389419734,-6.0435062312\H,0,-5.4386541073,0.48
 15204885,-6.4607062704\H,0,-8.8641199036,-0.2532319472,-6.1759440476\H
 ,0,-6.6810422028,1.1471116401,-4.7712690606\H,0,-7.2374346946,-0.38687
 40427,-2.8344387646\H,0,-8.362536762,0.8859948134,-3.2812773388\H,0,-9
 .5775948897,-1.031787515,-2.5922094029\H,0,-9.9322111096,-0.7235927855
 ,-4.2776135416\H,0,-8.0375430717,-2.8878753824,-3.2442886526\H,0,-9.75
 39177824,-3.1186740863,-3.6272023676\H,0,-7.6720368501,-3.5088424812,-
 5.348558379\H,0,-10.7529181013,-1.8826136153,-7.2062484602\H,0,-9.6163
 445263,-3.5078161984,-8.1844643218\H,0,-9.00191658,-4.6255631632,-7.10
 39309515\\Version=ES64L-G16RevC.01\HF=-1917.4994204\RMSD=4.627e-10\Dip
 ole=1.3142522,-0.5516465,0.309272\Quadrupole=8.8842299,-75.6806319,66.
 796402,21.0771195,166.2903636,47.1133427\PG=C01 [X(C23H36N9O7)]\\@
 The archive entry for this job was punched.


      LET US REMEMBER, PLEASE, THAT THE SEARCH FOR THE CONSTITUTION
      OF THE WORLD IS ONE OF THE GREATEST AND NOBLEST PROBLEMS PRESENTED 
      BY NATURE.

                                                  -- GALILEO
 Job cpu time:       0 days  0 hours  2 minutes 41.4 seconds.
 Elapsed time:       0 days  0 hours  0 minutes 41.2 seconds.
 File lengths (MBytes):  RWF=    344 Int=      0 D2E=      0 Chk=     48 Scr=     16
 Normal termination of Gaussian 16 at Mon Jun  6 02:41:39 2022.
