 Entering Gaussian System, Link 0=/opt/software/Gaussian/g16-AVX2-C.01/g16/g16
 Input=charge-conf-472.com
 Output=charge-conf-472.log
 Initial command:
 /opt/software/Gaussian/g16-AVX2-C.01/g16/l1.exe "/mnt/gs18/scratch/users/kengmith/Gau-215116.inp" -scrdir="/mnt/gs18/scratch/users/kengmith/"
 Entering Link 1 = /opt/software/Gaussian/g16-AVX2-C.01/g16/l1.exe PID=    215126.
  
 Copyright (c) 1988-2019, Gaussian, Inc.  All Rights Reserved.
  
 This is part of the Gaussian(R) 16 program.  It is based on
 the Gaussian(R) 09 system (copyright 2009, Gaussian, Inc.),
 the Gaussian(R) 03 system (copyright 2003, Gaussian, Inc.),
 the Gaussian(R) 98 system (copyright 1998, Gaussian, Inc.),
 the Gaussian(R) 94 system (copyright 1995, Gaussian, Inc.),
 the Gaussian 92(TM) system (copyright 1992, Gaussian, Inc.),
 the Gaussian 90(TM) system (copyright 1990, Gaussian, Inc.),
 the Gaussian 88(TM) system (copyright 1988, Gaussian, Inc.),
 the Gaussian 86(TM) system (copyright 1986, Carnegie Mellon
 University), and the Gaussian 82(TM) system (copyright 1983,
 Carnegie Mellon University). Gaussian is a federally registered
 trademark of Gaussian, Inc.
  
 This software contains proprietary and confidential information,
 including trade secrets, belonging to Gaussian, Inc.
  
 This software is provided under written license and may be
 used, copied, transmitted, or stored only in accord with that
 written license.
  
 The following legend is applicable only to US Government
 contracts under FAR:
  
                    RESTRICTED RIGHTS LEGEND
  
 Use, reproduction and disclosure by the US Government is
 subject to restrictions as set forth in subparagraphs (a)
 and (c) of the Commercial Computer Software - Restricted
 Rights clause in FAR 52.227-19.
  
 Gaussian, Inc.
 340 Quinnipiac St., Bldg. 40, Wallingford CT 06492
  
  
 ---------------------------------------------------------------
 Warning -- This program may not be used in any manner that
 competes with the business of Gaussian, Inc. or will provide
 assistance to any competitor of Gaussian, Inc.  The licensee
 of this program is prohibited from giving any competitor of
 Gaussian, Inc. access to this program.  By using this program,
 the user acknowledges that Gaussian, Inc. is engaged in the
 business of creating and licensing software in the field of
 computational chemistry and represents and warrants to the
 licensee that it is not a competitor of Gaussian, Inc. and that
 it will not use this program in any manner prohibited above.
 ---------------------------------------------------------------
  

 Cite this work as:
 Gaussian 16, Revision C.01,
 M. J. Frisch, G. W. Trucks, H. B. Schlegel, G. E. Scuseria, 
 M. A. Robb, J. R. Cheeseman, G. Scalmani, V. Barone, 
 G. A. Petersson, H. Nakatsuji, X. Li, M. Caricato, A. V. Marenich, 
 J. Bloino, B. G. Janesko, R. Gomperts, B. Mennucci, H. P. Hratchian, 
 J. V. Ortiz, A. F. Izmaylov, J. L. Sonnenberg, D. Williams-Young, 
 F. Ding, F. Lipparini, F. Egidi, J. Goings, B. Peng, A. Petrone, 
 T. Henderson, D. Ranasinghe, V. G. Zakrzewski, J. Gao, N. Rega, 
 G. Zheng, W. Liang, M. Hada, M. Ehara, K. Toyota, R. Fukuda, 
 J. Hasegawa, M. Ishida, T. Nakajima, Y. Honda, O. Kitao, H. Nakai, 
 T. Vreven, K. Throssell, J. A. Montgomery, Jr., J. E. Peralta, 
 F. Ogliaro, M. J. Bearpark, J. J. Heyd, E. N. Brothers, K. N. Kudin, 
 V. N. Staroverov, T. A. Keith, R. Kobayashi, J. Normand, 
 K. Raghavachari, A. P. Rendell, J. C. Burant, S. S. Iyengar, 
 J. Tomasi, M. Cossi, J. M. Millam, M. Klene, C. Adamo, R. Cammi, 
 J. W. Ochterski, R. L. Martin, K. Morokuma, O. Farkas, 
 J. B. Foresman, and D. J. Fox, Gaussian, Inc., Wallingford CT, 2019.
 
 ******************************************
 Gaussian 16:  ES64L-G16RevC.01  3-Jul-2019
                 6-Jun-2022 
 ******************************************
 %mem=8gb
 %nproc=4
 Will use up to    4 processors via shared memory.
 %chk=conf-472.chk
 ----------------------------------------------------------------------
 # B3LYP/6-31G* empiricaldispersion=gd3 guess=read geom=check nosymm in
 tegral(ultrafinegrid)
 ----------------------------------------------------------------------
 1/29=2,38=1,172=1/1;
 2/12=2,15=1,40=1/2;
 3/5=1,6=6,7=1,11=2,14=-4,25=1,30=1,74=-5,75=-5,116=-2,124=31/1,2,3;
 4/5=1/1;
 5/5=2,38=6/2;
 6/7=2,8=2,9=2,10=2,28=1/1;
 99/5=1,9=1/99;
 ------------------------------------------------------
 Candidate Structure: Conf:472 Charge calc in gas phase
 ------------------------------------------------------
 Structure from the checkpoint file:  "conf-472.chk"
 Charge =  1 Multiplicity = 1
 Redundant internal coordinates found in file.  (old form).
 N,0,-6.0597207632,-1.2452373731,-11.7382062728
 C,0,-5.3414408436,-2.0026154725,-10.6525716808
 C,0,-6.3466693729,-3.0713132818,-10.1809008555
 O,0,-7.016491465,-3.6526143612,-11.0322947802
 C,0,-4.8260867595,-1.0482093643,-9.5804342321
 C,0,-4.0317607853,0.1358070516,-10.1347762622
 N,0,-3.4430713943,0.9034597767,-9.1983913
 O,0,-3.9654903874,0.3711152382,-11.3466608694
 H,0,-5.3903577576,-0.5309841152,-12.0910510698
 H,0,-4.5079944596,-2.5157691212,-11.1425761607
 H,0,-5.6551175394,-0.6636169122,-8.9861262205
 H,0,-4.19075627,-1.606815816,-8.8833013215
 H,0,-2.9280026031,1.7223381714,-9.4949881533
 H,0,-3.5693653241,0.733868753,-8.207174033
 H,0,-6.3752563254,-1.9028222859,-12.4587566258
 H,0,-6.9063200922,-0.7867038501,-11.3204255898
 N,0,-6.469514493,-3.2528142687,-8.8501471338
 C,0,-7.245391813,-4.3358931396,-8.2488612941
 C,0,-8.3287998736,-3.7944180884,-7.284487818
 O,0,-8.5129968903,-4.3368404051,-6.1975432299
 C,0,-6.2923462877,-5.3331782627,-7.5354553056
 C,0,-5.3112623847,-4.6511843062,-6.6010261965
 C,0,-4.104053978,-4.1297105788,-7.0965537921
 C,0,-5.5965423556,-4.4818217701,-5.2391269664
 C,0,-3.2293509183,-3.4216203063,-6.2684688122
 C,0,-4.7201687493,-3.7828037885,-4.4059423419
 C,0,-3.5418152308,-3.2362552263,-4.9206341238
 H,0,-5.8620537063,-2.7494488312,-8.215344305
 H,0,-7.7508625311,-4.848703324,-9.0739377618
 H,0,-6.9068828534,-6.0569755399,-6.9963674526
 H,0,-5.748757598,-5.8710343312,-8.3197439166
 H,0,-3.8367393549,-4.3031824398,-8.137509216
 H,0,-6.5078041365,-4.9119452313,-4.83897581
 H,0,-2.2959093837,-3.0362644174,-6.6700198259
 H,0,-4.9528478401,-3.6766243729,-3.3494459585
 H,0,-2.8613411048,-2.6932779633,-4.2713778644
 N,0,-9.0782868566,-2.7145106505,-7.6586876442
 C,0,-9.1722163473,-2.0451201661,-8.9468076547
 C,0,-8.3472518004,-0.7472474723,-9.0509226997
 O,0,-8.0840292376,-0.2850254015,-10.1780612826
 C,0,-10.6553618639,-1.7490831092,-9.2973750952
 C,0,-11.3058710254,-0.9062707614,-8.2037501991
 N,0,-12.2605857804,-1.5134445867,-7.460247384
 O,0,-10.9274954833,0.2453200735,-7.9990028442
 H,0,-9.6958903897,-2.38895065,-6.9055848255
 H,0,-8.8015280395,-2.7003227947,-9.7359080829
 H,0,-11.1687171956,-2.7022535208,-9.4579266923
 H,0,-10.6778831111,-1.1798226492,-10.2306351225
 H,0,-12.5369300326,-1.064303236,-6.5959494213
 H,0,-12.4651762616,-2.4972117545,-7.5563577241
 N,0,-7.9373650559,-0.1671478168,-7.9141682978
 C,0,-7.4320566922,1.1920688342,-7.8693620605
 C,0,-6.0782201319,1.2226230276,-7.1501057342
 O,0,-5.4361975781,0.2356111806,-6.8559164632
 C,0,-8.4719440072,2.197275396,-7.3059885403
 C,0,-8.7053497267,2.2128218409,-5.7826298519
 C,0,-9.3648499759,0.9687216964,-5.17536408
 N,0,-8.4034197008,-0.1427144525,-5.0687895516
 C,0,-8.8660560234,-1.4177053658,-4.7174493529
 N,0,-10.090880287,-1.7460528543,-4.9655942841
 N,0,-7.8935102516,-2.2265635096,-4.1560739331
 O,0,-5.5626585039,2.4425108671,-6.9068698819
 H,0,-6.1819733361,3.1471005913,-7.1644995444
 H,0,-8.192576206,-0.5485079366,-7.0022733083
 H,0,-7.229264089,1.4752135545,-8.910262339
 H,0,-8.1727521422,3.208421758,-7.6216741217
 H,0,-9.4117582777,1.9876156106,-7.8223677383
 H,0,-7.7651076083,2.4328990643,-5.2537816203
 H,0,-9.3660006516,3.0617016078,-5.5724727027
 H,0,-9.7715620052,1.2113658783,-4.1845975485
 H,0,-10.1935409093,0.6376488931,-5.8015265675
 H,0,-7.5671779092,0.1203370677,-4.5550854824
 H,0,-10.2484241064,-2.7177004373,-4.6935352807
 H,0,-8.0721193955,-3.2145004509,-4.2980866934
 H,0,-6.9297628984,-2.0029742608,-4.3833589965
 Recover connectivity data from disk.
                           ----------------------------
                           !    Current Parameters    !
                           ! (Angstroms and Degrees)  !
 --------------------------                            --------------------------
 ! Name  Definition              Value                                          !
 --------------------------------------------------------------------------------
 ! R1    R(1,2)                  1.506                                          !
 ! R2    R(1,9)                  1.0405                                         !
 ! R3    R(1,15)                 1.0253                                         !
 ! R4    R(1,16)                 1.0495                                         !
 ! R5    R(2,3)                  1.5411                                         !
 ! R6    R(2,5)                  1.5251                                         !
 ! R7    R(2,10)                 1.0946                                         !
 ! R8    R(3,4)                  1.2294                                         !
 ! R9    R(3,17)                 1.3487                                         !
 ! R10   R(5,6)                  1.5298                                         !
 ! R11   R(5,11)                 1.0901                                         !
 ! R12   R(5,12)                 1.0962                                         !
 ! R13   R(6,7)                  1.3464                                         !
 ! R14   R(6,8)                  1.2363                                         !
 ! R15   R(7,13)                 1.0118                                         !
 ! R16   R(7,14)                 1.0135                                         !
 ! R17   R(17,18)                1.4617                                         !
 ! R18   R(17,28)                1.0126                                         !
 ! R19   R(18,19)                1.5482                                         !
 ! R20   R(18,21)                1.553                                          !
 ! R21   R(18,29)                1.0951                                         !
 ! R22   R(19,20)                1.2287                                         !
 ! R23   R(19,37)                1.3667                                         !
 ! R24   R(21,22)                1.5168                                         !
 ! R25   R(21,30)                1.0919                                         !
 ! R26   R(21,31)                1.0954                                         !
 ! R27   R(22,23)                1.4053                                         !
 ! R28   R(22,24)                1.4017                                         !
 ! R29   R(23,25)                1.3972                                         !
 ! R30   R(23,32)                1.0886                                         !
 ! R31   R(24,26)                1.3967                                         !
 ! R32   R(24,33)                1.0842                                         !
 ! R33   R(25,27)                1.3959                                         !
 ! R34   R(25,34)                1.0868                                         !
 ! R35   R(26,27)                1.3972                                         !
 ! R36   R(26,35)                1.087                                          !
 ! R37   R(27,36)                1.086                                          !
 ! R38   R(37,38)                1.4547                                         !
 ! R39   R(37,45)                1.0269                                         !
 ! R40   R(38,39)                1.5414                                         !
 ! R41   R(38,41)                1.5525                                         !
 ! R42   R(38,46)                1.0906                                         !
 ! R43   R(39,40)                1.2463                                         !
 ! R44   R(39,51)                1.3404                                         !
 ! R45   R(41,42)                1.5263                                         !
 ! R46   R(41,47)                1.0945                                         !
 ! R47   R(41,48)                1.0934                                         !
 ! R48   R(42,43)                1.3539                                         !
 ! R49   R(42,44)                1.2293                                         !
 ! R50   R(43,49)                1.0125                                         !
 ! R51   R(43,50)                1.0094                                         !
 ! R52   R(51,52)                1.4508                                         !
 ! R53   R(51,64)                1.0208                                         !
 ! R54   R(52,53)                1.5333                                         !
 ! R55   R(52,55)                1.5522                                         !
 ! R56   R(52,65)                1.0976                                         !
 ! R57   R(53,54)                1.2136                                         !
 ! R58   R(53,62)                1.3465                                         !
 ! R59   R(55,56)                1.5412                                         !
 ! R60   R(55,66)                1.1007                                         !
 ! R61   R(55,67)                1.0926                                         !
 ! R62   R(56,57)                1.5335                                         !
 ! R63   R(56,68)                1.101                                          !
 ! R64   R(56,69)                1.096                                          !
 ! R65   R(57,58)                1.4734                                         !
 ! R66   R(57,70)                1.0981                                         !
 ! R67   R(57,71)                1.0901                                         !
 ! R68   R(58,59)                1.4011                                         !
 ! R69   R(58,72)                1.0161                                         !
 ! R70   R(59,60)                1.2921                                         !
 ! R71   R(59,61)                1.3839                                         !
 ! R72   R(60,73)                1.0212                                         !
 ! R73   R(61,74)                1.0139                                         !
 ! R74   R(61,75)                1.0151                                         !
 ! R75   R(62,63)                0.9728                                         !
 ! A1    A(2,1,9)              106.4297                                         !
 ! A2    A(2,1,15)             109.3201                                         !
 ! A3    A(2,1,16)             108.5106                                         !
 ! A4    A(9,1,15)             113.5734                                         !
 ! A5    A(9,1,16)             110.7317                                         !
 ! A6    A(15,1,16)            108.1627                                         !
 ! A7    A(1,2,3)              104.9672                                         !
 ! A8    A(1,2,5)              110.6836                                         !
 ! A9    A(1,2,10)             106.0347                                         !
 ! A10   A(3,2,5)              116.0538                                         !
 ! A11   A(3,2,10)             107.9733                                         !
 ! A12   A(5,2,10)             110.5359                                         !
 ! A13   A(2,3,4)              118.1195                                         !
 ! A14   A(2,3,17)             117.0471                                         !
 ! A15   A(4,3,17)             124.7544                                         !
 ! A16   A(2,5,6)              113.8959                                         !
 ! A17   A(2,5,11)             110.3067                                         !
 ! A18   A(2,5,12)             108.906                                          !
 ! A19   A(6,5,11)             108.6252                                         !
 ! A20   A(6,5,12)             108.9001                                         !
 ! A21   A(11,5,12)            105.8923                                         !
 ! A22   A(5,6,7)              114.6025                                         !
 ! A23   A(5,6,8)              122.0304                                         !
 ! A24   A(7,6,8)              123.3536                                         !
 ! A25   A(6,7,13)             118.6949                                         !
 ! A26   A(6,7,14)             122.0259                                         !
 ! A27   A(13,7,14)            119.0468                                         !
 ! A28   A(3,17,18)            123.6388                                         !
 ! A29   A(3,17,28)            119.8037                                         !
 ! A30   A(18,17,28)           115.3967                                         !
 ! A31   A(17,18,19)           111.6249                                         !
 ! A32   A(17,18,21)           109.8189                                         !
 ! A33   A(17,18,29)           106.383                                          !
 ! A34   A(19,18,21)           111.5856                                         !
 ! A35   A(19,18,29)           108.0641                                         !
 ! A36   A(21,18,29)           109.187                                          !
 ! A37   A(18,19,20)           120.1029                                         !
 ! A38   A(18,19,37)           119.3106                                         !
 ! A39   A(20,19,37)           120.5858                                         !
 ! A40   A(18,21,22)           113.0284                                         !
 ! A41   A(18,21,30)           107.8846                                         !
 ! A42   A(18,21,31)           106.9147                                         !
 ! A43   A(22,21,30)           110.9733                                         !
 ! A44   A(22,21,31)           109.93                                           !
 ! A45   A(30,21,31)           107.8977                                         !
 ! A46   A(21,22,23)           120.3477                                         !
 ! A47   A(21,22,24)           121.4143                                         !
 ! A48   A(23,22,24)           118.2029                                         !
 ! A49   A(22,23,25)           121.1221                                         !
 ! A50   A(22,23,32)           119.2735                                         !
 ! A51   A(25,23,32)           119.5867                                         !
 ! A52   A(22,24,26)           120.8203                                         !
 ! A53   A(22,24,33)           118.7968                                         !
 ! A54   A(26,24,33)           120.3804                                         !
 ! A55   A(23,25,27)           119.9608                                         !
 ! A56   A(23,25,34)           119.8959                                         !
 ! A57   A(27,25,34)           120.1279                                         !
 ! A58   A(24,26,27)           120.3445                                         !
 ! A59   A(24,26,35)           119.6273                                         !
 ! A60   A(27,26,35)           120.0233                                         !
 ! A61   A(25,27,26)           119.5061                                         !
 ! A62   A(25,27,36)           120.2236                                         !
 ! A63   A(26,27,36)           120.2514                                         !
 ! A64   A(19,37,38)           129.8989                                         !
 ! A65   A(19,37,45)           112.303                                          !
 ! A66   A(38,37,45)           117.6883                                         !
 ! A67   A(37,38,39)           114.3753                                         !
 ! A68   A(37,38,41)           110.4494                                         !
 ! A69   A(37,38,46)           110.017                                          !
 ! A70   A(39,38,41)           109.6022                                         !
 ! A71   A(39,38,46)           105.9665                                         !
 ! A72   A(41,38,46)           106.0149                                         !
 ! A73   A(38,39,40)           119.1036                                         !
 ! A74   A(38,39,51)           118.0849                                         !
 ! A75   A(40,39,51)           122.8106                                         !
 ! A76   A(38,41,42)           110.528                                          !
 ! A77   A(38,41,47)           108.37                                           !
 ! A78   A(38,41,48)           108.161                                          !
 ! A79   A(42,41,47)           112.713                                          !
 ! A80   A(42,41,48)           108.3797                                         !
 ! A81   A(47,41,48)           108.5752                                         !
 ! A82   A(41,42,43)           116.5132                                         !
 ! A83   A(41,42,44)           120.3606                                         !
 ! A84   A(43,42,44)           123.0723                                         !
 ! A85   A(42,43,49)           117.5372                                         !
 ! A86   A(42,43,50)           121.852                                          !
 ! A87   A(49,43,50)           117.2775                                         !
 ! A88   A(39,51,52)           122.5579                                         !
 ! A89   A(39,51,64)           121.2939                                         !
 ! A90   A(52,51,64)           114.1721                                         !
 ! A91   A(51,52,53)           109.9182                                         !
 ! A92   A(51,52,55)           112.619                                          !
 ! A93   A(51,52,65)           106.0658                                         !
 ! A94   A(53,52,55)           114.1024                                         !
 ! A95   A(53,52,65)           106.0556                                         !
 ! A96   A(55,52,65)           107.5131                                         !
 ! A97   A(52,53,54)           124.3727                                         !
 ! A98   A(52,53,62)           116.1582                                         !
 ! A99   A(54,53,62)           119.3701                                         !
 ! A100  A(52,55,56)           117.8235                                         !
 ! A101  A(52,55,66)           107.9817                                         !
 ! A102  A(52,55,67)           106.2873                                         !
 ! A103  A(56,55,66)           108.3834                                         !
 ! A104  A(56,55,67)           109.8037                                         !
 ! A105  A(66,55,67)           105.9337                                         !
 ! A106  A(55,56,57)           116.6392                                         !
 ! A107  A(55,56,68)           110.332                                          !
 ! A108  A(55,56,69)           106.7758                                         !
 ! A109  A(57,56,68)           109.8303                                         !
 ! A110  A(57,56,69)           107.0495                                         !
 ! A111  A(68,56,69)           105.5364                                         !
 ! A112  A(56,57,58)           111.1                                            !
 ! A113  A(56,57,70)           109.713                                          !
 ! A114  A(56,57,71)           110.234                                          !
 ! A115  A(58,57,70)           110.0648                                         !
 ! A116  A(58,57,71)           107.9676                                         !
 ! A117  A(70,57,71)           107.6853                                         !
 ! A118  A(57,58,59)           119.2819                                         !
 ! A119  A(57,58,72)           112.2292                                         !
 ! A120  A(59,58,72)           112.3689                                         !
 ! A121  A(58,59,60)           119.7412                                         !
 ! A122  A(58,59,61)           113.6744                                         !
 ! A123  A(60,59,61)           126.55                                           !
 ! A124  A(59,60,73)           109.6848                                         !
 ! A125  A(59,61,74)           112.8843                                         !
 ! A126  A(59,61,75)           116.5915                                         !
 ! A127  A(74,61,75)           110.5172                                         !
 ! A128  A(53,62,63)           111.3815                                         !
 ! D1    D(9,1,2,3)           -178.5784                                         !
 ! D2    D(9,1,2,5)             55.4848                                         !
 ! D3    D(9,1,2,10)           -64.4256                                         !
 ! D4    D(15,1,2,3)           -55.5393                                         !
 ! D5    D(15,1,2,5)           178.524                                          !
 ! D6    D(15,1,2,10)           58.6135                                         !
 ! D7    D(16,1,2,3)            62.2174                                         !
 ! D8    D(16,1,2,5)           -63.7193                                         !
 ! D9    D(16,1,2,10)          176.3702                                         !
 ! D10   D(1,2,3,4)             41.0049                                         !
 ! D11   D(1,2,3,17)          -135.9174                                         !
 ! D12   D(5,2,3,4)            163.5298                                         !
 ! D13   D(5,2,3,17)           -13.3925                                         !
 ! D14   D(10,2,3,4)           -71.7824                                         !
 ! D15   D(10,2,3,17)          111.2953                                         !
 ! D16   D(1,2,5,6)            -50.3426                                         !
 ! D17   D(1,2,5,11)            72.0976                                         !
 ! D18   D(1,2,5,12)          -172.0939                                         !
 ! D19   D(3,2,5,6)           -169.8057                                         !
 ! D20   D(3,2,5,11)           -47.3655                                         !
 ! D21   D(3,2,5,12)            68.443                                          !
 ! D22   D(10,2,5,6)            66.8325                                         !
 ! D23   D(10,2,5,11)         -170.7273                                         !
 ! D24   D(10,2,5,12)          -54.9188                                         !
 ! D25   D(2,3,17,18)         -171.8769                                         !
 ! D26   D(2,3,17,28)           -4.7693                                         !
 ! D27   D(4,3,17,18)           11.4271                                         !
 ! D28   D(4,3,17,28)          178.5347                                         !
 ! D29   D(2,5,6,7)           -172.8675                                         !
 ! D30   D(2,5,6,8)              8.4287                                         !
 ! D31   D(11,5,6,7)            63.7735                                         !
 ! D32   D(11,5,6,8)          -114.9303                                         !
 ! D33   D(12,5,6,7)           -51.1129                                         !
 ! D34   D(12,5,6,8)           130.1833                                         !
 ! D35   D(5,6,7,13)          -177.9247                                         !
 ! D36   D(5,6,7,14)            -3.519                                          !
 ! D37   D(8,6,7,13)             0.7598                                         !
 ! D38   D(8,6,7,14)           175.1654                                         !
 ! D39   D(3,17,18,19)        -123.497                                          !
 ! D40   D(3,17,18,21)         112.2026                                         !
 ! D41   D(3,17,18,29)          -5.837                                          !
 ! D42   D(28,17,18,19)         68.8788                                         !
 ! D43   D(28,17,18,21)        -55.4216                                         !
 ! D44   D(28,17,18,29)       -173.4613                                         !
 ! D45   D(17,18,19,20)       -136.7489                                         !
 ! D46   D(17,18,19,37)         43.5584                                         !
 ! D47   D(21,18,19,20)        -13.4458                                         !
 ! D48   D(21,18,19,37)        166.8615                                         !
 ! D49   D(29,18,19,20)        106.6074                                         !
 ! D50   D(29,18,19,37)        -73.0853                                         !
 ! D51   D(17,18,21,22)         50.0721                                         !
 ! D52   D(17,18,21,30)        173.1541                                         !
 ! D53   D(17,18,21,31)        -71.0188                                         !
 ! D54   D(19,18,21,22)        -74.2511                                         !
 ! D55   D(19,18,21,30)         48.8309                                         !
 ! D56   D(19,18,21,31)        164.658                                          !
 ! D57   D(29,18,21,22)        166.3587                                         !
 ! D58   D(29,18,21,30)        -70.5593                                         !
 ! D59   D(29,18,21,31)         45.2678                                         !
 ! D60   D(18,19,37,38)          9.6724                                         !
 ! D61   D(18,19,37,45)       -174.289                                          !
 ! D62   D(20,19,37,38)       -170.0188                                         !
 ! D63   D(20,19,37,45)          6.0199                                         !
 ! D64   D(18,21,22,23)        -84.8897                                         !
 ! D65   D(18,21,22,24)         92.9148                                         !
 ! D66   D(30,21,22,23)        153.7575                                         !
 ! D67   D(30,21,22,24)        -28.4381                                         !
 ! D68   D(31,21,22,23)         34.4773                                         !
 ! D69   D(31,21,22,24)       -147.7183                                         !
 ! D70   D(21,22,23,25)        175.7499                                         !
 ! D71   D(21,22,23,32)         -5.7875                                         !
 ! D72   D(24,22,23,25)         -2.1239                                         !
 ! D73   D(24,22,23,32)        176.3386                                         !
 ! D74   D(21,22,24,26)       -176.1936                                         !
 ! D75   D(21,22,24,33)          4.3755                                         !
 ! D76   D(23,22,24,26)          1.6565                                         !
 ! D77   D(23,22,24,33)       -177.7744                                         !
 ! D78   D(22,23,25,27)          0.7649                                         !
 ! D79   D(22,23,25,34)        179.3393                                         !
 ! D80   D(32,23,25,27)       -177.6929                                         !
 ! D81   D(32,23,25,34)          0.8815                                         !
 ! D82   D(22,24,26,27)          0.1627                                         !
 ! D83   D(22,24,26,35)       -179.0316                                         !
 ! D84   D(33,24,26,27)        179.5847                                         !
 ! D85   D(33,24,26,35)          0.3903                                         !
 ! D86   D(23,25,27,26)          1.0979                                         !
 ! D87   D(23,25,27,36)        179.5207                                         !
 ! D88   D(34,25,27,26)       -177.4732                                         !
 ! D89   D(34,25,27,36)          0.9495                                         !
 ! D90   D(24,26,27,25)         -1.5598                                         !
 ! D91   D(24,26,27,36)       -179.9821                                         !
 ! D92   D(35,26,27,25)        177.6313                                         !
 ! D93   D(35,26,27,36)         -0.791                                          !
 ! D94   D(19,37,38,39)       -100.3526                                         !
 ! D95   D(19,37,38,41)        135.4502                                         !
 ! D96   D(19,37,38,46)         18.7568                                         !
 ! D97   D(45,37,38,39)         83.7866                                         !
 ! D98   D(45,37,38,41)        -40.4106                                         !
 ! D99   D(45,37,38,46)       -157.104                                          !
 ! D100  D(37,38,39,40)        162.039                                          !
 ! D101  D(37,38,39,51)        -17.6357                                         !
 ! D102  D(41,38,39,40)        -73.3132                                         !
 ! D103  D(41,38,39,51)        107.012                                          !
 ! D104  D(46,38,39,40)         40.6723                                         !
 ! D105  D(46,38,39,51)       -139.0025                                         !
 ! D106  D(37,38,41,42)         57.1972                                         !
 ! D107  D(37,38,41,47)        -66.774                                          !
 ! D108  D(37,38,41,48)        175.6981                                         !
 ! D109  D(39,38,41,42)        -69.6985                                         !
 ! D110  D(39,38,41,47)        166.3303                                         !
 ! D111  D(39,38,41,48)         48.8024                                         !
 ! D112  D(46,38,41,42)        176.3473                                         !
 ! D113  D(46,38,41,47)         52.3761                                         !
 ! D114  D(46,38,41,48)        -65.1518                                         !
 ! D115  D(38,39,51,52)       -165.4753                                         !
 ! D116  D(38,39,51,64)         -2.4058                                         !
 ! D117  D(40,39,51,52)         14.8628                                         !
 ! D118  D(40,39,51,64)        177.9323                                         !
 ! D119  D(38,41,42,43)       -111.5355                                         !
 ! D120  D(38,41,42,44)         65.8764                                         !
 ! D121  D(47,41,42,43)          9.9004                                         !
 ! D122  D(47,41,42,44)       -172.6877                                         !
 ! D123  D(48,41,42,43)        130.097                                          !
 ! D124  D(48,41,42,44)        -52.4911                                         !
 ! D125  D(41,42,43,49)        165.0429                                         !
 ! D126  D(41,42,43,50)          6.2282                                         !
 ! D127  D(44,42,43,49)        -12.292                                          !
 ! D128  D(44,42,43,50)       -171.1067                                         !
 ! D129  D(39,51,52,53)       -128.4801                                         !
 ! D130  D(39,51,52,55)        103.0927                                         !
 ! D131  D(39,51,52,65)        -14.2453                                         !
 ! D132  D(64,51,52,53)         67.3485                                         !
 ! D133  D(64,51,52,55)        -61.0787                                         !
 ! D134  D(64,51,52,65)       -178.4167                                         !
 ! D135  D(51,52,53,54)         10.6953                                         !
 ! D136  D(51,52,53,62)       -172.9584                                         !
 ! D137  D(55,52,53,54)        138.3029                                         !
 ! D138  D(55,52,53,62)        -45.3508                                         !
 ! D139  D(65,52,53,54)       -103.546                                          !
 ! D140  D(65,52,53,62)         72.8003                                         !
 ! D141  D(51,52,55,56)         76.3768                                         !
 ! D142  D(51,52,55,66)       -160.5159                                         !
 ! D143  D(51,52,55,67)        -47.2174                                         !
 ! D144  D(53,52,55,56)        -49.8308                                         !
 ! D145  D(53,52,55,66)         73.2765                                         !
 ! D146  D(53,52,55,67)       -173.425                                          !
 ! D147  D(65,52,55,56)       -167.1457                                         !
 ! D148  D(65,52,55,66)        -44.0384                                         !
 ! D149  D(65,52,55,67)         69.2601                                         !
 ! D150  D(52,53,62,63)          5.0106                                         !
 ! D151  D(54,53,62,63)       -178.4496                                         !
 ! D152  D(52,55,56,57)        -67.4759                                         !
 ! D153  D(52,55,56,68)         58.7246                                         !
 ! D154  D(52,55,56,69)        172.9325                                         !
 ! D155  D(66,55,56,57)        169.6199                                         !
 ! D156  D(66,55,56,68)        -64.1796                                         !
 ! D157  D(66,55,56,69)         50.0283                                         !
 ! D158  D(67,55,56,57)         54.3335                                         !
 ! D159  D(67,55,56,68)       -179.466                                          !
 ! D160  D(67,55,56,69)        -65.2581                                         !
 ! D161  D(55,56,57,58)         76.3819                                         !
 ! D162  D(55,56,57,70)       -161.6876                                         !
 ! D163  D(55,56,57,71)        -43.2632                                         !
 ! D164  D(68,56,57,58)        -50.0681                                         !
 ! D165  D(68,56,57,70)         71.8624                                         !
 ! D166  D(68,56,57,71)       -169.7132                                         !
 ! D167  D(69,56,57,58)       -164.1736                                         !
 ! D168  D(69,56,57,70)        -42.243                                          !
 ! D169  D(69,56,57,71)         76.1813                                         !
 ! D170  D(56,57,58,59)       -170.9063                                         !
 ! D171  D(56,57,58,72)         54.6245                                         !
 ! D172  D(70,57,58,59)         67.3682                                         !
 ! D173  D(70,57,58,72)        -67.101                                          !
 ! D174  D(71,57,58,59)        -49.9189                                         !
 ! D175  D(71,57,58,72)        175.6119                                         !
 ! D176  D(57,58,59,60)         25.5322                                         !
 ! D177  D(57,58,59,61)       -156.465                                          !
 ! D178  D(72,58,59,60)        159.9429                                         !
 ! D179  D(72,58,59,61)        -22.0543                                         !
 ! D180  D(58,59,60,73)        177.0372                                         !
 ! D181  D(61,59,60,73)         -0.6858                                         !
 ! D182  D(58,59,61,74)       -153.2635                                         !
 ! D183  D(58,59,61,75)        -23.7155                                         !
 ! D184  D(60,59,61,74)         24.5778                                         !
 ! D185  D(60,59,61,75)        154.1258                                         !
 --------------------------------------------------------------------------------
 Symmetry turned off by external request.
 Stoichiometry    C23H36N9O7(1+)
 Framework group  C1[X(C23H36N9O7)]
 Deg. of freedom   219
 Full point group                 C1      NOp   1
                          Input orientation:                          
 ---------------------------------------------------------------------
 Center     Atomic      Atomic             Coordinates (Angstroms)
 Number     Number       Type             X           Y           Z
 ---------------------------------------------------------------------
      1          7           0       -6.059721   -1.245237  -11.738206
      2          6           0       -5.341441   -2.002615  -10.652572
      3          6           0       -6.346669   -3.071313  -10.180901
      4          8           0       -7.016491   -3.652614  -11.032295
      5          6           0       -4.826087   -1.048209   -9.580434
      6          6           0       -4.031761    0.135807  -10.134776
      7          7           0       -3.443071    0.903460   -9.198391
      8          8           0       -3.965490    0.371115  -11.346661
      9          1           0       -5.390358   -0.530984  -12.091051
     10          1           0       -4.507994   -2.515769  -11.142576
     11          1           0       -5.655118   -0.663617   -8.986126
     12          1           0       -4.190756   -1.606816   -8.883301
     13          1           0       -2.928003    1.722338   -9.494988
     14          1           0       -3.569365    0.733869   -8.207174
     15          1           0       -6.375256   -1.902822  -12.458757
     16          1           0       -6.906320   -0.786704  -11.320426
     17          7           0       -6.469514   -3.252814   -8.850147
     18          6           0       -7.245392   -4.335893   -8.248861
     19          6           0       -8.328800   -3.794418   -7.284488
     20          8           0       -8.512997   -4.336840   -6.197543
     21          6           0       -6.292346   -5.333178   -7.535455
     22          6           0       -5.311262   -4.651184   -6.601026
     23          6           0       -4.104054   -4.129711   -7.096554
     24          6           0       -5.596542   -4.481822   -5.239127
     25          6           0       -3.229351   -3.421620   -6.268469
     26          6           0       -4.720169   -3.782804   -4.405942
     27          6           0       -3.541815   -3.236255   -4.920634
     28          1           0       -5.862054   -2.749449   -8.215344
     29          1           0       -7.750863   -4.848703   -9.073938
     30          1           0       -6.906883   -6.056976   -6.996367
     31          1           0       -5.748758   -5.871034   -8.319744
     32          1           0       -3.836739   -4.303182   -8.137509
     33          1           0       -6.507804   -4.911945   -4.838976
     34          1           0       -2.295909   -3.036264   -6.670020
     35          1           0       -4.952848   -3.676624   -3.349446
     36          1           0       -2.861341   -2.693278   -4.271378
     37          7           0       -9.078287   -2.714511   -7.658688
     38          6           0       -9.172216   -2.045120   -8.946808
     39          6           0       -8.347252   -0.747247   -9.050923
     40          8           0       -8.084029   -0.285025  -10.178061
     41          6           0      -10.655362   -1.749083   -9.297375
     42          6           0      -11.305871   -0.906271   -8.203750
     43          7           0      -12.260586   -1.513445   -7.460247
     44          8           0      -10.927495    0.245320   -7.999003
     45          1           0       -9.695890   -2.388951   -6.905585
     46          1           0       -8.801528   -2.700323   -9.735908
     47          1           0      -11.168717   -2.702254   -9.457927
     48          1           0      -10.677883   -1.179823  -10.230635
     49          1           0      -12.536930   -1.064303   -6.595949
     50          1           0      -12.465176   -2.497212   -7.556358
     51          7           0       -7.937365   -0.167148   -7.914168
     52          6           0       -7.432057    1.192069   -7.869362
     53          6           0       -6.078220    1.222623   -7.150106
     54          8           0       -5.436198    0.235611   -6.855916
     55          6           0       -8.471944    2.197275   -7.305989
     56          6           0       -8.705350    2.212822   -5.782630
     57          6           0       -9.364850    0.968722   -5.175364
     58          7           0       -8.403420   -0.142714   -5.068790
     59          6           0       -8.866056   -1.417705   -4.717449
     60          7           0      -10.090880   -1.746053   -4.965594
     61          7           0       -7.893510   -2.226564   -4.156074
     62          8           0       -5.562659    2.442511   -6.906870
     63          1           0       -6.181973    3.147101   -7.164500
     64          1           0       -8.192576   -0.548508   -7.002273
     65          1           0       -7.229264    1.475214   -8.910262
     66          1           0       -8.172752    3.208422   -7.621674
     67          1           0       -9.411758    1.987616   -7.822368
     68          1           0       -7.765108    2.432899   -5.253782
     69          1           0       -9.366001    3.061702   -5.572473
     70          1           0       -9.771562    1.211366   -4.184598
     71          1           0      -10.193541    0.637649   -5.801527
     72          1           0       -7.567178    0.120337   -4.555085
     73          1           0      -10.248424   -2.717700   -4.693535
     74          1           0       -8.072119   -3.214500   -4.298087
     75          1           0       -6.929763   -2.002974   -4.383359
 ---------------------------------------------------------------------
 Rotational constants (GHZ):           0.1097682           0.0972422           0.0855670
 Standard basis: 6-31G(d) (6D, 7F)
   657 basis functions,  1236 primitive gaussians,   657 cartesian basis functions
   146 alpha electrons      146 beta electrons
       nuclear repulsion energy      5271.9076453901 Hartrees.
 NAtoms=   75 NActive=   75 NUniq=   75 SFac= 1.00D+00 NAtFMM=   60 NAOKFM=T Big=T
 Integral buffers will be    131072 words long.
 Raffenetti 2 integral format.
 Two-electron integral symmetry is turned off.
 Nuclear repulsion after empirical dispersion term =     5271.7795075627 Hartrees.
 One-electron integrals computed using PRISM.
 NBasis=   657 RedAO= T EigKep=  4.70D-04  NBF=   657
 NBsUse=   657 1.00D-06 EigRej= -1.00D+00 NBFU=   657
 Initial guess from the checkpoint file:  "conf-472.chk"
 B after Tr=     0.000000    0.000000    0.000000
         Rot=    1.000000    0.000000    0.000000    0.000000 Ang=   0.00 deg.
 Requested convergence on RMS density matrix=1.00D-08 within 128 cycles.
 Requested convergence on MAX density matrix=1.00D-06.
 Requested convergence on             energy=1.00D-06.
 No special actions if energy rises.
 SCF Done:  E(RB3LYP) =  -1917.49643951     A.U. after    3 cycles
            NFock=  3  Conv=0.94D-09     -V/T= 2.0093

 **********************************************************************

            Population analysis using the SCF Density.

 **********************************************************************

 Alpha  occ. eigenvalues --  -19.32025 -19.26318 -19.25379 -19.25041 -19.24610
 Alpha  occ. eigenvalues --  -19.22905 -19.21419 -14.55822 -14.49786 -14.48065
 Alpha  occ. eigenvalues --  -14.47733 -14.46887 -14.45512 -14.45239 -14.43664
 Alpha  occ. eigenvalues --  -14.38102 -10.44560 -10.42891 -10.42672 -10.41494
 Alpha  occ. eigenvalues --  -10.40516 -10.39452 -10.39132 -10.38044 -10.36048
 Alpha  occ. eigenvalues --  -10.35818 -10.35438 -10.33725 -10.30842 -10.30566
 Alpha  occ. eigenvalues --  -10.30277 -10.29598 -10.29571 -10.29235 -10.28928
 Alpha  occ. eigenvalues --  -10.28726 -10.28427 -10.28366 -10.28235  -1.22767
 Alpha  occ. eigenvalues --   -1.17901  -1.16622  -1.16153  -1.14854  -1.14349
 Alpha  occ. eigenvalues --   -1.13203  -1.10964  -1.07506  -1.06526  -1.05119
 Alpha  occ. eigenvalues --   -1.03282  -1.03257  -1.00302  -0.98389  -0.95272
 Alpha  occ. eigenvalues --   -0.93709  -0.92987  -0.91040  -0.89290  -0.88687
 Alpha  occ. eigenvalues --   -0.84938  -0.84420  -0.83992  -0.81749  -0.79239
 Alpha  occ. eigenvalues --   -0.77592  -0.76806  -0.74245  -0.73360  -0.72530
 Alpha  occ. eigenvalues --   -0.71953  -0.71462  -0.70497  -0.70037  -0.69979
 Alpha  occ. eigenvalues --   -0.69394  -0.68711  -0.68542  -0.67599  -0.67079
 Alpha  occ. eigenvalues --   -0.66164  -0.64957  -0.63513  -0.63144  -0.62873
 Alpha  occ. eigenvalues --   -0.62272  -0.61195  -0.60868  -0.60607  -0.59731
 Alpha  occ. eigenvalues --   -0.59337  -0.58870  -0.58448  -0.57917  -0.56718
 Alpha  occ. eigenvalues --   -0.56592  -0.56460  -0.55906  -0.55461  -0.55316
 Alpha  occ. eigenvalues --   -0.55163  -0.54829  -0.54423  -0.54127  -0.53653
 Alpha  occ. eigenvalues --   -0.53292  -0.53200  -0.52647  -0.52320  -0.51897
 Alpha  occ. eigenvalues --   -0.51860  -0.51215  -0.50968  -0.50348  -0.50317
 Alpha  occ. eigenvalues --   -0.49504  -0.49165  -0.48865  -0.48564  -0.48018
 Alpha  occ. eigenvalues --   -0.47765  -0.47038  -0.46933  -0.45758  -0.45355
 Alpha  occ. eigenvalues --   -0.44463  -0.44037  -0.43931  -0.43486  -0.43349
 Alpha  occ. eigenvalues --   -0.40511  -0.40140  -0.39826  -0.39684  -0.39461
 Alpha  occ. eigenvalues --   -0.38771  -0.38398  -0.37142  -0.36605  -0.36120
 Alpha  occ. eigenvalues --   -0.35866  -0.35436  -0.35120  -0.34638  -0.33938
 Alpha  occ. eigenvalues --   -0.32508
 Alpha virt. eigenvalues --   -0.12414  -0.12023  -0.11135  -0.10800  -0.10126
 Alpha virt. eigenvalues --   -0.09863  -0.09676  -0.07764  -0.06319  -0.05314
 Alpha virt. eigenvalues --   -0.04986  -0.02962  -0.02477  -0.01757  -0.01378
 Alpha virt. eigenvalues --   -0.00315  -0.00181   0.00130   0.01036   0.01334
 Alpha virt. eigenvalues --    0.01918   0.02466   0.02744   0.03055   0.03403
 Alpha virt. eigenvalues --    0.03677   0.04231   0.04398   0.04562   0.04969
 Alpha virt. eigenvalues --    0.05489   0.05683   0.05828   0.06387   0.06862
 Alpha virt. eigenvalues --    0.06952   0.07230   0.07388   0.07769   0.07944
 Alpha virt. eigenvalues --    0.08294   0.08435   0.08697   0.09078   0.09433
 Alpha virt. eigenvalues --    0.09664   0.09876   0.10253   0.10469   0.10871
 Alpha virt. eigenvalues --    0.11392   0.11798   0.12136   0.12859   0.13008
 Alpha virt. eigenvalues --    0.13593   0.14506   0.14845   0.15596   0.16200
 Alpha virt. eigenvalues --    0.16898   0.17407   0.17916   0.18177   0.19022
 Alpha virt. eigenvalues --    0.20891   0.21728   0.22175   0.22793   0.23467
 Alpha virt. eigenvalues --    0.23802   0.24176   0.25070   0.25377   0.25994
 Alpha virt. eigenvalues --    0.26565   0.26988   0.28147   0.28852   0.30419
 Alpha virt. eigenvalues --    0.30848   0.33759   0.34782   0.35960   0.36799
 Alpha virt. eigenvalues --    0.37681   0.38203   0.38952   0.39957   0.40269
 Alpha virt. eigenvalues --    0.41029   0.41228   0.41280   0.42403   0.42983
 Alpha virt. eigenvalues --    0.43446   0.44451   0.44577   0.44708   0.44961
 Alpha virt. eigenvalues --    0.45693   0.45910   0.46472   0.47128   0.47445
 Alpha virt. eigenvalues --    0.47770   0.48122   0.48471   0.48892   0.49187
 Alpha virt. eigenvalues --    0.49867   0.50018   0.50600   0.50670   0.51420
 Alpha virt. eigenvalues --    0.51651   0.52145   0.52249   0.52383   0.52517
 Alpha virt. eigenvalues --    0.52836   0.53310   0.53651   0.53720   0.54790
 Alpha virt. eigenvalues --    0.54950   0.55588   0.56266   0.56886   0.57031
 Alpha virt. eigenvalues --    0.57578   0.57939   0.58401   0.58627   0.58842
 Alpha virt. eigenvalues --    0.59193   0.60284   0.60722   0.61295   0.62102
 Alpha virt. eigenvalues --    0.62844   0.63306   0.64344   0.64408   0.64972
 Alpha virt. eigenvalues --    0.65286   0.66455   0.67166   0.67446   0.67810
 Alpha virt. eigenvalues --    0.68313   0.69099   0.69297   0.70475   0.71187
 Alpha virt. eigenvalues --    0.71429   0.71697   0.71859   0.72498   0.72912
 Alpha virt. eigenvalues --    0.73757   0.74006   0.74660   0.74794   0.74948
 Alpha virt. eigenvalues --    0.75387   0.75819   0.75960   0.76082   0.76149
 Alpha virt. eigenvalues --    0.76671   0.77127   0.77434   0.78318   0.78823
 Alpha virt. eigenvalues --    0.79195   0.79275   0.79534   0.79655   0.80080
 Alpha virt. eigenvalues --    0.80144   0.80644   0.80960   0.81349   0.82040
 Alpha virt. eigenvalues --    0.82522   0.83109   0.83388   0.84355   0.84485
 Alpha virt. eigenvalues --    0.85291   0.85569   0.85835   0.86290   0.86455
 Alpha virt. eigenvalues --    0.87149   0.87574   0.87804   0.88614   0.88850
 Alpha virt. eigenvalues --    0.89109   0.89444   0.90328   0.90636   0.91185
 Alpha virt. eigenvalues --    0.91896   0.92021   0.92878   0.93930   0.94959
 Alpha virt. eigenvalues --    0.95138   0.95591   0.96768   0.97200   0.97398
 Alpha virt. eigenvalues --    0.98340   0.98620   0.98849   1.00489   1.00828
 Alpha virt. eigenvalues --    1.01885   1.02145   1.02853   1.03454   1.04631
 Alpha virt. eigenvalues --    1.04879   1.05263   1.06976   1.07365   1.08048
 Alpha virt. eigenvalues --    1.08590   1.09478   1.10014   1.10193   1.11439
 Alpha virt. eigenvalues --    1.13194   1.13966   1.14283   1.15312   1.15846
 Alpha virt. eigenvalues --    1.16065   1.17017   1.17668   1.18129   1.19245
 Alpha virt. eigenvalues --    1.20057   1.20595   1.21397   1.23121   1.23680
 Alpha virt. eigenvalues --    1.23925   1.24686   1.25843   1.27226   1.27412
 Alpha virt. eigenvalues --    1.27841   1.28294   1.29319   1.29874   1.30967
 Alpha virt. eigenvalues --    1.31697   1.32187   1.32701   1.33253   1.33828
 Alpha virt. eigenvalues --    1.34674   1.34913   1.36478   1.37241   1.37450
 Alpha virt. eigenvalues --    1.37542   1.39004   1.39832   1.40382   1.40894
 Alpha virt. eigenvalues --    1.42029   1.42332   1.44280   1.44786   1.45139
 Alpha virt. eigenvalues --    1.46969   1.48355   1.49655   1.49838   1.50764
 Alpha virt. eigenvalues --    1.51380   1.51809   1.53303   1.53655   1.54921
 Alpha virt. eigenvalues --    1.55380   1.55834   1.58137   1.59002   1.60185
 Alpha virt. eigenvalues --    1.60426   1.60693   1.62110   1.62510   1.62872
 Alpha virt. eigenvalues --    1.63472   1.63916   1.64656   1.65453   1.66471
 Alpha virt. eigenvalues --    1.67106   1.67546   1.68044   1.68233   1.68979
 Alpha virt. eigenvalues --    1.69255   1.69829   1.70379   1.70881   1.71116
 Alpha virt. eigenvalues --    1.71876   1.72551   1.72972   1.73457   1.73854
 Alpha virt. eigenvalues --    1.74256   1.75089   1.75312   1.76549   1.76872
 Alpha virt. eigenvalues --    1.77765   1.78165   1.78245   1.78713   1.79295
 Alpha virt. eigenvalues --    1.79839   1.80212   1.80756   1.81058   1.81736
 Alpha virt. eigenvalues --    1.82198   1.82503   1.83090   1.84028   1.84388
 Alpha virt. eigenvalues --    1.85207   1.85849   1.86844   1.87545   1.87851
 Alpha virt. eigenvalues --    1.88380   1.89426   1.90404   1.90558   1.91251
 Alpha virt. eigenvalues --    1.91711   1.92458   1.92909   1.94516   1.94574
 Alpha virt. eigenvalues --    1.95194   1.96026   1.96127   1.97313   1.97529
 Alpha virt. eigenvalues --    1.97800   1.99900   2.00193   2.00836   2.01619
 Alpha virt. eigenvalues --    2.02647   2.04019   2.04506   2.05059   2.05168
 Alpha virt. eigenvalues --    2.05985   2.06658   2.07525   2.08448   2.09119
 Alpha virt. eigenvalues --    2.09586   2.11451   2.12826   2.13212   2.13324
 Alpha virt. eigenvalues --    2.14569   2.15569   2.16505   2.17240   2.18078
 Alpha virt. eigenvalues --    2.18645   2.19353   2.20301   2.21175   2.21497
 Alpha virt. eigenvalues --    2.22341   2.23283   2.23962   2.24277   2.24708
 Alpha virt. eigenvalues --    2.25121   2.26221   2.27060   2.28367   2.28946
 Alpha virt. eigenvalues --    2.29527   2.30544   2.30993   2.31607   2.32679
 Alpha virt. eigenvalues --    2.32827   2.33878   2.35396   2.36241   2.37461
 Alpha virt. eigenvalues --    2.38028   2.38499   2.40142   2.40737   2.41744
 Alpha virt. eigenvalues --    2.43142   2.43573   2.45354   2.46367   2.47080
 Alpha virt. eigenvalues --    2.48226   2.48800   2.49743   2.50190   2.50449
 Alpha virt. eigenvalues --    2.50915   2.52505   2.53607   2.53772   2.54286
 Alpha virt. eigenvalues --    2.54476   2.55893   2.55949   2.57194   2.58409
 Alpha virt. eigenvalues --    2.59338   2.59957   2.61443   2.62209   2.62658
 Alpha virt. eigenvalues --    2.64122   2.64932   2.65082   2.66408   2.67044
 Alpha virt. eigenvalues --    2.67838   2.68695   2.71522   2.72898   2.73497
 Alpha virt. eigenvalues --    2.75209   2.77436   2.79453   2.82985   2.83826
 Alpha virt. eigenvalues --    2.86239   2.88300   2.89897   2.91015   2.91812
 Alpha virt. eigenvalues --    2.92773   2.93468   2.94785   2.96479   2.96949
 Alpha virt. eigenvalues --    2.97289   2.98218   2.99163   3.03920   3.05399
 Alpha virt. eigenvalues --    3.10203   3.30972   3.69125   3.71964   3.73105
 Alpha virt. eigenvalues --    3.77923   3.80602   3.87136   3.93447   3.93981
 Alpha virt. eigenvalues --    3.96022   3.98019   3.99252   4.01013   4.04362
 Alpha virt. eigenvalues --    4.05880   4.07520   4.07856   4.10543   4.12977
 Alpha virt. eigenvalues --    4.13630   4.14564   4.17554   4.21106   4.23631
 Alpha virt. eigenvalues --    4.26010   4.26579   4.28885   4.32116   4.34302
 Alpha virt. eigenvalues --    4.36876   4.38292   4.41119   4.43248   4.46301
 Alpha virt. eigenvalues --    4.48073   4.54396   4.57137   4.59908   4.65022
 Alpha virt. eigenvalues --    4.73093
          Condensed to atoms (all electrons):
 Mulliken charges:
               1
     1  N   -0.768837
     2  C   -0.112812
     3  C    0.636032
     4  O   -0.525150
     5  C   -0.444997
     6  C    0.622562
     7  N   -0.744421
     8  O   -0.533726
     9  H    0.430574
    10  H    0.230458
    11  H    0.228310
    12  H    0.209267
    13  H    0.369913
    14  H    0.381862
    15  H    0.409659
    16  H    0.446422
    17  N   -0.610999
    18  C   -0.094863
    19  C    0.621798
    20  O   -0.523440
    21  C   -0.344507
    22  C    0.134911
    23  C   -0.216022
    24  C   -0.184207
    25  C   -0.125825
    26  C   -0.149659
    27  C   -0.123977
    28  H    0.372157
    29  H    0.219344
    30  H    0.196737
    31  H    0.168350
    32  H    0.126390
    33  H    0.164893
    34  H    0.145003
    35  H    0.157543
    36  H    0.154589
    37  N   -0.657019
    38  C   -0.081611
    39  C    0.670572
    40  O   -0.615124
    41  C   -0.353197
    42  C    0.580612
    43  N   -0.715192
    44  O   -0.513415
    45  H    0.389196
    46  H    0.203821
    47  H    0.168798
    48  H    0.210441
    49  H    0.370059
    50  H    0.350555
    51  N   -0.587729
    52  C   -0.119895
    53  C    0.627350
    54  O   -0.486304
    55  C   -0.317083
    56  C   -0.299090
    57  C   -0.138716
    58  N   -0.657131
    59  C    0.602019
    60  N   -0.688084
    61  N   -0.758611
    62  O   -0.560000
    63  H    0.434017
    64  H    0.411793
    65  H    0.207390
    66  H    0.139659
    67  H    0.235314
    68  H    0.136127
    69  H    0.176558
    70  H    0.167698
    71  H    0.218716
    72  H    0.330393
    73  H    0.298079
    74  H    0.364110
    75  H    0.331594
 Sum of Mulliken charges =   1.00000
 Mulliken charges with hydrogens summed into heavy atoms:
               1
     1  N    0.517818
     2  C    0.117646
     3  C    0.636032
     4  O   -0.525150
     5  C   -0.007420
     6  C    0.622562
     7  N    0.007353
     8  O   -0.533726
    17  N   -0.238843
    18  C    0.124481
    19  C    0.621798
    20  O   -0.523440
    21  C    0.020579
    22  C    0.134911
    23  C   -0.089633
    24  C   -0.019314
    25  C    0.019178
    26  C    0.007884
    27  C    0.030612
    37  N   -0.267823
    38  C    0.122210
    39  C    0.670572
    40  O   -0.615124
    41  C    0.026041
    42  C    0.580612
    43  N    0.005423
    44  O   -0.513415
    51  N   -0.175936
    52  C    0.087495
    53  C    0.627350
    54  O   -0.486304
    55  C    0.057890
    56  C    0.013595
    57  C    0.247697
    58  N   -0.326738
    59  C    0.602019
    60  N   -0.390005
    61  N   -0.062907
    62  O   -0.125983
 Electronic spatial extent (au):  <R**2>=         133180.3427
 Charge=              1.0000 electrons
 Dipole moment (field-independent basis, Debye):
    X=            -31.9395    Y=             -4.4450    Z=            -40.4030  Tot=             51.6943
 Quadrupole moment (field-independent basis, Debye-Ang):
   XX=             25.8894   YY=           -187.9763   ZZ=            142.7752
   XY=             37.3988   XZ=            263.5678   YZ=             45.1049
 Traceless Quadrupole moment (field-independent basis, Debye-Ang):
   XX=             32.3267   YY=           -181.5391   ZZ=            149.2124
   XY=             37.3988   XZ=            263.5678   YZ=             45.1049
 Octapole moment (field-independent basis, Debye-Ang**2):
  XXX=           2550.1540  YYY=            997.9445  ZZZ=           1596.0034  XYY=           1337.2086
  XXY=            -58.9860  XXZ=           -283.7790  XZZ=           -740.2122  YZZ=           -140.3527
  YYZ=           1437.7066  XYZ=           -367.0629
 Hexadecapole moment (field-independent basis, Debye-Ang**3):
 XXXX=         -53296.9151 YYYY=          -9130.6097 ZZZZ=         -48362.9744 XXXY=          -1903.1238
 XXXZ=         -18878.8601 YYYX=          -6514.3016 YYYZ=          -7381.6739 ZZZX=         -13994.8432
 ZZZY=          -2348.7407 XXYY=         -12090.6239 XXZZ=          -9812.5122 YYZZ=         -13534.2860
 XXYZ=           1185.1029 YYXZ=         -10185.9809 ZZXY=           1373.9131
 N-N= 5.271779507563D+03 E-N=-1.498185423651D+04  KE= 1.899814090223D+03
 Unable to Open any file for archive entry.
 1\1\GINC-NVF-017\SP\RB3LYP\6-31G(d)\C23H36N9O7(1+)\KENGMITH\06-Jun-202
 2\0\\# B3LYP/6-31G* empiricaldispersion=gd3 guess=read geom=check nosy
 mm integral(ultrafinegrid)\\Candidate Structure: Conf:472 Charge calc 
 in gas phase\\1,1\N,0,-6.0597207632,-1.2452373731,-11.7382062728\C,0,-
 5.3414408436,-2.0026154725,-10.6525716808\C,0,-6.3466693729,-3.0713132
 818,-10.1809008555\O,0,-7.016491465,-3.6526143612,-11.0322947802\C,0,-
 4.8260867595,-1.0482093643,-9.5804342321\C,0,-4.0317607853,0.135807051
 6,-10.1347762622\N,0,-3.4430713943,0.9034597767,-9.1983913\O,0,-3.9654
 903874,0.3711152382,-11.3466608694\H,0,-5.3903577576,-0.5309841152,-12
 .0910510698\H,0,-4.5079944596,-2.5157691212,-11.1425761607\H,0,-5.6551
 175394,-0.6636169122,-8.9861262205\H,0,-4.19075627,-1.606815816,-8.883
 3013215\H,0,-2.9280026031,1.7223381714,-9.4949881533\H,0,-3.5693653241
 ,0.733868753,-8.207174033\H,0,-6.3752563254,-1.9028222859,-12.45875662
 58\H,0,-6.9063200922,-0.7867038501,-11.3204255898\N,0,-6.469514493,-3.
 2528142687,-8.8501471338\C,0,-7.245391813,-4.3358931396,-8.2488612941\
 C,0,-8.3287998736,-3.7944180884,-7.284487818\O,0,-8.5129968903,-4.3368
 404051,-6.1975432299\C,0,-6.2923462877,-5.3331782627,-7.5354553056\C,0
 ,-5.3112623847,-4.6511843062,-6.6010261965\C,0,-4.104053978,-4.1297105
 788,-7.0965537921\C,0,-5.5965423556,-4.4818217701,-5.2391269664\C,0,-3
 .2293509183,-3.4216203063,-6.2684688122\C,0,-4.7201687493,-3.782803788
 5,-4.4059423419\C,0,-3.5418152308,-3.2362552263,-4.9206341238\H,0,-5.8
 620537063,-2.7494488312,-8.215344305\H,0,-7.7508625311,-4.848703324,-9
 .0739377618\H,0,-6.9068828534,-6.0569755399,-6.9963674526\H,0,-5.74875
 7598,-5.8710343312,-8.3197439166\H,0,-3.8367393549,-4.3031824398,-8.13
 7509216\H,0,-6.5078041365,-4.9119452313,-4.83897581\H,0,-2.2959093837,
 -3.0362644174,-6.6700198259\H,0,-4.9528478401,-3.6766243729,-3.3494459
 585\H,0,-2.8613411048,-2.6932779633,-4.2713778644\N,0,-9.0782868566,-2
 .7145106505,-7.6586876442\C,0,-9.1722163473,-2.0451201661,-8.946807654
 7\C,0,-8.3472518004,-0.7472474723,-9.0509226997\O,0,-8.0840292376,-0.2
 850254015,-10.1780612826\C,0,-10.6553618639,-1.7490831092,-9.297375095
 2\C,0,-11.3058710254,-0.9062707614,-8.2037501991\N,0,-12.2605857804,-1
 .5134445867,-7.460247384\O,0,-10.9274954833,0.2453200735,-7.9990028442
 \H,0,-9.6958903897,-2.38895065,-6.9055848255\H,0,-8.8015280395,-2.7003
 227947,-9.7359080829\H,0,-11.1687171956,-2.7022535208,-9.4579266923\H,
 0,-10.6778831111,-1.1798226492,-10.2306351225\H,0,-12.5369300326,-1.06
 4303236,-6.5959494213\H,0,-12.4651762616,-2.4972117545,-7.5563577241\N
 ,0,-7.9373650559,-0.1671478168,-7.9141682978\C,0,-7.4320566922,1.19206
 88342,-7.8693620605\C,0,-6.0782201319,1.2226230276,-7.1501057342\O,0,-
 5.4361975781,0.2356111806,-6.8559164632\C,0,-8.4719440072,2.197275396,
 -7.3059885403\C,0,-8.7053497267,2.2128218409,-5.7826298519\C,0,-9.3648
 499759,0.9687216964,-5.17536408\N,0,-8.4034197008,-0.1427144525,-5.068
 7895516\C,0,-8.8660560234,-1.4177053658,-4.7174493529\N,0,-10.09088028
 7,-1.7460528543,-4.9655942841\N,0,-7.8935102516,-2.2265635096,-4.15607
 39331\O,0,-5.5626585039,2.4425108671,-6.9068698819\H,0,-6.1819733361,3
 .1471005913,-7.1644995444\H,0,-8.192576206,-0.5485079366,-7.0022733083
 \H,0,-7.229264089,1.4752135545,-8.910262339\H,0,-8.1727521422,3.208421
 758,-7.6216741217\H,0,-9.4117582777,1.9876156106,-7.8223677383\H,0,-7.
 7651076083,2.4328990643,-5.2537816203\H,0,-9.3660006516,3.0617016078,-
 5.5724727027\H,0,-9.7715620052,1.2113658783,-4.1845975485\H,0,-10.1935
 409093,0.6376488931,-5.8015265675\H,0,-7.5671779092,0.1203370677,-4.55
 50854824\H,0,-10.2484241064,-2.7177004373,-4.6935352807\H,0,-8.0721193
 955,-3.2145004509,-4.2980866934\H,0,-6.9297628984,-2.0029742608,-4.383
 3589965\\Version=ES64L-G16RevC.01\HF=-1917.4964395\RMSD=9.384e-10\Dipo
 le=0.9915481,0.9945862,-1.3629442\Quadrupole=24.0340739,-134.9698683,1
 10.9357944,27.8050788,195.9561941,33.5343677\PG=C01 [X(C23H36N9O7)]\\@
 The archive entry for this job was punched.


 WERE I TO AWAIT PERFECTION, MY BOOK WOULD NEVER BE FINISHED.
                                    -- HISTORY OF CHINESE WRITING

                                       TAI T'UNG, 13TH CENTURY
 Job cpu time:       0 days  0 hours  5 minutes  2.4 seconds.
 Elapsed time:       0 days  0 hours  1 minutes 16.9 seconds.
 File lengths (MBytes):  RWF=    344 Int=      0 D2E=      0 Chk=     48 Scr=     16
 Normal termination of Gaussian 16 at Mon Jun  6 02:42:16 2022.
