 Entering Gaussian System, Link 0=/opt/software/Gaussian/g16-AVX2-C.01/g16/g16
 Input=charge-conf-368.com
 Output=charge-conf-368.log
 Initial command:
 /opt/software/Gaussian/g16-AVX2-C.01/g16/l1.exe "/mnt/gs18/scratch/users/kengmith/Gau-1288.inp" -scrdir="/mnt/gs18/scratch/users/kengmith/"
 Entering Link 1 = /opt/software/Gaussian/g16-AVX2-C.01/g16/l1.exe PID=      1312.
  
 Copyright (c) 1988-2019, Gaussian, Inc.  All Rights Reserved.
  
 This is part of the Gaussian(R) 16 program.  It is based on
 the Gaussian(R) 09 system (copyright 2009, Gaussian, Inc.),
 the Gaussian(R) 03 system (copyright 2003, Gaussian, Inc.),
 the Gaussian(R) 98 system (copyright 1998, Gaussian, Inc.),
 the Gaussian(R) 94 system (copyright 1995, Gaussian, Inc.),
 the Gaussian 92(TM) system (copyright 1992, Gaussian, Inc.),
 the Gaussian 90(TM) system (copyright 1990, Gaussian, Inc.),
 the Gaussian 88(TM) system (copyright 1988, Gaussian, Inc.),
 the Gaussian 86(TM) system (copyright 1986, Carnegie Mellon
 University), and the Gaussian 82(TM) system (copyright 1983,
 Carnegie Mellon University). Gaussian is a federally registered
 trademark of Gaussian, Inc.
  
 This software contains proprietary and confidential information,
 including trade secrets, belonging to Gaussian, Inc.
  
 This software is provided under written license and may be
 used, copied, transmitted, or stored only in accord with that
 written license.
  
 The following legend is applicable only to US Government
 contracts under FAR:
  
                    RESTRICTED RIGHTS LEGEND
  
 Use, reproduction and disclosure by the US Government is
 subject to restrictions as set forth in subparagraphs (a)
 and (c) of the Commercial Computer Software - Restricted
 Rights clause in FAR 52.227-19.
  
 Gaussian, Inc.
 340 Quinnipiac St., Bldg. 40, Wallingford CT 06492
  
  
 ---------------------------------------------------------------
 Warning -- This program may not be used in any manner that
 competes with the business of Gaussian, Inc. or will provide
 assistance to any competitor of Gaussian, Inc.  The licensee
 of this program is prohibited from giving any competitor of
 Gaussian, Inc. access to this program.  By using this program,
 the user acknowledges that Gaussian, Inc. is engaged in the
 business of creating and licensing software in the field of
 computational chemistry and represents and warrants to the
 licensee that it is not a competitor of Gaussian, Inc. and that
 it will not use this program in any manner prohibited above.
 ---------------------------------------------------------------
  

 Cite this work as:
 Gaussian 16, Revision C.01,
 M. J. Frisch, G. W. Trucks, H. B. Schlegel, G. E. Scuseria, 
 M. A. Robb, J. R. Cheeseman, G. Scalmani, V. Barone, 
 G. A. Petersson, H. Nakatsuji, X. Li, M. Caricato, A. V. Marenich, 
 J. Bloino, B. G. Janesko, R. Gomperts, B. Mennucci, H. P. Hratchian, 
 J. V. Ortiz, A. F. Izmaylov, J. L. Sonnenberg, D. Williams-Young, 
 F. Ding, F. Lipparini, F. Egidi, J. Goings, B. Peng, A. Petrone, 
 T. Henderson, D. Ranasinghe, V. G. Zakrzewski, J. Gao, N. Rega, 
 G. Zheng, W. Liang, M. Hada, M. Ehara, K. Toyota, R. Fukuda, 
 J. Hasegawa, M. Ishida, T. Nakajima, Y. Honda, O. Kitao, H. Nakai, 
 T. Vreven, K. Throssell, J. A. Montgomery, Jr., J. E. Peralta, 
 F. Ogliaro, M. J. Bearpark, J. J. Heyd, E. N. Brothers, K. N. Kudin, 
 V. N. Staroverov, T. A. Keith, R. Kobayashi, J. Normand, 
 K. Raghavachari, A. P. Rendell, J. C. Burant, S. S. Iyengar, 
 J. Tomasi, M. Cossi, J. M. Millam, M. Klene, C. Adamo, R. Cammi, 
 J. W. Ochterski, R. L. Martin, K. Morokuma, O. Farkas, 
 J. B. Foresman, and D. J. Fox, Gaussian, Inc., Wallingford CT, 2019.
 
 ******************************************
 Gaussian 16:  ES64L-G16RevC.01  3-Jul-2019
                 6-Jun-2022 
 ******************************************
 %mem=8gb
 %nproc=4
 Will use up to    4 processors via shared memory.
 %chk=conf-368.chk
 ----------------------------------------------------------------------
 # B3LYP/6-31G* empiricaldispersion=gd3 guess=read geom=check nosymm in
 tegral(ultrafinegrid)
 ----------------------------------------------------------------------
 1/29=2,38=1,172=1/1;
 2/12=2,15=1,40=1/2;
 3/5=1,6=6,7=1,11=2,14=-4,25=1,30=1,74=-5,75=-5,116=-2,124=31/1,2,3;
 4/5=1/1;
 5/5=2,38=6/2;
 6/7=2,8=2,9=2,10=2,28=1/1;
 99/5=1,9=1/99;
 ------------------------------------------------------
 Candidate Structure: Conf:368 Charge calc in gas phase
 ------------------------------------------------------
 Structure from the checkpoint file:  "conf-368.chk"
 Charge =  1 Multiplicity = 1
 Redundant internal coordinates found in file.  (old form).
 N,0,-10.7029147731,-1.2972977055,-6.0306035903
 C,0,-9.3526563889,-0.9304034156,-5.4639963508
 C,0,-8.759414083,0.0574071873,-6.479625554
 O,0,-9.4560528826,1.0378616174,-6.7500820668
 C,0,-8.5784979722,-2.195672484,-5.1008912675
 C,0,-9.3274083258,-3.0107257408,-4.0461120191
 N,0,-8.5690209323,-3.6869680657,-3.1607298884
 O,0,-10.5627220024,-3.0648018364,-4.0334267446
 H,0,-10.5353683698,-1.737973432,-6.9690834084
 H,0,-9.544594819,-0.3430532792,-4.5611656927
 H,0,-8.454229523,-2.8204086104,-5.9907622028
 H,0,-7.5824200461,-1.9035431659,-4.755766705
 H,0,-9.0318142054,-4.2476983799,-2.4561952805
 H,0,-7.5660200627,-3.5861654843,-3.1146445961
 H,0,-11.1322087348,-1.9764027892,-5.365770534
 H,0,-11.258120048,-0.4445289307,-6.1518070083
 N,0,-7.5757718358,-0.2212061309,-7.0513221369
 C,0,-6.8130800166,0.8105749825,-7.7475402868
 C,0,-6.5832414599,0.5509508955,-9.250804629
 O,0,-5.5097258508,0.8894839761,-9.7513058479
 C,0,-5.4589543137,1.0036188537,-7.0153063903
 C,0,-5.6588274918,1.0480652371,-5.5173142036
 C,0,-6.2184940612,2.1728847685,-4.8988942627
 C,0,-5.3800920801,-0.0806516335,-4.7331155988
 C,0,-6.502532371,2.1691088875,-3.5319605898
 C,0,-5.6586460134,-0.0864917127,-3.3640392274
 C,0,-6.2268812904,1.037765587,-2.760000922
 H,0,-7.0776010822,-1.0865933367,-6.8460661363
 H,0,-7.4095526919,1.7260053681,-7.6722505663
 H,0,-4.8021936341,0.1699480293,-7.2839026876
 H,0,-4.9899821384,1.9137874866,-7.3974817539
 H,0,-6.440086567,3.056726019,-5.4926576833
 H,0,-4.9547836569,-0.9640627493,-5.2047992911
 H,0,-6.9337617234,3.0518819072,-3.0685267228
 H,0,-5.4168352378,-0.9617151061,-2.7650171609
 H,0,-6.4391706826,1.0390083024,-1.6946407175
 N,0,-7.5683986155,0.0165911087,-10.0265780302
 C,0,-8.8246003657,-0.6085633362,-9.6447329281
 C,0,-8.6635849571,-1.9912833728,-8.9837850103
 O,0,-9.5599603633,-2.4171252429,-8.2205982518
 C,0,-9.7659703491,-0.7357162737,-10.8667461386
 C,0,-9.1672554884,-1.5833210938,-11.990114935
 N,0,-9.9765227508,-2.5320445047,-12.5251525499
 O,0,-8.0106142197,-1.4128211842,-12.3691729992
 H,0,-7.2900655733,-0.1747773872,-10.9897790792
 H,0,-9.343430662,0.0195407229,-8.9185769646
 H,0,-9.9476318696,0.2684476037,-11.2662575875
 H,0,-10.7214243561,-1.136986199,-10.5150747455
 H,0,-9.6417729445,-3.032316074,-13.3387963659
 H,0,-10.9567220179,-2.6021058439,-12.2954559542
 N,0,-7.5648834873,-2.6935197096,-9.280510277
 C,0,-7.2694153365,-3.9665950126,-8.6426344106
 C,0,-6.2210155662,-3.7636499321,-7.5468842566
 O,0,-6.0232211925,-2.7140367326,-6.9509428393
 C,0,-6.9920626601,-5.1027066639,-9.6504334168
 C,0,-5.9717444178,-4.8310373572,-10.7641118621
 C,0,-4.5149137452,-4.6352437888,-10.3312356568
 N,0,-4.2715271197,-3.5043364481,-9.4088096157
 C,0,-4.3364894485,-2.196236868,-9.894359559
 N,0,-5.2060956248,-1.9137286731,-10.8065006435
 N,0,-3.4574958412,-1.3000535099,-9.3243481354
 O,0,-5.6553898468,-4.9172576518,-7.1587968949
 H,0,-5.0677339629,-4.7131572605,-6.4071348935
 H,0,-6.8455807546,-2.3151837458,-9.9300819051
 H,0,-8.1719658026,-4.2494689725,-8.0844194066
 H,0,-6.7103869142,-5.9934682199,-9.0789041348
 H,0,-7.9549849951,-5.3241386598,-10.1248906123
 H,0,-5.9811438367,-5.705132876,-11.4282925608
 H,0,-6.2820789284,-3.9760208142,-11.3679541518
 H,0,-4.1723732725,-5.5283950183,-9.797480207
 H,0,-3.8994639177,-4.5213484342,-11.2332362007
 H,0,-3.4549185419,-3.6715329747,-8.832706192
 H,0,-5.1290371486,-0.9363791074,-11.082819569
 H,0,-3.742557246,-0.3270542546,-9.3758640658
 H,0,-2.9645070007,-1.5536859234,-8.4791072886
 Recover connectivity data from disk.
                           ----------------------------
                           !    Current Parameters    !
                           ! (Angstroms and Degrees)  !
 --------------------------                            --------------------------
 ! Name  Definition              Value                                          !
 --------------------------------------------------------------------------------
 ! R1    R(1,2)                  1.5096                                         !
 ! R2    R(1,9)                  1.0502                                         !
 ! R3    R(1,15)                 1.0428                                         !
 ! R4    R(1,16)                 1.0248                                         !
 ! R5    R(2,3)                  1.536                                          !
 ! R6    R(2,5)                  1.5271                                         !
 ! R7    R(2,10)                 1.094                                          !
 ! R8    R(3,4)                  1.2328                                         !
 ! R9    R(3,17)                 1.3437                                         !
 ! R10   R(5,6)                  1.529                                          !
 ! R11   R(5,11)                 1.0944                                         !
 ! R12   R(5,12)                 1.0939                                         !
 ! R13   R(6,7)                  1.3477                                         !
 ! R14   R(6,8)                  1.2366                                         !
 ! R15   R(7,13)                 1.0124                                         !
 ! R16   R(7,14)                 1.0091                                         !
 ! R17   R(17,18)                1.4598                                         !
 ! R18   R(17,28)                1.0194                                         !
 ! R19   R(18,19)                1.5427                                         !
 ! R20   R(18,21)                1.5515                                         !
 ! R21   R(18,29)                1.0952                                         !
 ! R22   R(19,20)                1.2319                                         !
 ! R23   R(19,37)                1.363                                          !
 ! R24   R(21,22)                1.5119                                         !
 ! R25   R(21,30)                1.0948                                         !
 ! R26   R(21,31)                1.0929                                         !
 ! R27   R(22,23)                1.4003                                         !
 ! R28   R(22,24)                1.4024                                         !
 ! R29   R(23,25)                1.3961                                         !
 ! R30   R(23,32)                1.0876                                         !
 ! R31   R(24,26)                1.3971                                         !
 ! R32   R(24,33)                1.088                                          !
 ! R33   R(25,27)                1.3971                                         !
 ! R34   R(25,34)                1.0863                                         !
 ! R35   R(26,27)                1.397                                          !
 ! R36   R(26,35)                1.0878                                         !
 ! R37   R(27,36)                1.0863                                         !
 ! R38   R(37,38)                1.4542                                         !
 ! R39   R(37,45)                1.0207                                         !
 ! R40   R(38,39)                1.541                                          !
 ! R41   R(38,41)                1.5478                                         !
 ! R42   R(38,46)                1.0913                                         !
 ! R43   R(39,40)                1.2519                                         !
 ! R44   R(39,51)                1.3373                                         !
 ! R45   R(41,42)                1.5293                                         !
 ! R46   R(41,47)                1.0959                                         !
 ! R47   R(41,48)                1.0943                                         !
 ! R48   R(42,43)                1.3569                                         !
 ! R49   R(42,44)                1.2291                                         !
 ! R50   R(43,49)                1.0121                                         !
 ! R51   R(43,50)                1.0092                                         !
 ! R52   R(51,52)                1.4543                                         !
 ! R53   R(51,64)                1.0404                                         !
 ! R54   R(52,53)                1.53                                           !
 ! R55   R(52,55)                1.5438                                         !
 ! R56   R(52,65)                1.0983                                         !
 ! R57   R(53,54)                1.2231                                         !
 ! R58   R(53,62)                1.3421                                         !
 ! R59   R(55,56)                1.5346                                         !
 ! R60   R(55,66)                1.0952                                         !
 ! R61   R(55,67)                1.0961                                         !
 ! R62   R(56,57)                1.5323                                         !
 ! R63   R(56,68)                1.0978                                         !
 ! R64   R(56,69)                1.0918                                         !
 ! R65   R(57,58)                1.4795                                         !
 ! R66   R(57,70)                1.0954                                         !
 ! R67   R(57,71)                1.0979                                         !
 ! R68   R(58,59)                1.3968                                         !
 ! R69   R(58,72)                1.0133                                         !
 ! R70   R(59,60)                1.2915                                         !
 ! R71   R(59,61)                1.3787                                         !
 ! R72   R(60,73)                1.0186                                         !
 ! R73   R(61,74)                1.0152                                         !
 ! R74   R(61,75)                1.0108                                         !
 ! R75   R(62,63)                0.9757                                         !
 ! A1    A(2,1,9)              107.1385                                         !
 ! A2    A(2,1,15)             106.6904                                         !
 ! A3    A(2,1,16)             109.0713                                         !
 ! A4    A(9,1,15)             111.2301                                         !
 ! A5    A(9,1,16)             109.2634                                         !
 ! A6    A(15,1,16)            113.2213                                         !
 ! A7    A(1,2,3)              104.6899                                         !
 ! A8    A(1,2,5)              109.9569                                         !
 ! A9    A(1,2,10)             106.4571                                         !
 ! A10   A(3,2,5)              119.6217                                         !
 ! A11   A(3,2,10)             105.5547                                         !
 ! A12   A(5,2,10)             109.7267                                         !
 ! A13   A(2,3,4)              115.9949                                         !
 ! A14   A(2,3,17)             119.2233                                         !
 ! A15   A(4,3,17)             124.7056                                         !
 ! A16   A(2,5,6)              110.9403                                         !
 ! A17   A(2,5,11)             109.707                                          !
 ! A18   A(2,5,12)             108.3827                                         !
 ! A19   A(6,5,11)             108.1958                                         !
 ! A20   A(6,5,12)             111.76                                           !
 ! A21   A(11,5,12)            107.7943                                         !
 ! A22   A(5,6,7)              116.4269                                         !
 ! A23   A(5,6,8)              121.3128                                         !
 ! A24   A(7,6,8)              122.24                                           !
 ! A25   A(6,7,13)             118.5449                                         !
 ! A26   A(6,7,14)             122.6287                                         !
 ! A27   A(13,7,14)            118.5485                                         !
 ! A28   A(3,17,18)            121.1047                                         !
 ! A29   A(3,17,28)            121.3883                                         !
 ! A30   A(18,17,28)           116.1496                                         !
 ! A31   A(17,18,19)           115.0633                                         !
 ! A32   A(17,18,21)           108.594                                          !
 ! A33   A(17,18,29)           105.8696                                         !
 ! A34   A(19,18,21)           110.5358                                         !
 ! A35   A(19,18,29)           106.7855                                         !
 ! A36   A(21,18,29)           109.8098                                         !
 ! A37   A(18,19,20)           118.6511                                         !
 ! A38   A(18,19,37)           120.8559                                         !
 ! A39   A(20,19,37)           120.4203                                         !
 ! A40   A(18,21,22)           110.8478                                         !
 ! A41   A(18,21,30)           108.2436                                         !
 ! A42   A(18,21,31)           108.2468                                         !
 ! A43   A(22,21,30)           110.1685                                         !
 ! A44   A(22,21,31)           112.2543                                         !
 ! A45   A(30,21,31)           106.916                                          !
 ! A46   A(21,22,23)           120.9313                                         !
 ! A47   A(21,22,24)           120.2719                                         !
 ! A48   A(23,22,24)           118.6198                                         !
 ! A49   A(22,23,25)           120.7658                                         !
 ! A50   A(22,23,32)           119.5451                                         !
 ! A51   A(25,23,32)           119.6879                                         !
 ! A52   A(22,24,26)           120.777                                          !
 ! A53   A(22,24,33)           119.2599                                         !
 ! A54   A(26,24,33)           119.9576                                         !
 ! A55   A(23,25,27)           120.2015                                         !
 ! A56   A(23,25,34)           119.7531                                         !
 ! A57   A(27,25,34)           120.0445                                         !
 ! A58   A(24,26,27)           120.0938                                         !
 ! A59   A(24,26,35)           119.911                                          !
 ! A60   A(27,26,35)           119.9869                                         !
 ! A61   A(25,27,26)           119.5392                                         !
 ! A62   A(25,27,36)           120.1597                                         !
 ! A63   A(26,27,36)           120.2943                                         !
 ! A64   A(19,37,38)           130.0491                                         !
 ! A65   A(19,37,45)           114.4245                                         !
 ! A66   A(38,37,45)           113.7501                                         !
 ! A67   A(37,38,39)           114.0858                                         !
 ! A68   A(37,38,41)           110.6953                                         !
 ! A69   A(37,38,46)           109.7538                                         !
 ! A70   A(39,38,41)           109.1758                                         !
 ! A71   A(39,38,46)           106.3025                                         !
 ! A72   A(41,38,46)           106.4675                                         !
 ! A73   A(38,39,40)           119.4636                                         !
 ! A74   A(38,39,51)           117.5073                                         !
 ! A75   A(40,39,51)           123.0184                                         !
 ! A76   A(38,41,42)           112.7909                                         !
 ! A77   A(38,41,47)           108.2624                                         !
 ! A78   A(38,41,48)           107.9038                                         !
 ! A79   A(42,41,47)           107.7556                                         !
 ! A80   A(42,41,48)           112.0014                                         !
 ! A81   A(47,41,48)           107.9635                                         !
 ! A82   A(41,42,43)           116.3372                                         !
 ! A83   A(41,42,44)           121.2037                                         !
 ! A84   A(43,42,44)           122.4553                                         !
 ! A85   A(42,43,49)           117.731                                          !
 ! A86   A(42,43,50)           122.5516                                         !
 ! A87   A(49,43,50)           118.0283                                         !
 ! A88   A(39,51,52)           121.9578                                         !
 ! A89   A(39,51,64)           121.037                                          !
 ! A90   A(52,51,64)           116.8535                                         !
 ! A91   A(51,52,53)           109.708                                          !
 ! A92   A(51,52,55)           113.228                                          !
 ! A93   A(51,52,65)           106.3462                                         !
 ! A94   A(53,52,55)           116.233                                          !
 ! A95   A(53,52,65)           103.4893                                         !
 ! A96   A(55,52,65)           106.8514                                         !
 ! A97   A(52,53,54)           125.0004                                         !
 ! A98   A(52,53,62)           112.448                                          !
 ! A99   A(54,53,62)           121.909                                          !
 ! A100  A(52,55,56)           117.5746                                         !
 ! A101  A(52,55,66)           107.7034                                         !
 ! A102  A(52,55,67)           105.868                                          !
 ! A103  A(56,55,66)           110.5906                                         !
 ! A104  A(56,55,67)           107.8018                                         !
 ! A105  A(66,55,67)           106.7103                                         !
 ! A106  A(55,56,57)           116.7251                                         !
 ! A107  A(55,56,68)           107.0014                                         !
 ! A108  A(55,56,69)           110.5495                                         !
 ! A109  A(57,56,68)           106.3065                                         !
 ! A110  A(57,56,69)           109.0513                                         !
 ! A111  A(68,56,69)           106.6479                                         !
 ! A112  A(56,57,58)           115.479                                          !
 ! A113  A(56,57,70)           109.3149                                         !
 ! A114  A(56,57,71)           108.3075                                         !
 ! A115  A(58,57,70)           105.5452                                         !
 ! A116  A(58,57,71)           109.9198                                         !
 ! A117  A(70,57,71)           108.036                                          !
 ! A118  A(57,58,59)           119.4355                                         !
 ! A119  A(57,58,72)           111.1567                                         !
 ! A120  A(59,58,72)           112.9326                                         !
 ! A121  A(58,59,60)           118.7941                                         !
 ! A122  A(58,59,61)           115.8095                                         !
 ! A123  A(60,59,61)           125.3875                                         !
 ! A124  A(59,60,73)           110.5203                                         !
 ! A125  A(59,61,74)           115.0249                                         !
 ! A126  A(59,61,75)           119.5751                                         !
 ! A127  A(74,61,75)           114.8254                                         !
 ! A128  A(53,62,63)           107.2647                                         !
 ! D1    D(9,1,2,3)             60.3444                                         !
 ! D2    D(9,1,2,5)            -69.3589                                         !
 ! D3    D(9,1,2,10)           171.8445                                         !
 ! D4    D(15,1,2,3)           179.5581                                         !
 ! D5    D(15,1,2,5)            49.8548                                         !
 ! D6    D(15,1,2,10)          -68.9418                                         !
 ! D7    D(16,1,2,3)           -57.8135                                         !
 ! D8    D(16,1,2,5)           172.4832                                         !
 ! D9    D(16,1,2,10)           53.6866                                         !
 ! D10   D(1,2,3,4)             54.439                                          !
 ! D11   D(1,2,3,17)          -122.5354                                         !
 ! D12   D(5,2,3,4)            178.1463                                         !
 ! D13   D(5,2,3,17)             1.1719                                         !
 ! D14   D(10,2,3,4)           -57.7076                                         !
 ! D15   D(10,2,3,17)          125.318                                          !
 ! D16   D(1,2,5,6)            -60.6166                                         !
 ! D17   D(1,2,5,11)            58.8698                                         !
 ! D18   D(1,2,5,12)           176.3281                                         !
 ! D19   D(3,2,5,6)            178.2649                                         !
 ! D20   D(3,2,5,11)           -62.2488                                         !
 ! D21   D(3,2,5,12)            55.2095                                         !
 ! D22   D(10,2,5,6)            56.1523                                         !
 ! D23   D(10,2,5,11)          175.6387                                         !
 ! D24   D(10,2,5,12)          -66.9031                                         !
 ! D25   D(2,3,17,18)         -164.336                                          !
 ! D26   D(2,3,17,28)            1.8502                                         !
 ! D27   D(4,3,17,18)           18.9723                                         !
 ! D28   D(4,3,17,28)         -174.8415                                         !
 ! D29   D(2,5,6,7)           -146.5887                                         !
 ! D30   D(2,5,6,8)             35.0144                                         !
 ! D31   D(11,5,6,7)            93.0238                                         !
 ! D32   D(11,5,6,8)           -85.3731                                         !
 ! D33   D(12,5,6,7)           -25.5032                                         !
 ! D34   D(12,5,6,8)           156.0999                                         !
 ! D35   D(5,6,7,13)          -179.1555                                         !
 ! D36   D(5,6,7,14)             6.993                                          !
 ! D37   D(8,6,7,13)            -0.7747                                         !
 ! D38   D(8,6,7,14)          -174.6262                                         !
 ! D39   D(3,17,18,19)        -117.812                                          !
 ! D40   D(3,17,18,21)         117.7224                                         !
 ! D41   D(3,17,18,29)          -0.1414                                         !
 ! D42   D(28,17,18,19)         75.3124                                         !
 ! D43   D(28,17,18,21)        -49.1532                                         !
 ! D44   D(28,17,18,29)       -167.0169                                         !
 ! D45   D(17,18,19,20)       -143.6437                                         !
 ! D46   D(17,18,19,37)         39.4427                                         !
 ! D47   D(21,18,19,20)        -20.2031                                         !
 ! D48   D(21,18,19,37)        162.8833                                         !
 ! D49   D(29,18,19,20)         99.203                                          !
 ! D50   D(29,18,19,37)        -77.7105                                         !
 ! D51   D(17,18,21,22)        -44.2647                                         !
 ! D52   D(17,18,21,30)         76.6654                                         !
 ! D53   D(17,18,21,31)       -167.7867                                         !
 ! D54   D(19,18,21,22)       -171.3713                                         !
 ! D55   D(19,18,21,30)        -50.4412                                         !
 ! D56   D(19,18,21,31)         65.1066                                         !
 ! D57   D(29,18,21,22)         71.0659                                         !
 ! D58   D(29,18,21,30)       -168.004                                          !
 ! D59   D(29,18,21,31)        -52.4561                                         !
 ! D60   D(18,19,37,38)        -12.2327                                         !
 ! D61   D(18,19,37,45)       -175.8847                                         !
 ! D62   D(20,19,37,38)        170.9083                                         !
 ! D63   D(20,19,37,45)          7.2563                                         !
 ! D64   D(18,21,22,23)        -73.8195                                         !
 ! D65   D(18,21,22,24)        101.2779                                         !
 ! D66   D(30,21,22,23)        166.3953                                         !
 ! D67   D(30,21,22,24)        -18.5073                                         !
 ! D68   D(31,21,22,23)         47.3681                                         !
 ! D69   D(31,21,22,24)       -137.5345                                         !
 ! D70   D(21,22,23,25)        174.7282                                         !
 ! D71   D(21,22,23,32)         -4.8654                                         !
 ! D72   D(24,22,23,25)         -0.4485                                         !
 ! D73   D(24,22,23,32)        179.9578                                         !
 ! D74   D(21,22,24,26)       -174.9852                                         !
 ! D75   D(21,22,24,33)          4.1585                                         !
 ! D76   D(23,22,24,26)          0.2244                                         !
 ! D77   D(23,22,24,33)        179.3681                                         !
 ! D78   D(22,23,25,27)          0.1682                                         !
 ! D79   D(22,23,25,34)        179.8091                                         !
 ! D80   D(32,23,25,27)        179.7613                                         !
 ! D81   D(32,23,25,34)         -0.5979                                         !
 ! D82   D(22,24,26,27)          0.281                                          !
 ! D83   D(22,24,26,35)       -178.6753                                         !
 ! D84   D(33,24,26,27)       -178.8567                                         !
 ! D85   D(33,24,26,35)          2.187                                          !
 ! D86   D(23,25,27,26)          0.3423                                         !
 ! D87   D(23,25,27,36)        179.4023                                         !
 ! D88   D(34,25,27,26)       -179.2975                                         !
 ! D89   D(34,25,27,36)         -0.2375                                         !
 ! D90   D(24,26,27,25)         -0.5642                                         !
 ! D91   D(24,26,27,36)       -179.6229                                         !
 ! D92   D(35,26,27,25)        178.3913                                         !
 ! D93   D(35,26,27,36)         -0.6674                                         !
 ! D94   D(19,37,38,39)        -70.7453                                         !
 ! D95   D(19,37,38,41)        165.6483                                         !
 ! D96   D(19,37,38,46)         48.4138                                         !
 ! D97   D(45,37,38,39)         92.9949                                         !
 ! D98   D(45,37,38,41)        -30.6115                                         !
 ! D99   D(45,37,38,46)       -147.846                                          !
 ! D100  D(37,38,39,40)        155.639                                          !
 ! D101  D(37,38,39,51)        -25.5191                                         !
 ! D102  D(41,38,39,40)        -79.938                                          !
 ! D103  D(41,38,39,51)         98.904                                          !
 ! D104  D(46,38,39,40)         34.5439                                         !
 ! D105  D(46,38,39,51)       -146.6142                                         !
 ! D106  D(37,38,41,42)         60.1165                                         !
 ! D107  D(37,38,41,47)        -59.0259                                         !
 ! D108  D(37,38,41,48)       -175.6353                                         !
 ! D109  D(39,38,41,42)        -66.272                                          !
 ! D110  D(39,38,41,47)        174.5856                                         !
 ! D111  D(39,38,41,48)         57.9761                                         !
 ! D112  D(46,38,41,42)        179.3529                                         !
 ! D113  D(46,38,41,47)         60.2105                                         !
 ! D114  D(46,38,41,48)        -56.3989                                         !
 ! D115  D(38,39,51,52)        175.6773                                         !
 ! D116  D(38,39,51,64)          0.296                                          !
 ! D117  D(40,39,51,52)         -5.5253                                         !
 ! D118  D(40,39,51,64)        179.0935                                         !
 ! D119  D(38,41,42,43)        132.6343                                         !
 ! D120  D(38,41,42,44)        -46.6849                                         !
 ! D121  D(47,41,42,43)       -107.9295                                         !
 ! D122  D(47,41,42,44)         72.7513                                         !
 ! D123  D(48,41,42,43)         10.6681                                         !
 ! D124  D(48,41,42,44)       -168.651                                          !
 ! D125  D(41,42,43,49)        173.0964                                         !
 ! D126  D(41,42,43,50)          8.2122                                         !
 ! D127  D(44,42,43,49)         -7.5937                                         !
 ! D128  D(44,42,43,50)       -172.4779                                         !
 ! D129  D(39,51,52,53)       -101.2565                                         !
 ! D130  D(39,51,52,55)        127.0859                                         !
 ! D131  D(39,51,52,65)         10.0451                                         !
 ! D132  D(64,51,52,53)         74.308                                          !
 ! D133  D(64,51,52,55)        -57.3496                                         !
 ! D134  D(64,51,52,65)       -174.3904                                         !
 ! D135  D(51,52,53,54)         25.1435                                         !
 ! D136  D(51,52,53,62)       -163.9365                                         !
 ! D137  D(55,52,53,54)        155.2006                                         !
 ! D138  D(55,52,53,62)        -33.8794                                         !
 ! D139  D(65,52,53,54)        -88.0203                                         !
 ! D140  D(65,52,53,62)         82.8997                                         !
 ! D141  D(51,52,55,56)         50.2595                                         !
 ! D142  D(51,52,55,66)        175.9338                                         !
 ! D143  D(51,52,55,67)        -70.2053                                         !
 ! D144  D(53,52,55,56)        -78.1003                                         !
 ! D145  D(53,52,55,66)         47.5739                                         !
 ! D146  D(53,52,55,67)        161.4348                                         !
 ! D147  D(65,52,55,56)        167.0035                                         !
 ! D148  D(65,52,55,66)        -67.3223                                         !
 ! D149  D(65,52,55,67)         46.5387                                         !
 ! D150  D(52,53,62,63)       -174.7177                                         !
 ! D151  D(54,53,62,63)         -3.4771                                         !
 ! D152  D(52,55,56,57)         66.4908                                         !
 ! D153  D(52,55,56,68)       -174.6491                                         !
 ! D154  D(52,55,56,69)        -58.8919                                         !
 ! D155  D(66,55,56,57)        -57.7492                                         !
 ! D156  D(66,55,56,68)         61.1108                                         !
 ! D157  D(66,55,56,69)        176.8681                                         !
 ! D158  D(67,55,56,57)       -174.0596                                         !
 ! D159  D(67,55,56,68)        -55.1996                                         !
 ! D160  D(67,55,56,69)         60.5577                                         !
 ! D161  D(55,56,57,58)        -60.1593                                         !
 ! D162  D(55,56,57,70)         58.6302                                         !
 ! D163  D(55,56,57,71)        176.1164                                         !
 ! D164  D(68,56,57,58)       -179.3936                                         !
 ! D165  D(68,56,57,70)        -60.6041                                         !
 ! D166  D(68,56,57,71)         56.8821                                         !
 ! D167  D(69,56,57,58)         65.9725                                         !
 ! D168  D(69,56,57,70)       -175.238                                          !
 ! D169  D(69,56,57,71)        -57.7518                                         !
 ! D170  D(56,57,58,59)        -72.6721                                         !
 ! D171  D(56,57,58,72)        153.0514                                         !
 ! D172  D(70,57,58,59)        166.4732                                         !
 ! D173  D(70,57,58,72)         32.1967                                         !
 ! D174  D(71,57,58,59)         50.2016                                         !
 ! D175  D(71,57,58,72)        -84.0749                                         !
 ! D176  D(57,58,59,60)         35.5989                                         !
 ! D177  D(57,58,59,61)       -145.424                                          !
 ! D178  D(72,58,59,60)        169.1282                                         !
 ! D179  D(72,58,59,61)        -11.8947                                         !
 ! D180  D(58,59,60,73)       -178.6374                                         !
 ! D181  D(61,59,60,73)          2.4921                                         !
 ! D182  D(58,59,61,74)       -155.8052                                         !
 ! D183  D(58,59,61,75)        -12.8944                                         !
 ! D184  D(60,59,61,74)         23.0953                                         !
 ! D185  D(60,59,61,75)        166.0061                                         !
 --------------------------------------------------------------------------------
 Symmetry turned off by external request.
 Stoichiometry    C23H36N9O7(1+)
 Framework group  C1[X(C23H36N9O7)]
 Deg. of freedom   219
 Full point group                 C1      NOp   1
                          Input orientation:                          
 ---------------------------------------------------------------------
 Center     Atomic      Atomic             Coordinates (Angstroms)
 Number     Number       Type             X           Y           Z
 ---------------------------------------------------------------------
      1          7           0      -10.702915   -1.297298   -6.030604
      2          6           0       -9.352656   -0.930403   -5.463996
      3          6           0       -8.759414    0.057407   -6.479626
      4          8           0       -9.456053    1.037862   -6.750082
      5          6           0       -8.578498   -2.195672   -5.100891
      6          6           0       -9.327408   -3.010726   -4.046112
      7          7           0       -8.569021   -3.686968   -3.160730
      8          8           0      -10.562722   -3.064802   -4.033427
      9          1           0      -10.535368   -1.737973   -6.969083
     10          1           0       -9.544595   -0.343053   -4.561166
     11          1           0       -8.454230   -2.820409   -5.990762
     12          1           0       -7.582420   -1.903543   -4.755767
     13          1           0       -9.031814   -4.247698   -2.456195
     14          1           0       -7.566020   -3.586165   -3.114645
     15          1           0      -11.132209   -1.976403   -5.365771
     16          1           0      -11.258120   -0.444529   -6.151807
     17          7           0       -7.575772   -0.221206   -7.051322
     18          6           0       -6.813080    0.810575   -7.747540
     19          6           0       -6.583241    0.550951   -9.250805
     20          8           0       -5.509726    0.889484   -9.751306
     21          6           0       -5.458954    1.003619   -7.015306
     22          6           0       -5.658827    1.048065   -5.517314
     23          6           0       -6.218494    2.172885   -4.898894
     24          6           0       -5.380092   -0.080652   -4.733116
     25          6           0       -6.502532    2.169109   -3.531961
     26          6           0       -5.658646   -0.086492   -3.364039
     27          6           0       -6.226881    1.037766   -2.760001
     28          1           0       -7.077601   -1.086593   -6.846066
     29          1           0       -7.409553    1.726005   -7.672251
     30          1           0       -4.802194    0.169948   -7.283903
     31          1           0       -4.989982    1.913787   -7.397482
     32          1           0       -6.440087    3.056726   -5.492658
     33          1           0       -4.954784   -0.964063   -5.204799
     34          1           0       -6.933762    3.051882   -3.068527
     35          1           0       -5.416835   -0.961715   -2.765017
     36          1           0       -6.439171    1.039008   -1.694641
     37          7           0       -7.568399    0.016591  -10.026578
     38          6           0       -8.824600   -0.608563   -9.644733
     39          6           0       -8.663585   -1.991283   -8.983785
     40          8           0       -9.559960   -2.417125   -8.220598
     41          6           0       -9.765970   -0.735716  -10.866746
     42          6           0       -9.167255   -1.583321  -11.990115
     43          7           0       -9.976523   -2.532045  -12.525153
     44          8           0       -8.010614   -1.412821  -12.369173
     45          1           0       -7.290066   -0.174777  -10.989779
     46          1           0       -9.343431    0.019541   -8.918577
     47          1           0       -9.947632    0.268448  -11.266258
     48          1           0      -10.721424   -1.136986  -10.515075
     49          1           0       -9.641773   -3.032316  -13.338796
     50          1           0      -10.956722   -2.602106  -12.295456
     51          7           0       -7.564883   -2.693520   -9.280510
     52          6           0       -7.269415   -3.966595   -8.642634
     53          6           0       -6.221016   -3.763650   -7.546884
     54          8           0       -6.023221   -2.714037   -6.950943
     55          6           0       -6.992063   -5.102707   -9.650433
     56          6           0       -5.971744   -4.831037  -10.764112
     57          6           0       -4.514914   -4.635244  -10.331236
     58          7           0       -4.271527   -3.504336   -9.408810
     59          6           0       -4.336489   -2.196237   -9.894360
     60          7           0       -5.206096   -1.913729  -10.806501
     61          7           0       -3.457496   -1.300054   -9.324348
     62          8           0       -5.655390   -4.917258   -7.158797
     63          1           0       -5.067734   -4.713157   -6.407135
     64          1           0       -6.845581   -2.315184   -9.930082
     65          1           0       -8.171966   -4.249469   -8.084419
     66          1           0       -6.710387   -5.993468   -9.078904
     67          1           0       -7.954985   -5.324139  -10.124891
     68          1           0       -5.981144   -5.705133  -11.428293
     69          1           0       -6.282079   -3.976021  -11.367954
     70          1           0       -4.172373   -5.528395   -9.797480
     71          1           0       -3.899464   -4.521348  -11.233236
     72          1           0       -3.454919   -3.671533   -8.832706
     73          1           0       -5.129037   -0.936379  -11.082820
     74          1           0       -3.742557   -0.327054   -9.375864
     75          1           0       -2.964507   -1.553686   -8.479107
 ---------------------------------------------------------------------
 Rotational constants (GHZ):           0.1266011           0.0809374           0.0783135
 Standard basis: 6-31G(d) (6D, 7F)
   657 basis functions,  1236 primitive gaussians,   657 cartesian basis functions
   146 alpha electrons      146 beta electrons
       nuclear repulsion energy      5230.0268817470 Hartrees.
 NAtoms=   75 NActive=   75 NUniq=   75 SFac= 1.00D+00 NAtFMM=   60 NAOKFM=T Big=T
 Integral buffers will be    131072 words long.
 Raffenetti 2 integral format.
 Two-electron integral symmetry is turned off.
 Nuclear repulsion after empirical dispersion term =     5229.9018964709 Hartrees.
 One-electron integrals computed using PRISM.
 NBasis=   657 RedAO= T EigKep=  4.64D-04  NBF=   657
 NBsUse=   657 1.00D-06 EigRej= -1.00D+00 NBFU=   657
 Initial guess from the checkpoint file:  "conf-368.chk"
 B after Tr=     0.000000    0.000000    0.000000
         Rot=    1.000000    0.000000    0.000000    0.000000 Ang=   0.00 deg.
 Requested convergence on RMS density matrix=1.00D-08 within 128 cycles.
 Requested convergence on MAX density matrix=1.00D-06.
 Requested convergence on             energy=1.00D-06.
 No special actions if energy rises.
 SCF Done:  E(RB3LYP) =  -1917.50233883     A.U. after    3 cycles
            NFock=  3  Conv=0.84D-09     -V/T= 2.0093

 **********************************************************************

            Population analysis using the SCF Density.

 **********************************************************************

 Alpha  occ. eigenvalues --  -19.31609 -19.26316 -19.25068 -19.24239 -19.23818
 Alpha  occ. eigenvalues --  -19.21444 -19.21427 -14.55097 -14.48791 -14.47630
 Alpha  occ. eigenvalues --  -14.46677 -14.45798 -14.45269 -14.44226 -14.43322
 Alpha  occ. eigenvalues --  -14.36562 -10.44491 -10.42710 -10.41288 -10.40645
 Alpha  occ. eigenvalues --  -10.39301 -10.39053 -10.38459 -10.37138 -10.34857
 Alpha  occ. eigenvalues --  -10.34731 -10.33904 -10.33331 -10.30960 -10.30389
 Alpha  occ. eigenvalues --  -10.28723 -10.28590 -10.28526 -10.28270 -10.27981
 Alpha  occ. eigenvalues --  -10.27830 -10.27769 -10.27673 -10.26399  -1.22812
 Alpha  occ. eigenvalues --   -1.16944  -1.16236  -1.15324  -1.13526  -1.13499
 Alpha  occ. eigenvalues --   -1.13142  -1.10214  -1.06525  -1.04740  -1.03969
 Alpha  occ. eigenvalues --   -1.03628  -1.01817  -1.00452  -0.97513  -0.94555
 Alpha  occ. eigenvalues --   -0.92640  -0.92106  -0.89974  -0.88449  -0.87994
 Alpha  occ. eigenvalues --   -0.84056  -0.83525  -0.83331  -0.80871  -0.78632
 Alpha  occ. eigenvalues --   -0.77287  -0.75741  -0.73398  -0.73046  -0.71984
 Alpha  occ. eigenvalues --   -0.70817  -0.70666  -0.69699  -0.69307  -0.68912
 Alpha  occ. eigenvalues --   -0.68498  -0.68303  -0.67195  -0.66452  -0.65230
 Alpha  occ. eigenvalues --   -0.64432  -0.63994  -0.63433  -0.63151  -0.62121
 Alpha  occ. eigenvalues --   -0.61339  -0.61058  -0.60731  -0.60210  -0.59523
 Alpha  occ. eigenvalues --   -0.59203  -0.58843  -0.58255  -0.57023  -0.56330
 Alpha  occ. eigenvalues --   -0.55733  -0.55027  -0.54846  -0.54765  -0.54357
 Alpha  occ. eigenvalues --   -0.54181  -0.53855  -0.53761  -0.53547  -0.53185
 Alpha  occ. eigenvalues --   -0.52764  -0.52741  -0.51735  -0.51233  -0.50864
 Alpha  occ. eigenvalues --   -0.50674  -0.50404  -0.50188  -0.50055  -0.49493
 Alpha  occ. eigenvalues --   -0.49318  -0.48517  -0.48261  -0.47906  -0.47238
 Alpha  occ. eigenvalues --   -0.46686  -0.45995  -0.45719  -0.44521  -0.44342
 Alpha  occ. eigenvalues --   -0.43503  -0.43429  -0.42796  -0.42732  -0.42193
 Alpha  occ. eigenvalues --   -0.40026  -0.39974  -0.39723  -0.39297  -0.38458
 Alpha  occ. eigenvalues --   -0.37754  -0.37453  -0.36760  -0.35788  -0.35459
 Alpha  occ. eigenvalues --   -0.34803  -0.34448  -0.34208  -0.33906  -0.33250
 Alpha  occ. eigenvalues --   -0.31143
 Alpha virt. eigenvalues --   -0.11745  -0.10981  -0.10269  -0.09928  -0.09293
 Alpha virt. eigenvalues --   -0.09135  -0.08304  -0.07559  -0.05758  -0.04649
 Alpha virt. eigenvalues --   -0.03749  -0.03437  -0.02091  -0.02006  -0.00935
 Alpha virt. eigenvalues --   -0.00586   0.00052   0.01055   0.01649   0.01783
 Alpha virt. eigenvalues --    0.02425   0.03065   0.03161   0.03631   0.04062
 Alpha virt. eigenvalues --    0.04380   0.04773   0.05647   0.05711   0.05914
 Alpha virt. eigenvalues --    0.06197   0.06319   0.06705   0.06903   0.07248
 Alpha virt. eigenvalues --    0.07367   0.07867   0.08416   0.08561   0.08974
 Alpha virt. eigenvalues --    0.09290   0.09323   0.09509   0.10052   0.10477
 Alpha virt. eigenvalues --    0.10591   0.10994   0.11534   0.11561   0.12192
 Alpha virt. eigenvalues --    0.12379   0.12648   0.13147   0.13713   0.13970
 Alpha virt. eigenvalues --    0.14520   0.15048   0.15163   0.16689   0.17115
 Alpha virt. eigenvalues --    0.17171   0.17688   0.18362   0.20082   0.21475
 Alpha virt. eigenvalues --    0.21665   0.22043   0.22914   0.23546   0.24263
 Alpha virt. eigenvalues --    0.24358   0.24665   0.25298   0.26069   0.27002
 Alpha virt. eigenvalues --    0.27753   0.28322   0.29034   0.29960   0.30290
 Alpha virt. eigenvalues --    0.32763   0.33773   0.35196   0.36237   0.36845
 Alpha virt. eigenvalues --    0.37525   0.37998   0.38954   0.40313   0.40773
 Alpha virt. eigenvalues --    0.41139   0.41996   0.42524   0.43383   0.43843
 Alpha virt. eigenvalues --    0.44787   0.45220   0.45728   0.45808   0.46178
 Alpha virt. eigenvalues --    0.46600   0.46999   0.47576   0.47716   0.48057
 Alpha virt. eigenvalues --    0.48373   0.48716   0.49079   0.49761   0.49815
 Alpha virt. eigenvalues --    0.50336   0.50718   0.51489   0.51770   0.52072
 Alpha virt. eigenvalues --    0.52218   0.52532   0.52887   0.53041   0.53316
 Alpha virt. eigenvalues --    0.53744   0.54106   0.54679   0.54978   0.55333
 Alpha virt. eigenvalues --    0.55458   0.56035   0.56490   0.57048   0.57469
 Alpha virt. eigenvalues --    0.57726   0.58242   0.58834   0.59396   0.59737
 Alpha virt. eigenvalues --    0.60390   0.60747   0.60883   0.61224   0.62339
 Alpha virt. eigenvalues --    0.62826   0.63307   0.63996   0.64228   0.64610
 Alpha virt. eigenvalues --    0.64780   0.65284   0.66235   0.66470   0.67683
 Alpha virt. eigenvalues --    0.67893   0.68258   0.69181   0.70036   0.70243
 Alpha virt. eigenvalues --    0.70865   0.71750   0.72407   0.73030   0.73633
 Alpha virt. eigenvalues --    0.73970   0.74280   0.74746   0.75168   0.75406
 Alpha virt. eigenvalues --    0.75727   0.75879   0.76174   0.76528   0.77113
 Alpha virt. eigenvalues --    0.77446   0.77862   0.78191   0.78490   0.78766
 Alpha virt. eigenvalues --    0.79112   0.79583   0.79790   0.79966   0.80310
 Alpha virt. eigenvalues --    0.80526   0.81147   0.82103   0.82508   0.82831
 Alpha virt. eigenvalues --    0.83036   0.83289   0.83864   0.84342   0.84719
 Alpha virt. eigenvalues --    0.85499   0.85848   0.86373   0.86418   0.86877
 Alpha virt. eigenvalues --    0.87806   0.88286   0.88669   0.89540   0.90020
 Alpha virt. eigenvalues --    0.90528   0.91107   0.91534   0.91987   0.92472
 Alpha virt. eigenvalues --    0.93126   0.93444   0.94488   0.94943   0.95585
 Alpha virt. eigenvalues --    0.96166   0.96772   0.97371   0.97674   0.98473
 Alpha virt. eigenvalues --    0.99919   1.00504   1.01099   1.01977   1.03122
 Alpha virt. eigenvalues --    1.03564   1.04053   1.05093   1.05494   1.05813
 Alpha virt. eigenvalues --    1.06753   1.07347   1.08124   1.08483   1.08695
 Alpha virt. eigenvalues --    1.10239   1.10866   1.11375   1.11721   1.12836
 Alpha virt. eigenvalues --    1.13417   1.14184   1.14747   1.15763   1.15941
 Alpha virt. eigenvalues --    1.16481   1.18115   1.18289   1.18813   1.19753
 Alpha virt. eigenvalues --    1.20161   1.21293   1.22875   1.22959   1.24655
 Alpha virt. eigenvalues --    1.25127   1.25337   1.26584   1.27396   1.29166
 Alpha virt. eigenvalues --    1.29418   1.29658   1.30116   1.30571   1.30954
 Alpha virt. eigenvalues --    1.32787   1.33440   1.34380   1.34535   1.34666
 Alpha virt. eigenvalues --    1.35673   1.36203   1.37674   1.38661   1.38901
 Alpha virt. eigenvalues --    1.39822   1.39920   1.40246   1.41131   1.42011
 Alpha virt. eigenvalues --    1.42348   1.43431   1.44367   1.44967   1.48271
 Alpha virt. eigenvalues --    1.49408   1.49558   1.50761   1.51548   1.51857
 Alpha virt. eigenvalues --    1.52720   1.53238   1.54603   1.55328   1.55560
 Alpha virt. eigenvalues --    1.57023   1.57410   1.58510   1.60348   1.60742
 Alpha virt. eigenvalues --    1.60989   1.61686   1.62885   1.63099   1.63311
 Alpha virt. eigenvalues --    1.63600   1.64741   1.65717   1.66152   1.67059
 Alpha virt. eigenvalues --    1.68311   1.68758   1.69127   1.69505   1.69872
 Alpha virt. eigenvalues --    1.70278   1.71007   1.71521   1.72272   1.72349
 Alpha virt. eigenvalues --    1.73243   1.73494   1.73616   1.73887   1.74410
 Alpha virt. eigenvalues --    1.75194   1.75943   1.76429   1.76754   1.77805
 Alpha virt. eigenvalues --    1.78084   1.78901   1.79084   1.79755   1.80521
 Alpha virt. eigenvalues --    1.81149   1.81293   1.81816   1.82372   1.83592
 Alpha virt. eigenvalues --    1.83876   1.84339   1.84740   1.85392   1.86647
 Alpha virt. eigenvalues --    1.87055   1.87483   1.88401   1.89688   1.89753
 Alpha virt. eigenvalues --    1.90255   1.90417   1.91372   1.91912   1.93129
 Alpha virt. eigenvalues --    1.93492   1.93557   1.94731   1.95273   1.96191
 Alpha virt. eigenvalues --    1.97281   1.97778   1.98375   1.98535   1.99211
 Alpha virt. eigenvalues --    1.99554   2.00651   2.00953   2.02383   2.02813
 Alpha virt. eigenvalues --    2.03646   2.05586   2.05666   2.05895   2.06274
 Alpha virt. eigenvalues --    2.06467   2.07456   2.08628   2.08905   2.09417
 Alpha virt. eigenvalues --    2.11820   2.12037   2.12955   2.13857   2.14840
 Alpha virt. eigenvalues --    2.15367   2.16774   2.17175   2.17660   2.18526
 Alpha virt. eigenvalues --    2.18644   2.20333   2.21178   2.21761   2.22093
 Alpha virt. eigenvalues --    2.22683   2.22892   2.23820   2.25314   2.25660
 Alpha virt. eigenvalues --    2.26480   2.27103   2.27663   2.28856   2.29518
 Alpha virt. eigenvalues --    2.30977   2.31551   2.31959   2.33689   2.33987
 Alpha virt. eigenvalues --    2.34694   2.35379   2.36414   2.37054   2.38698
 Alpha virt. eigenvalues --    2.39198   2.39550   2.40762   2.41247   2.43527
 Alpha virt. eigenvalues --    2.44192   2.45246   2.45709   2.48476   2.48662
 Alpha virt. eigenvalues --    2.49272   2.49995   2.50262   2.51416   2.51623
 Alpha virt. eigenvalues --    2.52429   2.52543   2.53644   2.54682   2.55050
 Alpha virt. eigenvalues --    2.55490   2.56185   2.56845   2.58432   2.59111
 Alpha virt. eigenvalues --    2.60854   2.61390   2.62040   2.62388   2.63826
 Alpha virt. eigenvalues --    2.64677   2.65710   2.66449   2.67172   2.68090
 Alpha virt. eigenvalues --    2.69662   2.70293   2.71657   2.74169   2.74711
 Alpha virt. eigenvalues --    2.75763   2.79140   2.81776   2.84303   2.86362
 Alpha virt. eigenvalues --    2.88199   2.89327   2.89860   2.91455   2.92389
 Alpha virt. eigenvalues --    2.93769   2.94607   2.95825   2.96389   2.97472
 Alpha virt. eigenvalues --    2.98197   3.00174   3.00904   3.05264   3.06732
 Alpha virt. eigenvalues --    3.10010   3.32123   3.69167   3.70676   3.73347
 Alpha virt. eigenvalues --    3.76724   3.78713   3.91416   3.91957   3.97928
 Alpha virt. eigenvalues --    3.98963   4.00186   4.00425   4.02686   4.03622
 Alpha virt. eigenvalues --    4.05945   4.08146   4.09454   4.12237   4.13929
 Alpha virt. eigenvalues --    4.17186   4.17903   4.20486   4.21741   4.23057
 Alpha virt. eigenvalues --    4.26409   4.27994   4.32908   4.33680   4.37708
 Alpha virt. eigenvalues --    4.39550   4.42454   4.43053   4.44068   4.50776
 Alpha virt. eigenvalues --    4.52562   4.57014   4.60607   4.63356   4.67338
 Alpha virt. eigenvalues --    4.68236
          Condensed to atoms (all electrons):
 Mulliken charges:
               1
     1  N   -0.767034
     2  C   -0.106984
     3  C    0.631212
     4  O   -0.534627
     5  C   -0.427917
     6  C    0.641026
     7  N   -0.736224
     8  O   -0.532180
     9  H    0.434144
    10  H    0.229321
    11  H    0.217021
    12  H    0.201188
    13  H    0.373913
    14  H    0.358635
    15  H    0.429829
    16  H    0.404156
    17  N   -0.656918
    18  C   -0.073674
    19  C    0.640381
    20  O   -0.533026
    21  C   -0.376771
    22  C    0.169379
    23  C   -0.177282
    24  C   -0.206855
    25  C   -0.132224
    26  C   -0.146668
    27  C   -0.134144
    28  H    0.428299
    29  H    0.220449
    30  H    0.148407
    31  H    0.193681
    32  H    0.146713
    33  H    0.134919
    34  H    0.154531
    35  H    0.126539
    36  H    0.148384
    37  N   -0.632704
    38  C   -0.066788
    39  C    0.651677
    40  O   -0.622041
    41  C   -0.385346
    42  C    0.603741
    43  N   -0.737389
    44  O   -0.501154
    45  H    0.392527
    46  H    0.194550
    47  H    0.213554
    48  H    0.165878
    49  H    0.362456
    50  H    0.352378
    51  N   -0.613983
    52  C   -0.094545
    53  C    0.666398
    54  O   -0.521741
    55  C   -0.273944
    56  C   -0.291262
    57  C   -0.125756
    58  N   -0.631443
    59  C    0.636773
    60  N   -0.712008
    61  N   -0.772558
    62  O   -0.554645
    63  H    0.416078
    64  H    0.439628
    65  H    0.206231
    66  H    0.167727
    67  H    0.159566
    68  H    0.153394
    69  H    0.209495
    70  H    0.147687
    71  H    0.170955
    72  H    0.318009
    73  H    0.315459
    74  H    0.378887
    75  H    0.324660
 Sum of Mulliken charges =   1.00000
 Mulliken charges with hydrogens summed into heavy atoms:
               1
     1  N    0.501095
     2  C    0.122337
     3  C    0.631212
     4  O   -0.534627
     5  C   -0.009709
     6  C    0.641026
     7  N   -0.003676
     8  O   -0.532180
    17  N   -0.228619
    18  C    0.146775
    19  C    0.640381
    20  O   -0.533026
    21  C   -0.034683
    22  C    0.169379
    23  C   -0.030569
    24  C   -0.071936
    25  C    0.022307
    26  C   -0.020129
    27  C    0.014240
    37  N   -0.240177
    38  C    0.127762
    39  C    0.651677
    40  O   -0.622041
    41  C   -0.005913
    42  C    0.603741
    43  N   -0.022554
    44  O   -0.501154
    51  N   -0.174355
    52  C    0.111685
    53  C    0.666398
    54  O   -0.521741
    55  C    0.053349
    56  C    0.071626
    57  C    0.192885
    58  N   -0.313434
    59  C    0.636773
    60  N   -0.396549
    61  N   -0.069011
    62  O   -0.138566
 Electronic spatial extent (au):  <R**2>=         136631.0170
 Charge=              1.0000 electrons
 Dipole moment (field-independent basis, Debye):
    X=            -39.1068    Y=            -13.0575    Z=            -31.4177  Tot=             51.8354
 Quadrupole moment (field-independent basis, Debye-Ang):
   XX=            136.5860   YY=           -170.3423   ZZ=             30.2384
   XY=             88.5956   XZ=            280.1174   YZ=             96.7471
 Traceless Quadrupole moment (field-independent basis, Debye-Ang):
   XX=            137.7587   YY=           -169.1697   ZZ=             31.4110
   XY=             88.5956   XZ=            280.1174   YZ=             96.7471
 Octapole moment (field-independent basis, Debye-Ang**2):
  XXX=           1290.5177  YYY=            785.9682  ZZZ=           2844.7646  XYY=           1293.0599
  XXY=           -378.0889  XXZ=          -1096.7272  XZZ=           -910.6129  YZZ=           -568.9281
  YYZ=           1344.7099  XYZ=           -703.7799
 Hexadecapole moment (field-independent basis, Debye-Ang**3):
 XXXX=         -38631.1642 YYYY=          -7766.9718 ZZZZ=         -66516.8863 XXXY=           -902.9835
 XXXZ=          -7308.3084 YYYX=          -5960.9604 YYYZ=          -7178.7699 ZZZX=         -11256.7460
 ZZZY=            624.6559 XXYY=         -11850.9706 XXZZ=           -358.6178 YYZZ=         -12860.2565
 XXYZ=           3244.2310 YYXZ=         -10003.9315 ZZXY=           4766.2208
 N-N= 5.229901896471D+03 E-N=-1.490033787638D+04  KE= 1.899798947880D+03
 Unable to Open any file for archive entry.
 1\1\GINC-LAC-316\SP\RB3LYP\6-31G(d)\C23H36N9O7(1+)\KENGMITH\06-Jun-202
 2\0\\# B3LYP/6-31G* empiricaldispersion=gd3 guess=read geom=check nosy
 mm integral(ultrafinegrid)\\Candidate Structure: Conf:368 Charge calc 
 in gas phase\\1,1\N,0,-10.7029147731,-1.2972977055,-6.0306035903\C,0,-
 9.3526563889,-0.9304034156,-5.4639963508\C,0,-8.759414083,0.0574071873
 ,-6.479625554\O,0,-9.4560528826,1.0378616174,-6.7500820668\C,0,-8.5784
 979722,-2.195672484,-5.1008912675\C,0,-9.3274083258,-3.0107257408,-4.0
 461120191\N,0,-8.5690209323,-3.6869680657,-3.1607298884\O,0,-10.562722
 0024,-3.0648018364,-4.0334267446\H,0,-10.5353683698,-1.737973432,-6.96
 90834084\H,0,-9.544594819,-0.3430532792,-4.5611656927\H,0,-8.454229523
 ,-2.8204086104,-5.9907622028\H,0,-7.5824200461,-1.9035431659,-4.755766
 705\H,0,-9.0318142054,-4.2476983799,-2.4561952805\H,0,-7.5660200627,-3
 .5861654843,-3.1146445961\H,0,-11.1322087348,-1.9764027892,-5.36577053
 4\H,0,-11.258120048,-0.4445289307,-6.1518070083\N,0,-7.5757718358,-0.2
 212061309,-7.0513221369\C,0,-6.8130800166,0.8105749825,-7.7475402868\C
 ,0,-6.5832414599,0.5509508955,-9.250804629\O,0,-5.5097258508,0.8894839
 761,-9.7513058479\C,0,-5.4589543137,1.0036188537,-7.0153063903\C,0,-5.
 6588274918,1.0480652371,-5.5173142036\C,0,-6.2184940612,2.1728847685,-
 4.8988942627\C,0,-5.3800920801,-0.0806516335,-4.7331155988\C,0,-6.5025
 32371,2.1691088875,-3.5319605898\C,0,-5.6586460134,-0.0864917127,-3.36
 40392274\C,0,-6.2268812904,1.037765587,-2.760000922\H,0,-7.0776010822,
 -1.0865933367,-6.8460661363\H,0,-7.4095526919,1.7260053681,-7.67225056
 63\H,0,-4.8021936341,0.1699480293,-7.2839026876\H,0,-4.9899821384,1.91
 37874866,-7.3974817539\H,0,-6.440086567,3.056726019,-5.4926576833\H,0,
 -4.9547836569,-0.9640627493,-5.2047992911\H,0,-6.9337617234,3.05188190
 72,-3.0685267228\H,0,-5.4168352378,-0.9617151061,-2.7650171609\H,0,-6.
 4391706826,1.0390083024,-1.6946407175\N,0,-7.5683986155,0.0165911087,-
 10.0265780302\C,0,-8.8246003657,-0.6085633362,-9.6447329281\C,0,-8.663
 5849571,-1.9912833728,-8.9837850103\O,0,-9.5599603633,-2.4171252429,-8
 .2205982518\C,0,-9.7659703491,-0.7357162737,-10.8667461386\C,0,-9.1672
 554884,-1.5833210938,-11.990114935\N,0,-9.9765227508,-2.5320445047,-12
 .5251525499\O,0,-8.0106142197,-1.4128211842,-12.3691729992\H,0,-7.2900
 655733,-0.1747773872,-10.9897790792\H,0,-9.343430662,0.0195407229,-8.9
 185769646\H,0,-9.9476318696,0.2684476037,-11.2662575875\H,0,-10.721424
 3561,-1.136986199,-10.5150747455\H,0,-9.6417729445,-3.032316074,-13.33
 87963659\H,0,-10.9567220179,-2.6021058439,-12.2954559542\N,0,-7.564883
 4873,-2.6935197096,-9.280510277\C,0,-7.2694153365,-3.9665950126,-8.642
 6344106\C,0,-6.2210155662,-3.7636499321,-7.5468842566\O,0,-6.023221192
 5,-2.7140367326,-6.9509428393\C,0,-6.9920626601,-5.1027066639,-9.65043
 34168\C,0,-5.9717444178,-4.8310373572,-10.7641118621\C,0,-4.5149137452
 ,-4.6352437888,-10.3312356568\N,0,-4.2715271197,-3.5043364481,-9.40880
 96157\C,0,-4.3364894485,-2.196236868,-9.894359559\N,0,-5.2060956248,-1
 .9137286731,-10.8065006435\N,0,-3.4574958412,-1.3000535099,-9.32434813
 54\O,0,-5.6553898468,-4.9172576518,-7.1587968949\H,0,-5.0677339629,-4.
 7131572605,-6.4071348935\H,0,-6.8455807546,-2.3151837458,-9.9300819051
 \H,0,-8.1719658026,-4.2494689725,-8.0844194066\H,0,-6.7103869142,-5.99
 34682199,-9.0789041348\H,0,-7.9549849951,-5.3241386598,-10.1248906123\
 H,0,-5.9811438367,-5.705132876,-11.4282925608\H,0,-6.2820789284,-3.976
 0208142,-11.3679541518\H,0,-4.1723732725,-5.5283950183,-9.797480207\H,
 0,-3.8994639177,-4.5213484342,-11.2332362007\H,0,-3.4549185419,-3.6715
 329747,-8.832706192\H,0,-5.1290371486,-0.9363791074,-11.082819569\H,0,
 -3.742557246,-0.3270542546,-9.3758640658\H,0,-2.9645070007,-1.55368592
 34,-8.4791072886\\Version=ES64L-G16RevC.01\HF=-1917.5023388\RMSD=8.394
 e-10\Dipole=-1.6882441,-2.2573776,2.3047635\Quadrupole=102.4201846,-12
 5.7734972,23.3533125,65.8686757,208.2604069,71.9290608\PG=C01 [X(C23H3
 6N9O7)]\\@
 The archive entry for this job was punched.


 EDUCATION DOESN'T COST 
           ... IT PAYS!

 -- POSTMARK, UNIV. OF MISSISSIPPI, DEC 78
 Job cpu time:       0 days  0 hours  6 minutes 33.1 seconds.
 Elapsed time:       0 days  0 hours  1 minutes 39.3 seconds.
 File lengths (MBytes):  RWF=    344 Int=      0 D2E=      0 Chk=     48 Scr=     16
 Normal termination of Gaussian 16 at Mon Jun  6 02:48:29 2022.
