 Entering Gaussian System, Link 0=/opt/software/Gaussian/g16-AVX2-C.01/g16/g16
 Input=charge-conf-669.com
 Output=charge-conf-669.log
 Initial command:
 /opt/software/Gaussian/g16-AVX2-C.01/g16/l1.exe "/mnt/gs18/scratch/users/kengmith/Gau-14061.inp" -scrdir="/mnt/gs18/scratch/users/kengmith/"
 Entering Link 1 = /opt/software/Gaussian/g16-AVX2-C.01/g16/l1.exe PID=     14071.
  
 Copyright (c) 1988-2019, Gaussian, Inc.  All Rights Reserved.
  
 This is part of the Gaussian(R) 16 program.  It is based on
 the Gaussian(R) 09 system (copyright 2009, Gaussian, Inc.),
 the Gaussian(R) 03 system (copyright 2003, Gaussian, Inc.),
 the Gaussian(R) 98 system (copyright 1998, Gaussian, Inc.),
 the Gaussian(R) 94 system (copyright 1995, Gaussian, Inc.),
 the Gaussian 92(TM) system (copyright 1992, Gaussian, Inc.),
 the Gaussian 90(TM) system (copyright 1990, Gaussian, Inc.),
 the Gaussian 88(TM) system (copyright 1988, Gaussian, Inc.),
 the Gaussian 86(TM) system (copyright 1986, Carnegie Mellon
 University), and the Gaussian 82(TM) system (copyright 1983,
 Carnegie Mellon University). Gaussian is a federally registered
 trademark of Gaussian, Inc.
  
 This software contains proprietary and confidential information,
 including trade secrets, belonging to Gaussian, Inc.
  
 This software is provided under written license and may be
 used, copied, transmitted, or stored only in accord with that
 written license.
  
 The following legend is applicable only to US Government
 contracts under FAR:
  
                    RESTRICTED RIGHTS LEGEND
  
 Use, reproduction and disclosure by the US Government is
 subject to restrictions as set forth in subparagraphs (a)
 and (c) of the Commercial Computer Software - Restricted
 Rights clause in FAR 52.227-19.
  
 Gaussian, Inc.
 340 Quinnipiac St., Bldg. 40, Wallingford CT 06492
  
  
 ---------------------------------------------------------------
 Warning -- This program may not be used in any manner that
 competes with the business of Gaussian, Inc. or will provide
 assistance to any competitor of Gaussian, Inc.  The licensee
 of this program is prohibited from giving any competitor of
 Gaussian, Inc. access to this program.  By using this program,
 the user acknowledges that Gaussian, Inc. is engaged in the
 business of creating and licensing software in the field of
 computational chemistry and represents and warrants to the
 licensee that it is not a competitor of Gaussian, Inc. and that
 it will not use this program in any manner prohibited above.
 ---------------------------------------------------------------
  

 Cite this work as:
 Gaussian 16, Revision C.01,
 M. J. Frisch, G. W. Trucks, H. B. Schlegel, G. E. Scuseria, 
 M. A. Robb, J. R. Cheeseman, G. Scalmani, V. Barone, 
 G. A. Petersson, H. Nakatsuji, X. Li, M. Caricato, A. V. Marenich, 
 J. Bloino, B. G. Janesko, R. Gomperts, B. Mennucci, H. P. Hratchian, 
 J. V. Ortiz, A. F. Izmaylov, J. L. Sonnenberg, D. Williams-Young, 
 F. Ding, F. Lipparini, F. Egidi, J. Goings, B. Peng, A. Petrone, 
 T. Henderson, D. Ranasinghe, V. G. Zakrzewski, J. Gao, N. Rega, 
 G. Zheng, W. Liang, M. Hada, M. Ehara, K. Toyota, R. Fukuda, 
 J. Hasegawa, M. Ishida, T. Nakajima, Y. Honda, O. Kitao, H. Nakai, 
 T. Vreven, K. Throssell, J. A. Montgomery, Jr., J. E. Peralta, 
 F. Ogliaro, M. J. Bearpark, J. J. Heyd, E. N. Brothers, K. N. Kudin, 
 V. N. Staroverov, T. A. Keith, R. Kobayashi, J. Normand, 
 K. Raghavachari, A. P. Rendell, J. C. Burant, S. S. Iyengar, 
 J. Tomasi, M. Cossi, J. M. Millam, M. Klene, C. Adamo, R. Cammi, 
 J. W. Ochterski, R. L. Martin, K. Morokuma, O. Farkas, 
 J. B. Foresman, and D. J. Fox, Gaussian, Inc., Wallingford CT, 2019.
 
 ******************************************
 Gaussian 16:  ES64L-G16RevC.01  3-Jul-2019
                 6-Jun-2022 
 ******************************************
 %mem=8gb
 %nproc=4
 Will use up to    4 processors via shared memory.
 %chk=conf-669.chk
 ----------------------------------------------------------------------
 # B3LYP/6-31G* empiricaldispersion=gd3 guess=read geom=check nosymm in
 tegral(ultrafinegrid)
 ----------------------------------------------------------------------
 1/29=2,38=1,172=1/1;
 2/12=2,15=1,40=1/2;
 3/5=1,6=6,7=1,11=2,14=-4,25=1,30=1,74=-5,75=-5,116=-2,124=31/1,2,3;
 4/5=1/1;
 5/5=2,38=6/2;
 6/7=2,8=2,9=2,10=2,28=1/1;
 99/5=1,9=1/99;
 ------------------------------------------------------
 Candidate Structure: Conf:669 Charge calc in gas phase
 ------------------------------------------------------
 Structure from the checkpoint file:  "conf-669.chk"
 Charge =  1 Multiplicity = 1
 Redundant internal coordinates found in file.  (old form).
 N,0,-9.9009325646,1.472065319,-9.55432817
 C,0,-9.88113677,0.0478899366,-10.0614701089
 C,0,-10.0768773938,-0.8172906887,-8.799945664
 O,0,-11.0686322353,-0.525248256,-8.1263617441
 C,0,-8.6734125937,-0.1208673616,-10.9768592171
 C,0,-8.7764568372,0.8002827916,-12.1939317517
 N,0,-8.1536155192,0.3843703877,-13.3111901743
 O,0,-9.3751091498,1.8821449684,-12.129869069
 H,0,-10.7570038817,1.6243407315,-9.0107491867
 H,0,-10.8049244622,-0.0741002392,-10.6351374
 H,0,-7.7655717985,0.1450027085,-10.4332160211
 H,0,-8.5697590791,-1.1685313735,-11.2690895013
 H,0,-8.147644483,0.9942745195,-14.1191958805
 H,0,-7.6461608457,-0.4874000475,-13.3600873646
 H,0,-9.0619030702,1.6068722651,-8.9403839404
 H,0,-9.8471669156,2.0751877993,-10.4067328734
 N,0,-9.1895947261,-1.7749102428,-8.4581973248
 C,0,-9.4981085776,-2.7006350824,-7.3595519056
 C,0,-8.7410418944,-2.4856088568,-6.0276473449
 O,0,-8.5259691908,-3.4668427345,-5.3132985935
 C,0,-9.4065454334,-4.1743098921,-7.8263489871
 C,0,-8.0251391934,-4.6654421191,-8.2111343739
 C,0,-7.525746243,-4.4603652827,-9.5028730529
 C,0,-7.2299043225,-5.3719979135,-7.2937693172
 C,0,-6.2577926719,-4.9179561381,-9.8678355432
 C,0,-5.9693449124,-5.8455540133,-7.658957993
 C,0,-5.4746784287,-5.6126712921,-8.9460194005
 H,0,-8.3099080006,-1.8899090612,-8.9630939383
 H,0,-10.5444149792,-2.497086734,-7.1045791817
 H,0,-9.8074924774,-4.7887609543,-7.0175379363
 H,0,-10.0885377709,-4.2731551862,-8.6784225978
 H,0,-8.1390460473,-3.9483768631,-10.2407799045
 H,0,-7.6156432005,-5.5609847027,-6.2975127626
 H,0,-5.8897794509,-4.7398113516,-10.8740593852
 H,0,-5.3803536666,-6.4140561776,-6.9440583201
 H,0,-4.4949587903,-5.9855193575,-9.2310483825
 N,0,-8.4066014025,-1.2430322621,-5.5762167256
 C,0,-8.4393594606,0.0536482856,-6.2267462371
 C,0,-7.3727657196,0.2178173628,-7.3182040461
 O,0,-7.512575754,1.1057941458,-8.1887348808
 C,0,-8.2486947056,1.1884840429,-5.1747398423
 C,0,-7.0368929752,0.8891852042,-4.2982990532
 N,0,-5.8465659039,1.4119917715,-4.6770566922
 O,0,-7.1588354176,0.1164670358,-3.3469664826
 H,0,-8.0323340444,-1.2456890413,-4.627633351
 H,0,-9.4117749936,0.2207930337,-6.6915617229
 H,0,-9.1290954854,1.2176167387,-4.529124485
 H,0,-8.1686924151,2.1381544036,-5.7123552815
 H,0,-5.0163087441,0.9221047034,-4.3518145434
 H,0,-5.766192925,1.9673784031,-5.5162444084
 N,0,-6.2868238223,-0.5590022181,-7.2495313969
 C,0,-5.1685665703,-0.3850570528,-8.1545469633
 C,0,-5.5009991045,-0.9560469119,-9.5383633018
 O,0,-6.4778676768,-1.6298147559,-9.7869393077
 C,0,-3.89100536,-1.0485224434,-7.5887807816
 C,0,-3.9236040204,-2.5966423627,-7.5744057706
 C,0,-4.1159414337,-3.1847317145,-6.1761023603
 N,0,-5.4006953289,-2.799831221,-5.5551160735
 C,0,-5.3531603749,-2.2192561881,-4.2678189617
 N,0,-4.4528005508,-1.3253361375,-4.0290722546
 N,0,-6.3092982252,-2.6875390435,-3.3952307441
 O,0,-4.6233456531,-0.6829717266,-10.5194136772
 H,0,-3.8756753501,-0.153730352,-10.1916025593
 H,0,-6.188030989,-1.3051064001,-6.5414071778
 H,0,-5.0006780685,0.6924320856,-8.2838475128
 H,0,-3.0397100563,-0.6942985549,-8.182582928
 H,0,-3.7404178221,-0.664225366,-6.57310434
 H,0,-4.7062417945,-2.9855550884,-8.236658519
 H,0,-2.9771904929,-2.9846127625,-7.9687820656
 H,0,-4.0652044237,-4.2771151325,-6.2378367047
 H,0,-3.3170737514,-2.8413489415,-5.5156114179
 H,0,-6.0995196384,-3.5322063401,-5.6401466817
 H,0,-4.5083177394,-1.0350637083,-3.0521843286
 H,0,-6.5822235959,-2.0314778411,-2.6736919834
 H,0,-7.087923073,-3.216644195,-3.779655553
 Recover connectivity data from disk.
                           ----------------------------
                           !    Current Parameters    !
                           ! (Angstroms and Degrees)  !
 --------------------------                            --------------------------
 ! Name  Definition              Value                                          !
 --------------------------------------------------------------------------------
 ! R1    R(1,2)                  1.5119                                         !
 ! R2    R(1,9)                  1.0254                                         !
 ! R3    R(1,15)                 1.0484                                         !
 ! R4    R(1,16)                 1.0456                                         !
 ! R5    R(2,3)                  1.5422                                         !
 ! R6    R(2,5)                  1.5248                                         !
 ! R7    R(2,10)                 1.0942                                         !
 ! R8    R(3,4)                  1.2339                                         !
 ! R9    R(3,17)                 1.3495                                         !
 ! R10   R(5,6)                  1.5298                                         !
 ! R11   R(5,11)                 1.0911                                         !
 ! R12   R(5,12)                 1.0926                                         !
 ! R13   R(6,7)                  1.3451                                         !
 ! R14   R(6,8)                  1.2381                                         !
 ! R15   R(7,13)                 1.0124                                         !
 ! R16   R(7,14)                 1.0099                                         !
 ! R17   R(17,18)                1.4694                                         !
 ! R18   R(17,28)                1.0208                                         !
 ! R19   R(18,19)                1.547                                          !
 ! R20   R(18,21)                1.5485                                         !
 ! R21   R(18,29)                1.096                                          !
 ! R22   R(19,20)                1.2326                                         !
 ! R23   R(19,37)                1.3637                                         !
 ! R24   R(21,22)                1.5158                                         !
 ! R25   R(21,30)                1.092                                          !
 ! R26   R(21,31)                1.0959                                         !
 ! R27   R(22,23)                1.4                                            !
 ! R28   R(22,24)                1.4047                                         !
 ! R29   R(23,25)                1.3965                                         !
 ! R30   R(23,32)                1.0876                                         !
 ! R31   R(24,26)                1.3952                                         !
 ! R32   R(24,33)                1.0849                                         !
 ! R33   R(25,27)                1.3949                                         !
 ! R34   R(25,34)                1.0861                                         !
 ! R35   R(26,27)                1.3984                                         !
 ! R36   R(26,35)                1.0868                                         !
 ! R37   R(27,36)                1.0863                                         !
 ! R38   R(37,38)                1.4511                                         !
 ! R39   R(37,45)                1.0198                                         !
 ! R40   R(38,39)                1.5349                                         !
 ! R41   R(38,41)                1.5591                                         !
 ! R42   R(38,46)                1.0907                                         !
 ! R43   R(39,40)                1.2513                                         !
 ! R44   R(39,51)                1.3369                                         !
 ! R45   R(41,42)                1.5252                                         !
 ! R46   R(41,47)                1.0921                                         !
 ! R47   R(41,48)                1.0942                                         !
 ! R48   R(42,43)                1.3541                                         !
 ! R49   R(42,44)                1.2317                                         !
 ! R50   R(43,49)                1.0174                                         !
 ! R51   R(43,50)                1.0095                                         !
 ! R52   R(51,52)                1.4491                                         !
 ! R53   R(51,64)                1.0334                                         !
 ! R54   R(52,53)                1.5335                                         !
 ! R55   R(52,55)                1.5468                                         !
 ! R56   R(52,65)                1.0981                                         !
 ! R57   R(53,54)                1.2124                                         !
 ! R58   R(53,62)                1.3444                                         !
 ! R59   R(55,56)                1.5485                                         !
 ! R60   R(55,66)                1.0967                                         !
 ! R61   R(55,67)                1.0963                                         !
 ! R62   R(56,57)                1.5291                                         !
 ! R63   R(56,68)                1.0965                                         !
 ! R64   R(56,69)                1.0962                                         !
 ! R65   R(57,58)                1.478                                          !
 ! R66   R(57,70)                1.0953                                         !
 ! R67   R(57,71)                1.0919                                         !
 ! R68   R(58,59)                1.413                                          !
 ! R69   R(58,72)                1.0159                                         !
 ! R70   R(59,60)                1.291                                          !
 ! R71   R(59,61)                1.3766                                         !
 ! R72   R(60,73)                1.0206                                         !
 ! R73   R(61,74)                1.0127                                         !
 ! R74   R(61,75)                1.0169                                         !
 ! R75   R(62,63)                0.9729                                         !
 ! A1    A(2,1,9)              109.1852                                         !
 ! A2    A(2,1,15)             107.8835                                         !
 ! A3    A(2,1,16)             105.6182                                         !
 ! A4    A(9,1,15)             109.792                                          !
 ! A5    A(9,1,16)             112.9189                                         !
 ! A6    A(15,1,16)            111.229                                          !
 ! A7    A(1,2,3)              104.6201                                         !
 ! A8    A(1,2,5)              108.4209                                         !
 ! A9    A(1,2,10)             105.6533                                         !
 ! A10   A(3,2,5)              121.9734                                         !
 ! A11   A(3,2,10)             105.0201                                         !
 ! A12   A(5,2,10)             109.9746                                         !
 ! A13   A(2,3,4)              114.5684                                         !
 ! A14   A(2,3,17)             121.4539                                         !
 ! A15   A(4,3,17)             123.929                                          !
 ! A16   A(2,5,6)              110.9535                                         !
 ! A17   A(2,5,11)             109.4478                                         !
 ! A18   A(2,5,12)             109.9888                                         !
 ! A19   A(6,5,11)             107.8016                                         !
 ! A20   A(6,5,12)             111.7756                                         !
 ! A21   A(11,5,12)            106.7379                                         !
 ! A22   A(5,6,7)              116.3239                                         !
 ! A23   A(5,6,8)              121.1674                                         !
 ! A24   A(7,6,8)              122.4845                                         !
 ! A25   A(6,7,13)             118.6465                                         !
 ! A26   A(6,7,14)             122.6715                                         !
 ! A27   A(13,7,14)            118.584                                          !
 ! A28   A(3,17,18)            119.8914                                         !
 ! A29   A(3,17,28)            121.4197                                         !
 ! A30   A(18,17,28)           118.6709                                         !
 ! A31   A(17,18,19)           116.9614                                         !
 ! A32   A(17,18,21)           111.2071                                         !
 ! A33   A(17,18,29)           104.9144                                         !
 ! A34   A(19,18,21)           111.2758                                         !
 ! A35   A(19,18,29)           103.95                                           !
 ! A36   A(21,18,29)           107.6569                                         !
 ! A37   A(18,19,20)           118.2735                                         !
 ! A38   A(18,19,37)           122.1179                                         !
 ! A39   A(20,19,37)           119.3876                                         !
 ! A40   A(18,21,22)           116.0247                                         !
 ! A41   A(18,21,30)           106.8877                                         !
 ! A42   A(18,21,31)           106.4646                                         !
 ! A43   A(22,21,30)           109.8965                                         !
 ! A44   A(22,21,31)           109.9111                                         !
 ! A45   A(30,21,31)           107.256                                          !
 ! A46   A(21,22,23)           120.7869                                         !
 ! A47   A(21,22,24)           120.8729                                         !
 ! A48   A(23,22,24)           118.3139                                         !
 ! A49   A(22,23,25)           121.1307                                         !
 ! A50   A(22,23,32)           119.5927                                         !
 ! A51   A(25,23,32)           119.2712                                         !
 ! A52   A(22,24,26)           120.7487                                         !
 ! A53   A(22,24,33)           119.0804                                         !
 ! A54   A(26,24,33)           120.1631                                         !
 ! A55   A(23,25,27)           120.0148                                         !
 ! A56   A(23,25,34)           119.7361                                         !
 ! A57   A(27,25,34)           120.2459                                         !
 ! A58   A(24,26,27)           120.264                                          !
 ! A59   A(24,26,35)           119.6701                                         !
 ! A60   A(27,26,35)           120.0551                                         !
 ! A61   A(25,27,26)           119.5117                                         !
 ! A62   A(25,27,36)           120.2567                                         !
 ! A63   A(26,27,36)           120.2227                                         !
 ! A64   A(19,37,38)           131.3222                                         !
 ! A65   A(19,37,45)           113.3016                                         !
 ! A66   A(38,37,45)           115.3174                                         !
 ! A67   A(37,38,39)           113.4959                                         !
 ! A68   A(37,38,41)           110.1918                                         !
 ! A69   A(37,38,46)           110.3726                                         !
 ! A70   A(39,38,41)           108.4802                                         !
 ! A71   A(39,38,46)           107.4643                                         !
 ! A72   A(41,38,46)           106.5611                                         !
 ! A73   A(38,39,40)           119.5351                                         !
 ! A74   A(38,39,51)           117.7597                                         !
 ! A75   A(40,39,51)           122.6019                                         !
 ! A76   A(38,41,42)           110.0025                                         !
 ! A77   A(38,41,47)           108.6449                                         !
 ! A78   A(38,41,48)           108.0072                                         !
 ! A79   A(42,41,47)           107.8197                                         !
 ! A80   A(42,41,48)           113.2387                                         !
 ! A81   A(47,41,48)           109.0403                                         !
 ! A82   A(41,42,43)           117.5112                                         !
 ! A83   A(41,42,44)           119.2293                                         !
 ! A84   A(43,42,44)           123.0447                                         !
 ! A85   A(42,43,49)           116.2332                                         !
 ! A86   A(42,43,50)           120.9905                                         !
 ! A87   A(49,43,50)           117.7535                                         !
 ! A88   A(39,51,52)           121.6678                                         !
 ! A89   A(39,51,64)           122.1653                                         !
 ! A90   A(52,51,64)           116.1591                                         !
 ! A91   A(51,52,53)           110.5858                                         !
 ! A92   A(51,52,55)           110.9447                                         !
 ! A93   A(51,52,65)           108.0173                                         !
 ! A94   A(53,52,55)           110.452                                          !
 ! A95   A(53,52,65)           106.9923                                         !
 ! A96   A(55,52,65)           109.7349                                         !
 ! A97   A(52,53,54)           124.5135                                         !
 ! A98   A(52,53,62)           116.1919                                         !
 ! A99   A(54,53,62)           119.2919                                         !
 ! A100  A(52,55,56)           114.509                                          !
 ! A101  A(52,55,66)           107.7308                                         !
 ! A102  A(52,55,67)           107.5753                                         !
 ! A103  A(56,55,66)           110.1371                                         !
 ! A104  A(56,55,67)           110.1651                                         !
 ! A105  A(66,55,67)           106.3658                                         !
 ! A106  A(55,56,57)           113.3058                                         !
 ! A107  A(55,56,68)           111.3463                                         !
 ! A108  A(55,56,69)           109.4085                                         !
 ! A109  A(57,56,68)           109.0331                                         !
 ! A110  A(57,56,69)           107.5455                                         !
 ! A111  A(68,56,69)           105.8664                                         !
 ! A112  A(56,57,58)           113.1669                                         !
 ! A113  A(56,57,70)           109.0388                                         !
 ! A114  A(56,57,71)           109.8872                                         !
 ! A115  A(58,57,70)           108.8857                                         !
 ! A116  A(58,57,71)           107.4527                                         !
 ! A117  A(70,57,71)           108.2904                                         !
 ! A118  A(57,58,59)           117.4232                                         !
 ! A119  A(57,58,72)           112.0285                                         !
 ! A120  A(59,58,72)           113.3055                                         !
 ! A121  A(58,59,60)           118.4538                                         !
 ! A122  A(58,59,61)           114.4797                                         !
 ! A123  A(60,59,61)           127.0656                                         !
 ! A124  A(59,60,73)           109.6333                                         !
 ! A125  A(59,61,74)           114.7375                                         !
 ! A126  A(59,61,75)           117.984                                          !
 ! A127  A(74,61,75)           113.5841                                         !
 ! A128  A(53,62,63)           111.4884                                         !
 ! D1    D(9,1,2,3)            -53.8402                                         !
 ! D2    D(9,1,2,5)            174.5787                                         !
 ! D3    D(9,1,2,10)            56.7229                                         !
 ! D4    D(15,1,2,3)            65.4343                                         !
 ! D5    D(15,1,2,5)           -66.1468                                         !
 ! D6    D(15,1,2,10)          175.9974                                         !
 ! D7    D(16,1,2,3)          -175.5355                                         !
 ! D8    D(16,1,2,5)            52.8833                                         !
 ! D9    D(16,1,2,10)          -64.9724                                         !
 ! D10   D(1,2,3,4)             53.6565                                         !
 ! D11   D(1,2,3,17)          -123.901                                          !
 ! D12   D(5,2,3,4)            176.8729                                         !
 ! D13   D(5,2,3,17)            -0.6845                                         !
 ! D14   D(10,2,3,4)           -57.364                                          !
 ! D15   D(10,2,3,17)          125.0785                                         !
 ! D16   D(1,2,5,6)            -62.1279                                         !
 ! D17   D(1,2,5,11)            56.7138                                         !
 ! D18   D(1,2,5,12)           173.6781                                         !
 ! D19   D(3,2,5,6)            176.4376                                         !
 ! D20   D(3,2,5,11)           -64.7207                                         !
 ! D21   D(3,2,5,12)            52.2436                                         !
 ! D22   D(10,2,5,6)            52.9371                                         !
 ! D23   D(10,2,5,11)          171.7788                                         !
 ! D24   D(10,2,5,12)          -71.2569                                         !
 ! D25   D(2,3,17,18)         -171.6029                                         !
 ! D26   D(2,3,17,28)            6.8321                                         !
 ! D27   D(4,3,17,18)           11.0746                                         !
 ! D28   D(4,3,17,28)         -170.4905                                         !
 ! D29   D(2,5,6,7)           -152.2956                                         !
 ! D30   D(2,5,6,8)             29.4498                                         !
 ! D31   D(11,5,6,7)            87.8754                                         !
 ! D32   D(11,5,6,8)           -90.3791                                         !
 ! D33   D(12,5,6,7)           -29.1245                                         !
 ! D34   D(12,5,6,8)           152.6209                                         !
 ! D35   D(5,6,7,13)          -176.0538                                         !
 ! D36   D(5,6,7,14)             0.2937                                         !
 ! D37   D(8,6,7,13)             2.1757                                         !
 ! D38   D(8,6,7,14)           178.5232                                         !
 ! D39   D(3,17,18,19)        -106.17                                           !
 ! D40   D(3,17,18,21)         124.4802                                         !
 ! D41   D(3,17,18,29)           8.3737                                         !
 ! D42   D(28,17,18,19)         75.3522                                         !
 ! D43   D(28,17,18,21)        -53.9976                                         !
 ! D44   D(28,17,18,29)       -170.1041                                         !
 ! D45   D(17,18,19,20)       -150.5311                                         !
 ! D46   D(17,18,19,37)         34.907                                          !
 ! D47   D(21,18,19,20)        -21.2138                                         !
 ! D48   D(21,18,19,37)        164.2242                                         !
 ! D49   D(29,18,19,20)         94.3883                                         !
 ! D50   D(29,18,19,37)        -80.1736                                         !
 ! D51   D(17,18,21,22)         66.3744                                         !
 ! D52   D(17,18,21,30)       -170.6677                                         !
 ! D53   D(17,18,21,31)        -56.275                                          !
 ! D54   D(19,18,21,22)        -65.9237                                         !
 ! D55   D(19,18,21,30)         57.0342                                         !
 ! D56   D(19,18,21,31)        171.4269                                         !
 ! D57   D(29,18,21,22)       -179.2176                                         !
 ! D58   D(29,18,21,30)        -56.2597                                         !
 ! D59   D(29,18,21,31)         58.133                                          !
 ! D60   D(18,19,37,38)        -11.2447                                         !
 ! D61   D(18,19,37,45)        171.7278                                         !
 ! D62   D(20,19,37,38)        174.2521                                         !
 ! D63   D(20,19,37,45)         -2.7754                                         !
 ! D64   D(18,21,22,23)        -85.1881                                         !
 ! D65   D(18,21,22,24)         96.7118                                         !
 ! D66   D(30,21,22,23)        153.4452                                         !
 ! D67   D(30,21,22,24)        -24.6549                                         !
 ! D68   D(31,21,22,23)         35.6298                                         !
 ! D69   D(31,21,22,24)       -142.4702                                         !
 ! D70   D(21,22,23,25)       -179.5519                                         !
 ! D71   D(21,22,23,32)         -0.4086                                         !
 ! D72   D(24,22,23,25)         -1.4042                                         !
 ! D73   D(24,22,23,32)        177.7391                                         !
 ! D74   D(21,22,24,26)        178.7402                                         !
 ! D75   D(21,22,24,33)         -0.2412                                         !
 ! D76   D(23,22,24,26)          0.5942                                         !
 ! D77   D(23,22,24,33)       -178.3872                                         !
 ! D78   D(22,23,25,27)          1.1163                                         !
 ! D79   D(22,23,25,34)       -179.5355                                         !
 ! D80   D(32,23,25,27)       -178.0297                                         !
 ! D81   D(32,23,25,34)          1.3185                                         !
 ! D82   D(22,24,26,27)          0.5022                                         !
 ! D83   D(22,24,26,35)       -178.301                                          !
 ! D84   D(33,24,26,27)        179.4726                                         !
 ! D85   D(33,24,26,35)          0.6694                                         !
 ! D86   D(23,25,27,26)          0.0089                                         !
 ! D87   D(23,25,27,36)        178.9275                                         !
 ! D88   D(34,25,27,26)       -179.3359                                         !
 ! D89   D(34,25,27,36)         -0.4173                                         !
 ! D90   D(24,26,27,25)         -0.8077                                         !
 ! D91   D(24,26,27,36)       -179.7266                                         !
 ! D92   D(35,26,27,25)        177.991                                          !
 ! D93   D(35,26,27,36)         -0.928                                          !
 ! D94   D(19,37,38,39)        -70.4242                                         !
 ! D95   D(19,37,38,41)        167.6958                                         !
 ! D96   D(19,37,38,46)         50.274                                          !
 ! D97   D(45,37,38,39)        106.5557                                         !
 ! D98   D(45,37,38,41)        -15.3244                                         !
 ! D99   D(45,37,38,46)       -132.7461                                         !
 ! D100  D(37,38,39,40)        160.4621                                         !
 ! D101  D(37,38,39,51)        -23.1364                                         !
 ! D102  D(41,38,39,40)        -76.7098                                         !
 ! D103  D(41,38,39,51)         99.6918                                         !
 ! D104  D(46,38,39,40)         38.1378                                         !
 ! D105  D(46,38,39,51)       -145.4607                                         !
 ! D106  D(37,38,41,42)         49.8229                                         !
 ! D107  D(37,38,41,47)        -67.9863                                         !
 ! D108  D(37,38,41,48)        173.868                                          !
 ! D109  D(39,38,41,42)        -74.9828                                         !
 ! D110  D(39,38,41,47)        167.208                                          !
 ! D111  D(39,38,41,48)         49.0623                                         !
 ! D112  D(46,38,41,42)        169.5808                                         !
 ! D113  D(46,38,41,47)         51.7716                                         !
 ! D114  D(46,38,41,48)        -66.3741                                         !
 ! D115  D(38,39,51,52)       -173.7648                                         !
 ! D116  D(38,39,51,64)          5.1782                                         !
 ! D117  D(40,39,51,52)          2.5187                                         !
 ! D118  D(40,39,51,64)       -178.5383                                         !
 ! D119  D(38,41,42,43)         92.8733                                         !
 ! D120  D(38,41,42,44)        -81.9653                                         !
 ! D121  D(47,41,42,43)       -148.8075                                         !
 ! D122  D(47,41,42,44)         36.3538                                         !
 ! D123  D(48,41,42,43)        -28.0799                                         !
 ! D124  D(48,41,42,44)        157.0814                                         !
 ! D125  D(41,42,43,49)       -155.2331                                         !
 ! D126  D(41,42,43,50)         -0.8684                                         !
 ! D127  D(44,42,43,49)         19.3929                                         !
 ! D128  D(44,42,43,50)        173.7576                                         !
 ! D129  D(39,51,52,53)        -76.1537                                         !
 ! D130  D(39,51,52,55)        160.9292                                         !
 ! D131  D(39,51,52,65)         40.618                                          !
 ! D132  D(64,51,52,53)        104.8432                                         !
 ! D133  D(64,51,52,55)        -18.0739                                         !
 ! D134  D(64,51,52,65)       -138.3851                                         !
 ! D135  D(51,52,53,54)        -10.0048                                         !
 ! D136  D(51,52,53,62)        170.6052                                         !
 ! D137  D(55,52,53,54)        113.1982                                         !
 ! D138  D(55,52,53,62)        -66.1918                                         !
 ! D139  D(65,52,53,54)       -127.4087                                         !
 ! D140  D(65,52,53,62)         53.2014                                         !
 ! D141  D(51,52,55,56)         70.0216                                         !
 ! D142  D(51,52,55,66)       -167.0903                                         !
 ! D143  D(51,52,55,67)        -52.7863                                         !
 ! D144  D(53,52,55,56)        -52.9728                                         !
 ! D145  D(53,52,55,66)         69.9153                                         !
 ! D146  D(53,52,55,67)       -175.7806                                         !
 ! D147  D(65,52,55,56)       -170.6929                                         !
 ! D148  D(65,52,55,66)        -47.8047                                         !
 ! D149  D(65,52,55,67)         66.4993                                         !
 ! D150  D(52,53,62,63)          0.7015                                         !
 ! D151  D(54,53,62,63)       -178.7222                                         !
 ! D152  D(52,55,56,57)       -106.079                                          !
 ! D153  D(52,55,56,68)         17.2605                                         !
 ! D154  D(52,55,56,69)        133.9343                                         !
 ! D155  D(66,55,56,57)        132.3421                                         !
 ! D156  D(66,55,56,68)       -104.3184                                         !
 ! D157  D(66,55,56,69)         12.3554                                         !
 ! D158  D(67,55,56,57)         15.3177                                         !
 ! D159  D(67,55,56,68)        138.6572                                         !
 ! D160  D(67,55,56,69)       -104.669                                          !
 ! D161  D(55,56,57,58)         62.199                                          !
 ! D162  D(55,56,57,70)       -176.4612                                         !
 ! D163  D(55,56,57,71)        -57.9141                                         !
 ! D164  D(68,56,57,58)        -62.4031                                         !
 ! D165  D(68,56,57,70)         58.9367                                         !
 ! D166  D(68,56,57,71)        177.4838                                         !
 ! D167  D(69,56,57,58)       -176.7581                                         !
 ! D168  D(69,56,57,70)        -55.4182                                         !
 ! D169  D(69,56,57,71)         63.1289                                         !
 ! D170  D(56,57,58,59)       -126.875                                          !
 ! D171  D(56,57,58,72)         99.435                                          !
 ! D172  D(70,57,58,59)        111.6989                                         !
 ! D173  D(70,57,58,72)        -21.9911                                         !
 ! D174  D(71,57,58,59)         -5.382                                          !
 ! D175  D(71,57,58,72)       -139.072                                          !
 ! D176  D(57,58,59,60)         43.3336                                         !
 ! D177  D(57,58,59,61)       -136.9872                                         !
 ! D178  D(72,58,59,60)        176.4597                                         !
 ! D179  D(72,58,59,61)         -3.8611                                         !
 ! D180  D(58,59,60,73)       -177.0329                                         !
 ! D181  D(61,59,60,73)          3.333                                          !
 ! D182  D(58,59,61,74)       -152.4505                                         !
 ! D183  D(58,59,61,75)        -14.4064                                         !
 ! D184  D(60,59,61,74)         27.1961                                         !
 ! D185  D(60,59,61,75)        165.2401                                         !
 --------------------------------------------------------------------------------
 Symmetry turned off by external request.
 Stoichiometry    C23H36N9O7(1+)
 Framework group  C1[X(C23H36N9O7)]
 Deg. of freedom   219
 Full point group                 C1      NOp   1
                          Input orientation:                          
 ---------------------------------------------------------------------
 Center     Atomic      Atomic             Coordinates (Angstroms)
 Number     Number       Type             X           Y           Z
 ---------------------------------------------------------------------
      1          7           0       -9.900933    1.472065   -9.554328
      2          6           0       -9.881137    0.047890  -10.061470
      3          6           0      -10.076877   -0.817291   -8.799946
      4          8           0      -11.068632   -0.525248   -8.126362
      5          6           0       -8.673413   -0.120867  -10.976859
      6          6           0       -8.776457    0.800283  -12.193932
      7          7           0       -8.153616    0.384370  -13.311190
      8          8           0       -9.375109    1.882145  -12.129869
      9          1           0      -10.757004    1.624341   -9.010749
     10          1           0      -10.804924   -0.074100  -10.635137
     11          1           0       -7.765572    0.145003  -10.433216
     12          1           0       -8.569759   -1.168531  -11.269090
     13          1           0       -8.147644    0.994275  -14.119196
     14          1           0       -7.646161   -0.487400  -13.360087
     15          1           0       -9.061903    1.606872   -8.940384
     16          1           0       -9.847167    2.075188  -10.406733
     17          7           0       -9.189595   -1.774910   -8.458197
     18          6           0       -9.498109   -2.700635   -7.359552
     19          6           0       -8.741042   -2.485609   -6.027647
     20          8           0       -8.525969   -3.466843   -5.313299
     21          6           0       -9.406545   -4.174310   -7.826349
     22          6           0       -8.025139   -4.665442   -8.211134
     23          6           0       -7.525746   -4.460365   -9.502873
     24          6           0       -7.229904   -5.371998   -7.293769
     25          6           0       -6.257793   -4.917956   -9.867836
     26          6           0       -5.969345   -5.845554   -7.658958
     27          6           0       -5.474678   -5.612671   -8.946019
     28          1           0       -8.309908   -1.889909   -8.963094
     29          1           0      -10.544415   -2.497087   -7.104579
     30          1           0       -9.807492   -4.788761   -7.017538
     31          1           0      -10.088538   -4.273155   -8.678423
     32          1           0       -8.139046   -3.948377  -10.240780
     33          1           0       -7.615643   -5.560985   -6.297513
     34          1           0       -5.889779   -4.739811  -10.874059
     35          1           0       -5.380354   -6.414056   -6.944058
     36          1           0       -4.494959   -5.985519   -9.231048
     37          7           0       -8.406601   -1.243032   -5.576217
     38          6           0       -8.439359    0.053648   -6.226746
     39          6           0       -7.372766    0.217817   -7.318204
     40          8           0       -7.512576    1.105794   -8.188735
     41          6           0       -8.248695    1.188484   -5.174740
     42          6           0       -7.036893    0.889185   -4.298299
     43          7           0       -5.846566    1.411992   -4.677057
     44          8           0       -7.158835    0.116467   -3.346966
     45          1           0       -8.032334   -1.245689   -4.627633
     46          1           0       -9.411775    0.220793   -6.691562
     47          1           0       -9.129095    1.217617   -4.529124
     48          1           0       -8.168692    2.138154   -5.712355
     49          1           0       -5.016309    0.922105   -4.351815
     50          1           0       -5.766193    1.967378   -5.516244
     51          7           0       -6.286824   -0.559002   -7.249531
     52          6           0       -5.168567   -0.385057   -8.154547
     53          6           0       -5.500999   -0.956047   -9.538363
     54          8           0       -6.477868   -1.629815   -9.786939
     55          6           0       -3.891005   -1.048522   -7.588781
     56          6           0       -3.923604   -2.596642   -7.574406
     57          6           0       -4.115941   -3.184732   -6.176102
     58          7           0       -5.400695   -2.799831   -5.555116
     59          6           0       -5.353160   -2.219256   -4.267819
     60          7           0       -4.452801   -1.325336   -4.029072
     61          7           0       -6.309298   -2.687539   -3.395231
     62          8           0       -4.623346   -0.682972  -10.519414
     63          1           0       -3.875675   -0.153730  -10.191603
     64          1           0       -6.188031   -1.305106   -6.541407
     65          1           0       -5.000678    0.692432   -8.283848
     66          1           0       -3.039710   -0.694299   -8.182583
     67          1           0       -3.740418   -0.664225   -6.573104
     68          1           0       -4.706242   -2.985555   -8.236659
     69          1           0       -2.977190   -2.984613   -7.968782
     70          1           0       -4.065204   -4.277115   -6.237837
     71          1           0       -3.317074   -2.841349   -5.515611
     72          1           0       -6.099520   -3.532206   -5.640147
     73          1           0       -4.508318   -1.035064   -3.052184
     74          1           0       -6.582224   -2.031478   -2.673692
     75          1           0       -7.087923   -3.216644   -3.779656
 ---------------------------------------------------------------------
 Rotational constants (GHZ):           0.1260721           0.0912320           0.0788825
 Standard basis: 6-31G(d) (6D, 7F)
   657 basis functions,  1236 primitive gaussians,   657 cartesian basis functions
   146 alpha electrons      146 beta electrons
       nuclear repulsion energy      5296.2622886061 Hartrees.
 NAtoms=   75 NActive=   75 NUniq=   75 SFac= 1.00D+00 NAtFMM=   60 NAOKFM=T Big=T
 Integral buffers will be    131072 words long.
 Raffenetti 2 integral format.
 Two-electron integral symmetry is turned off.
 Nuclear repulsion after empirical dispersion term =     5296.1302204476 Hartrees.
 One-electron integrals computed using PRISM.
 NBasis=   657 RedAO= T EigKep=  4.61D-04  NBF=   657
 NBsUse=   657 1.00D-06 EigRej= -1.00D+00 NBFU=   657
 Initial guess from the checkpoint file:  "conf-669.chk"
 B after Tr=     0.000000    0.000000    0.000000
         Rot=    1.000000    0.000000    0.000000    0.000000 Ang=   0.00 deg.
 Requested convergence on RMS density matrix=1.00D-08 within 128 cycles.
 Requested convergence on MAX density matrix=1.00D-06.
 Requested convergence on             energy=1.00D-06.
 No special actions if energy rises.
 SCF Done:  E(RB3LYP) =  -1917.49835862     A.U. after    3 cycles
            NFock=  3  Conv=0.88D-09     -V/T= 2.0093

 **********************************************************************

            Population analysis using the SCF Density.

 **********************************************************************

 Alpha  occ. eigenvalues --  -19.32472 -19.26908 -19.25950 -19.25367 -19.25176
 Alpha  occ. eigenvalues --  -19.23227 -19.22070 -14.56082 -14.49490 -14.48868
 Alpha  occ. eigenvalues --  -14.48474 -14.47271 -14.45742 -14.44001 -14.42249
 Alpha  occ. eigenvalues --  -14.36914 -10.44877 -10.42963 -10.42813 -10.42168
 Alpha  occ. eigenvalues --  -10.40886 -10.39757 -10.39489 -10.36809 -10.36591
 Alpha  occ. eigenvalues --  -10.36506 -10.35209 -10.33626 -10.31670 -10.30659
 Alpha  occ. eigenvalues --  -10.30274 -10.29166 -10.28757 -10.28291 -10.27942
 Alpha  occ. eigenvalues --  -10.27739 -10.27675 -10.27609 -10.27394  -1.23278
 Alpha  occ. eigenvalues --   -1.17898  -1.17064  -1.16947  -1.15246  -1.14921
 Alpha  occ. eigenvalues --   -1.13867  -1.11141  -1.06309  -1.05840  -1.05452
 Alpha  occ. eigenvalues --   -1.03797  -1.03650  -1.00826  -0.97091  -0.94483
 Alpha  occ. eigenvalues --   -0.92641  -0.92370  -0.91580  -0.89633  -0.88718
 Alpha  occ. eigenvalues --   -0.84641  -0.83936  -0.83139  -0.81614  -0.79564
 Alpha  occ. eigenvalues --   -0.77345  -0.76377  -0.74729  -0.73646  -0.73123
 Alpha  occ. eigenvalues --   -0.72239  -0.71467  -0.70352  -0.70018  -0.69638
 Alpha  occ. eigenvalues --   -0.69229  -0.69085  -0.67655  -0.67004  -0.66627
 Alpha  occ. eigenvalues --   -0.66266  -0.65367  -0.63921  -0.63746  -0.62835
 Alpha  occ. eigenvalues --   -0.62371  -0.61454  -0.61130  -0.60258  -0.60067
 Alpha  occ. eigenvalues --   -0.59843  -0.59102  -0.58886  -0.57784  -0.57391
 Alpha  occ. eigenvalues --   -0.56708  -0.56438  -0.55729  -0.55503  -0.55433
 Alpha  occ. eigenvalues --   -0.54771  -0.54449  -0.54092  -0.54027  -0.53567
 Alpha  occ. eigenvalues --   -0.53307  -0.53026  -0.52494  -0.52388  -0.51742
 Alpha  occ. eigenvalues --   -0.51171  -0.51128  -0.50620  -0.50552  -0.50298
 Alpha  occ. eigenvalues --   -0.49813  -0.49169  -0.48821  -0.48046  -0.47951
 Alpha  occ. eigenvalues --   -0.47530  -0.47254  -0.47130  -0.45319  -0.44828
 Alpha  occ. eigenvalues --   -0.44045  -0.43839  -0.43288  -0.42860  -0.42587
 Alpha  occ. eigenvalues --   -0.41220  -0.40932  -0.40138  -0.40080  -0.39848
 Alpha  occ. eigenvalues --   -0.39095  -0.38797  -0.37526  -0.36667  -0.36431
 Alpha  occ. eigenvalues --   -0.35916  -0.35200  -0.34864  -0.33694  -0.33187
 Alpha  occ. eigenvalues --   -0.31056
 Alpha virt. eigenvalues --   -0.12928  -0.12203  -0.11675  -0.10534  -0.10291
 Alpha virt. eigenvalues --   -0.09275  -0.09056  -0.08572  -0.06875  -0.05774
 Alpha virt. eigenvalues --   -0.04349  -0.03494  -0.02670  -0.01885  -0.01324
 Alpha virt. eigenvalues --   -0.00359   0.00717   0.01077   0.01204   0.01694
 Alpha virt. eigenvalues --    0.02036   0.02447   0.02679   0.03367   0.03605
 Alpha virt. eigenvalues --    0.03732   0.04127   0.04319   0.04844   0.05335
 Alpha virt. eigenvalues --    0.05467   0.05810   0.06180   0.06592   0.06683
 Alpha virt. eigenvalues --    0.06814   0.07299   0.07616   0.07846   0.07910
 Alpha virt. eigenvalues --    0.08477   0.08638   0.09157   0.09214   0.09631
 Alpha virt. eigenvalues --    0.09791   0.10036   0.10422   0.10636   0.11084
 Alpha virt. eigenvalues --    0.11321   0.12196   0.12846   0.13332   0.13375
 Alpha virt. eigenvalues --    0.13630   0.14144   0.14246   0.14941   0.16064
 Alpha virt. eigenvalues --    0.17160   0.17546   0.17737   0.20344   0.21125
 Alpha virt. eigenvalues --    0.21889   0.22249   0.22721   0.23418   0.23504
 Alpha virt. eigenvalues --    0.23964   0.24255   0.24813   0.25733   0.26178
 Alpha virt. eigenvalues --    0.27221   0.27843   0.28492   0.29697   0.30802
 Alpha virt. eigenvalues --    0.31781   0.32545   0.34444   0.35592   0.37058
 Alpha virt. eigenvalues --    0.37525   0.38312   0.38992   0.39165   0.39340
 Alpha virt. eigenvalues --    0.39740   0.40922   0.41569   0.42598   0.43002
 Alpha virt. eigenvalues --    0.43347   0.43988   0.44888   0.45503   0.45999
 Alpha virt. eigenvalues --    0.46101   0.46452   0.46897   0.47216   0.47515
 Alpha virt. eigenvalues --    0.48205   0.48410   0.48812   0.49211   0.49234
 Alpha virt. eigenvalues --    0.49742   0.50158   0.50369   0.50430   0.51048
 Alpha virt. eigenvalues --    0.51485   0.51716   0.52841   0.52852   0.53090
 Alpha virt. eigenvalues --    0.53258   0.53300   0.53912   0.54926   0.55063
 Alpha virt. eigenvalues --    0.55195   0.55420   0.55883   0.56531   0.57026
 Alpha virt. eigenvalues --    0.57353   0.57930   0.58775   0.59067   0.60552
 Alpha virt. eigenvalues --    0.60659   0.61335   0.61420   0.61944   0.62142
 Alpha virt. eigenvalues --    0.63606   0.63660   0.64144   0.64969   0.65529
 Alpha virt. eigenvalues --    0.65925   0.66134   0.66609   0.67369   0.67758
 Alpha virt. eigenvalues --    0.68052   0.68935   0.69535   0.70062   0.70133
 Alpha virt. eigenvalues --    0.70861   0.71388   0.71779   0.72225   0.72950
 Alpha virt. eigenvalues --    0.73442   0.73883   0.74017   0.74708   0.74831
 Alpha virt. eigenvalues --    0.75402   0.75696   0.75883   0.76073   0.76475
 Alpha virt. eigenvalues --    0.76907   0.76969   0.77755   0.78196   0.78380
 Alpha virt. eigenvalues --    0.78824   0.79240   0.79812   0.80328   0.80823
 Alpha virt. eigenvalues --    0.81144   0.81543   0.81734   0.82039   0.82640
 Alpha virt. eigenvalues --    0.83117   0.83555   0.84202   0.84615   0.84772
 Alpha virt. eigenvalues --    0.85289   0.85966   0.86017   0.86504   0.86913
 Alpha virt. eigenvalues --    0.87644   0.87785   0.88197   0.88967   0.89026
 Alpha virt. eigenvalues --    0.89334   0.90296   0.90493   0.91174   0.92230
 Alpha virt. eigenvalues --    0.92872   0.93754   0.94633   0.94908   0.95908
 Alpha virt. eigenvalues --    0.96132   0.96564   0.97447   0.98324   0.98667
 Alpha virt. eigenvalues --    0.99670   1.00045   1.00369   1.01728   1.02493
 Alpha virt. eigenvalues --    1.02853   1.03977   1.04543   1.04812   1.05399
 Alpha virt. eigenvalues --    1.06032   1.06759   1.07087   1.08425   1.09656
 Alpha virt. eigenvalues --    1.10311   1.10493   1.11358   1.12269   1.13311
 Alpha virt. eigenvalues --    1.13582   1.14520   1.15027   1.15368   1.15577
 Alpha virt. eigenvalues --    1.17021   1.17499   1.18182   1.18769   1.20707
 Alpha virt. eigenvalues --    1.20971   1.21250   1.22744   1.23017   1.23419
 Alpha virt. eigenvalues --    1.24600   1.25788   1.26426   1.26880   1.27521
 Alpha virt. eigenvalues --    1.28315   1.28779   1.29259   1.30235   1.31491
 Alpha virt. eigenvalues --    1.32096   1.32478   1.33220   1.34010   1.34374
 Alpha virt. eigenvalues --    1.35368   1.35598   1.36421   1.37556   1.38086
 Alpha virt. eigenvalues --    1.38888   1.39835   1.40263   1.40335   1.40813
 Alpha virt. eigenvalues --    1.41159   1.41584   1.42712   1.43152   1.44192
 Alpha virt. eigenvalues --    1.46711   1.47954   1.48980   1.50150   1.51243
 Alpha virt. eigenvalues --    1.51993   1.52454   1.53612   1.53950   1.55649
 Alpha virt. eigenvalues --    1.56432   1.56807   1.57947   1.58440   1.59835
 Alpha virt. eigenvalues --    1.60608   1.61385   1.61689   1.62778   1.63616
 Alpha virt. eigenvalues --    1.63638   1.64139   1.64602   1.65370   1.66272
 Alpha virt. eigenvalues --    1.67036   1.67368   1.67685   1.68868   1.69002
 Alpha virt. eigenvalues --    1.70190   1.70918   1.71297   1.71594   1.72330
 Alpha virt. eigenvalues --    1.72637   1.73368   1.73628   1.74075   1.74295
 Alpha virt. eigenvalues --    1.74969   1.75586   1.76140   1.76336   1.77867
 Alpha virt. eigenvalues --    1.78156   1.79168   1.79404   1.79542   1.80557
 Alpha virt. eigenvalues --    1.80836   1.81351   1.81596   1.82351   1.83497
 Alpha virt. eigenvalues --    1.83633   1.83953   1.84769   1.85267   1.85430
 Alpha virt. eigenvalues --    1.86042   1.86972   1.87723   1.88037   1.88809
 Alpha virt. eigenvalues --    1.89217   1.89575   1.90431   1.91030   1.91187
 Alpha virt. eigenvalues --    1.92702   1.92826   1.93678   1.94711   1.95285
 Alpha virt. eigenvalues --    1.95647   1.97230   1.97903   1.98217   1.98403
 Alpha virt. eigenvalues --    1.99277   1.99731   2.00379   2.00456   2.01056
 Alpha virt. eigenvalues --    2.02105   2.02576   2.03755   2.05626   2.05759
 Alpha virt. eigenvalues --    2.06177   2.06677   2.07403   2.08086   2.09228
 Alpha virt. eigenvalues --    2.09691   2.11034   2.11426   2.11713   2.13219
 Alpha virt. eigenvalues --    2.14659   2.14994   2.16634   2.17169   2.18406
 Alpha virt. eigenvalues --    2.19322   2.19787   2.19863   2.20033   2.20642
 Alpha virt. eigenvalues --    2.22321   2.22869   2.23918   2.24257   2.25031
 Alpha virt. eigenvalues --    2.26077   2.26785   2.27803   2.29806   2.30641
 Alpha virt. eigenvalues --    2.30804   2.30916   2.31844   2.33000   2.33272
 Alpha virt. eigenvalues --    2.33781   2.34879   2.35748   2.36237   2.36851
 Alpha virt. eigenvalues --    2.37749   2.38983   2.39593   2.41366   2.42107
 Alpha virt. eigenvalues --    2.43805   2.44046   2.45212   2.46975   2.47962
 Alpha virt. eigenvalues --    2.48828   2.49635   2.49710   2.50362   2.51290
 Alpha virt. eigenvalues --    2.51821   2.52122   2.52497   2.53445   2.54840
 Alpha virt. eigenvalues --    2.55851   2.56770   2.57108   2.58168   2.58471
 Alpha virt. eigenvalues --    2.60081   2.60752   2.61684   2.61982   2.63859
 Alpha virt. eigenvalues --    2.64823   2.65356   2.66171   2.66420   2.66802
 Alpha virt. eigenvalues --    2.69009   2.69924   2.70610   2.72823   2.72936
 Alpha virt. eigenvalues --    2.76089   2.78983   2.81233   2.81999   2.83347
 Alpha virt. eigenvalues --    2.86989   2.88771   2.89684   2.90582   2.91763
 Alpha virt. eigenvalues --    2.92349   2.93700   2.95638   2.96326   2.96873
 Alpha virt. eigenvalues --    2.97526   2.98636   2.99219   3.03274   3.06732
 Alpha virt. eigenvalues --    3.10859   3.32309   3.69203   3.72904   3.73408
 Alpha virt. eigenvalues --    3.75783   3.78681   3.86275   3.91844   3.96720
 Alpha virt. eigenvalues --    3.98109   3.98882   4.00836   4.03452   4.05941
 Alpha virt. eigenvalues --    4.07313   4.09625   4.10436   4.10584   4.12272
 Alpha virt. eigenvalues --    4.14556   4.15687   4.18261   4.22154   4.23548
 Alpha virt. eigenvalues --    4.25971   4.27557   4.27899   4.30010   4.34258
 Alpha virt. eigenvalues --    4.39101   4.40968   4.42276   4.43426   4.48396
 Alpha virt. eigenvalues --    4.50680   4.58691   4.60281   4.62021   4.67169
 Alpha virt. eigenvalues --    4.73232
          Condensed to atoms (all electrons):
 Mulliken charges:
               1
     1  N   -0.771407
     2  C   -0.106206
     3  C    0.611439
     4  O   -0.521943
     5  C   -0.418042
     6  C    0.641702
     7  N   -0.734945
     8  O   -0.535885
     9  H    0.406715
    10  H    0.231389
    11  H    0.234242
    12  H    0.198449
    13  H    0.374947
    14  H    0.368111
    15  H    0.428872
    16  H    0.432525
    17  N   -0.651820
    18  C   -0.087655
    19  C    0.629882
    20  O   -0.526912
    21  C   -0.351538
    22  C    0.147772
    23  C   -0.173391
    24  C   -0.197994
    25  C   -0.123856
    26  C   -0.139379
    27  C   -0.136830
    28  H    0.420838
    29  H    0.230436
    30  H    0.194508
    31  H    0.163435
    32  H    0.114847
    33  H    0.165912
    34  H    0.141535
    35  H    0.151855
    36  H    0.148309
    37  N   -0.650210
    38  C   -0.059780
    39  C    0.634398
    40  O   -0.611882
    41  C   -0.377158
    42  C    0.586440
    43  N   -0.729785
    44  O   -0.523053
    45  H    0.383762
    46  H    0.195510
    47  H    0.211943
    48  H    0.176283
    49  H    0.378376
    50  H    0.340094
    51  N   -0.614929
    52  C   -0.100349
    53  C    0.649284
    54  O   -0.475522
    55  C   -0.320526
    56  C   -0.306118
    57  C   -0.137923
    58  N   -0.668350
    59  C    0.591601
    60  N   -0.677265
    61  N   -0.772593
    62  O   -0.552632
    63  H    0.433517
    64  H    0.439195
    65  H    0.179863
    66  H    0.145768
    67  H    0.214237
    68  H    0.175474
    69  H    0.161170
    70  H    0.156817
    71  H    0.200923
    72  H    0.352038
    73  H    0.293927
    74  H    0.357856
    75  H    0.359679
 Sum of Mulliken charges =   1.00000
 Mulliken charges with hydrogens summed into heavy atoms:
               1
     1  N    0.496705
     2  C    0.125183
     3  C    0.611439
     4  O   -0.521943
     5  C    0.014649
     6  C    0.641702
     7  N    0.008114
     8  O   -0.535885
    17  N   -0.230982
    18  C    0.142781
    19  C    0.629882
    20  O   -0.526912
    21  C    0.006405
    22  C    0.147772
    23  C   -0.058544
    24  C   -0.032082
    25  C    0.017679
    26  C    0.012476
    27  C    0.011479
    37  N   -0.266449
    38  C    0.135729
    39  C    0.634398
    40  O   -0.611882
    41  C    0.011069
    42  C    0.586440
    43  N   -0.011315
    44  O   -0.523053
    51  N   -0.175734
    52  C    0.079514
    53  C    0.649284
    54  O   -0.475522
    55  C    0.039479
    56  C    0.030526
    57  C    0.219817
    58  N   -0.316311
    59  C    0.591601
    60  N   -0.383339
    61  N   -0.055058
    62  O   -0.119115
 Electronic spatial extent (au):  <R**2>=         134483.8464
 Charge=              1.0000 electrons
 Dipole moment (field-independent basis, Debye):
    X=            -34.6463    Y=             -1.1297    Z=            -45.4313  Tot=             57.1458
 Quadrupole moment (field-independent basis, Debye-Ang):
   XX=             56.2472   YY=           -202.1938   ZZ=            233.5508
   XY=             -0.2295   XZ=            331.2619   YZ=             12.6894
 Traceless Quadrupole moment (field-independent basis, Debye-Ang):
   XX=             27.0458   YY=           -231.3952   ZZ=            204.3494
   XY=             -0.2295   XZ=            331.2619   YZ=             12.6894
 Octapole moment (field-independent basis, Debye-Ang**2):
  XXX=           2447.7543  YYY=            952.4403  ZZZ=            219.6589  XYY=           1490.9802
  XXY=            391.0963  XXZ=           -982.2792  XZZ=          -1757.0295  YZZ=            194.1277
  YYZ=           1570.5173  XYZ=            -31.2854
 Hexadecapole moment (field-independent basis, Debye-Ang**3):
 XXXX=         -54269.0157 YYYY=          -9269.8103 ZZZZ=         -30441.3931 XXXY=          -7449.4042
 XXXZ=         -14827.8712 YYYX=          -6480.4282 YYYZ=          -6993.0657 ZZZX=          -1353.0814
 ZZZY=          -5796.3393 XXYY=         -13188.7633 XXZZ=            361.4649 YYZZ=         -15220.8213
 XXYZ=          -2560.3624 YYXZ=         -11899.3462 ZZXY=          -1528.3953
 N-N= 5.296130220448D+03 E-N=-1.503068630435D+04  KE= 1.899818665103D+03
 Unable to Open any file for archive entry.
 1\1\GINC-NAL-002\SP\RB3LYP\6-31G(d)\C23H36N9O7(1+)\KENGMITH\06-Jun-202
 2\0\\# B3LYP/6-31G* empiricaldispersion=gd3 guess=read geom=check nosy
 mm integral(ultrafinegrid)\\Candidate Structure: Conf:669 Charge calc 
 in gas phase\\1,1\N,0,-9.9009325646,1.472065319,-9.55432817\C,0,-9.881
 13677,0.0478899366,-10.0614701089\C,0,-10.0768773938,-0.8172906887,-8.
 799945664\O,0,-11.0686322353,-0.525248256,-8.1263617441\C,0,-8.6734125
 937,-0.1208673616,-10.9768592171\C,0,-8.7764568372,0.8002827916,-12.19
 39317517\N,0,-8.1536155192,0.3843703877,-13.3111901743\O,0,-9.37510914
 98,1.8821449684,-12.129869069\H,0,-10.7570038817,1.6243407315,-9.01074
 91867\H,0,-10.8049244622,-0.0741002392,-10.6351374\H,0,-7.7655717985,0
 .1450027085,-10.4332160211\H,0,-8.5697590791,-1.1685313735,-11.2690895
 013\H,0,-8.147644483,0.9942745195,-14.1191958805\H,0,-7.6461608457,-0.
 4874000475,-13.3600873646\H,0,-9.0619030702,1.6068722651,-8.9403839404
 \H,0,-9.8471669156,2.0751877993,-10.4067328734\N,0,-9.1895947261,-1.77
 49102428,-8.4581973248\C,0,-9.4981085776,-2.7006350824,-7.3595519056\C
 ,0,-8.7410418944,-2.4856088568,-6.0276473449\O,0,-8.5259691908,-3.4668
 427345,-5.3132985935\C,0,-9.4065454334,-4.1743098921,-7.8263489871\C,0
 ,-8.0251391934,-4.6654421191,-8.2111343739\C,0,-7.525746243,-4.4603652
 827,-9.5028730529\C,0,-7.2299043225,-5.3719979135,-7.2937693172\C,0,-6
 .2577926719,-4.9179561381,-9.8678355432\C,0,-5.9693449124,-5.845554013
 3,-7.658957993\C,0,-5.4746784287,-5.6126712921,-8.9460194005\H,0,-8.30
 99080006,-1.8899090612,-8.9630939383\H,0,-10.5444149792,-2.497086734,-
 7.1045791817\H,0,-9.8074924774,-4.7887609543,-7.0175379363\H,0,-10.088
 5377709,-4.2731551862,-8.6784225978\H,0,-8.1390460473,-3.9483768631,-1
 0.2407799045\H,0,-7.6156432005,-5.5609847027,-6.2975127626\H,0,-5.8897
 794509,-4.7398113516,-10.8740593852\H,0,-5.3803536666,-6.4140561776,-6
 .9440583201\H,0,-4.4949587903,-5.9855193575,-9.2310483825\N,0,-8.40660
 14025,-1.2430322621,-5.5762167256\C,0,-8.4393594606,0.0536482856,-6.22
 67462371\C,0,-7.3727657196,0.2178173628,-7.3182040461\O,0,-7.512575754
 ,1.1057941458,-8.1887348808\C,0,-8.2486947056,1.1884840429,-5.17473984
 23\C,0,-7.0368929752,0.8891852042,-4.2982990532\N,0,-5.8465659039,1.41
 19917715,-4.6770566922\O,0,-7.1588354176,0.1164670358,-3.3469664826\H,
 0,-8.0323340444,-1.2456890413,-4.627633351\H,0,-9.4117749936,0.2207930
 337,-6.6915617229\H,0,-9.1290954854,1.2176167387,-4.529124485\H,0,-8.1
 686924151,2.1381544036,-5.7123552815\H,0,-5.0163087441,0.9221047034,-4
 .3518145434\H,0,-5.766192925,1.9673784031,-5.5162444084\N,0,-6.2868238
 223,-0.5590022181,-7.2495313969\C,0,-5.1685665703,-0.3850570528,-8.154
 5469633\C,0,-5.5009991045,-0.9560469119,-9.5383633018\O,0,-6.477867676
 8,-1.6298147559,-9.7869393077\C,0,-3.89100536,-1.0485224434,-7.5887807
 816\C,0,-3.9236040204,-2.5966423627,-7.5744057706\C,0,-4.1159414337,-3
 .1847317145,-6.1761023603\N,0,-5.4006953289,-2.799831221,-5.5551160735
 \C,0,-5.3531603749,-2.2192561881,-4.2678189617\N,0,-4.4528005508,-1.32
 53361375,-4.0290722546\N,0,-6.3092982252,-2.6875390435,-3.3952307441\O
 ,0,-4.6233456531,-0.6829717266,-10.5194136772\H,0,-3.8756753501,-0.153
 730352,-10.1916025593\H,0,-6.188030989,-1.3051064001,-6.5414071778\H,0
 ,-5.0006780685,0.6924320856,-8.2838475128\H,0,-3.0397100563,-0.6942985
 549,-8.182582928\H,0,-3.7404178221,-0.664225366,-6.57310434\H,0,-4.706
 2417945,-2.9855550884,-8.236658519\H,0,-2.9771904929,-2.9846127625,-7.
 9687820656\H,0,-4.0652044237,-4.2771151325,-6.2378367047\H,0,-3.317073
 7514,-2.8413489415,-5.5156114179\H,0,-6.0995196384,-3.5322063401,-5.64
 01466817\H,0,-4.5083177394,-1.0350637083,-3.0521843286\H,0,-6.58222359
 59,-2.0314778411,-2.6736919834\H,0,-7.087923073,-3.216644195,-3.779655
 553\\Version=ES64L-G16RevC.01\HF=-1917.4983586\RMSD=8.765e-10\Dipole=0
 .0594385,2.2697677,-3.3235944\Quadrupole=20.1078959,-172.0366641,151.9
 287683,-0.1706609,246.2850891,9.4342452\PG=C01 [X(C23H36N9O7)]\\@
 The archive entry for this job was punched.


 I take a simple view of life: keep your eyes open and get on with it.
 -- Laurence Olivier
 Job cpu time:       0 days  0 hours  4 minutes 42.4 seconds.
 Elapsed time:       0 days  0 hours  1 minutes 13.3 seconds.
 File lengths (MBytes):  RWF=   4776 Int=      0 D2E=      0 Chk=     48 Scr=     16
 Normal termination of Gaussian 16 at Mon Jun  6 02:42:12 2022.
