 Entering Gaussian System, Link 0=/opt/software/Gaussian/g16-AVX2-C.01/g16/g16
 Input=charge-conf-727.com
 Output=charge-conf-727.log
 Initial command:
 /opt/software/Gaussian/g16-AVX2-C.01/g16/l1.exe "/mnt/gs18/scratch/users/kengmith/Gau-44978.inp" -scrdir="/mnt/gs18/scratch/users/kengmith/"
 Entering Link 1 = /opt/software/Gaussian/g16-AVX2-C.01/g16/l1.exe PID=     45023.
  
 Copyright (c) 1988-2019, Gaussian, Inc.  All Rights Reserved.
  
 This is part of the Gaussian(R) 16 program.  It is based on
 the Gaussian(R) 09 system (copyright 2009, Gaussian, Inc.),
 the Gaussian(R) 03 system (copyright 2003, Gaussian, Inc.),
 the Gaussian(R) 98 system (copyright 1998, Gaussian, Inc.),
 the Gaussian(R) 94 system (copyright 1995, Gaussian, Inc.),
 the Gaussian 92(TM) system (copyright 1992, Gaussian, Inc.),
 the Gaussian 90(TM) system (copyright 1990, Gaussian, Inc.),
 the Gaussian 88(TM) system (copyright 1988, Gaussian, Inc.),
 the Gaussian 86(TM) system (copyright 1986, Carnegie Mellon
 University), and the Gaussian 82(TM) system (copyright 1983,
 Carnegie Mellon University). Gaussian is a federally registered
 trademark of Gaussian, Inc.
  
 This software contains proprietary and confidential information,
 including trade secrets, belonging to Gaussian, Inc.
  
 This software is provided under written license and may be
 used, copied, transmitted, or stored only in accord with that
 written license.
  
 The following legend is applicable only to US Government
 contracts under FAR:
  
                    RESTRICTED RIGHTS LEGEND
  
 Use, reproduction and disclosure by the US Government is
 subject to restrictions as set forth in subparagraphs (a)
 and (c) of the Commercial Computer Software - Restricted
 Rights clause in FAR 52.227-19.
  
 Gaussian, Inc.
 340 Quinnipiac St., Bldg. 40, Wallingford CT 06492
  
  
 ---------------------------------------------------------------
 Warning -- This program may not be used in any manner that
 competes with the business of Gaussian, Inc. or will provide
 assistance to any competitor of Gaussian, Inc.  The licensee
 of this program is prohibited from giving any competitor of
 Gaussian, Inc. access to this program.  By using this program,
 the user acknowledges that Gaussian, Inc. is engaged in the
 business of creating and licensing software in the field of
 computational chemistry and represents and warrants to the
 licensee that it is not a competitor of Gaussian, Inc. and that
 it will not use this program in any manner prohibited above.
 ---------------------------------------------------------------
  

 Cite this work as:
 Gaussian 16, Revision C.01,
 M. J. Frisch, G. W. Trucks, H. B. Schlegel, G. E. Scuseria, 
 M. A. Robb, J. R. Cheeseman, G. Scalmani, V. Barone, 
 G. A. Petersson, H. Nakatsuji, X. Li, M. Caricato, A. V. Marenich, 
 J. Bloino, B. G. Janesko, R. Gomperts, B. Mennucci, H. P. Hratchian, 
 J. V. Ortiz, A. F. Izmaylov, J. L. Sonnenberg, D. Williams-Young, 
 F. Ding, F. Lipparini, F. Egidi, J. Goings, B. Peng, A. Petrone, 
 T. Henderson, D. Ranasinghe, V. G. Zakrzewski, J. Gao, N. Rega, 
 G. Zheng, W. Liang, M. Hada, M. Ehara, K. Toyota, R. Fukuda, 
 J. Hasegawa, M. Ishida, T. Nakajima, Y. Honda, O. Kitao, H. Nakai, 
 T. Vreven, K. Throssell, J. A. Montgomery, Jr., J. E. Peralta, 
 F. Ogliaro, M. J. Bearpark, J. J. Heyd, E. N. Brothers, K. N. Kudin, 
 V. N. Staroverov, T. A. Keith, R. Kobayashi, J. Normand, 
 K. Raghavachari, A. P. Rendell, J. C. Burant, S. S. Iyengar, 
 J. Tomasi, M. Cossi, J. M. Millam, M. Klene, C. Adamo, R. Cammi, 
 J. W. Ochterski, R. L. Martin, K. Morokuma, O. Farkas, 
 J. B. Foresman, and D. J. Fox, Gaussian, Inc., Wallingford CT, 2019.
 
 ******************************************
 Gaussian 16:  ES64L-G16RevC.01  3-Jul-2019
                 6-Jun-2022 
 ******************************************
 %mem=8gb
 %nproc=4
 Will use up to    4 processors via shared memory.
 %chk=conf-727.chk
 ----------------------------------------------------------------------
 # B3LYP/6-31G* empiricaldispersion=gd3 guess=read geom=check nosymm in
 tegral(ultrafinegrid)
 ----------------------------------------------------------------------
 1/29=2,38=1,172=1/1;
 2/12=2,15=1,40=1/2;
 3/5=1,6=6,7=1,11=2,14=-4,25=1,30=1,74=-5,75=-5,116=-2,124=31/1,2,3;
 4/5=1/1;
 5/5=2,38=6/2;
 6/7=2,8=2,9=2,10=2,28=1/1;
 99/5=1,9=1/99;
 ------------------------------------------------------
 Candidate Structure: Conf:727 Charge calc in gas phase
 ------------------------------------------------------
 Structure from the checkpoint file:  "conf-727.chk"
 Charge =  1 Multiplicity = 1
 Redundant internal coordinates found in file.  (old form).
 N,0,-10.746331302,-3.8123215586,-8.2510503017
 C,0,-9.3258737688,-4.2917495661,-8.3946453209
 C,0,-8.7012221747,-4.1096244805,-6.9990463292
 O,0,-9.3786605656,-4.4179586711,-6.0200101921
 C,0,-8.6315771257,-3.5732524918,-9.5456373909
 C,0,-9.4086655134,-3.6399546884,-10.8604407561
 N,0,-8.7291867908,-3.1886610222,-11.9334931129
 O,0,-10.5700220508,-4.0553682393,-10.9178297937
 H,0,-11.1986536331,-4.3205030293,-7.4838442391
 H,0,-9.3878431105,-5.3658287049,-8.5963407303
 H,0,-8.460672395,-2.5251138904,-9.2966769124
 H,0,-7.639753737,-4.0154682843,-9.6940762428
 H,0,-9.1919942029,-3.1747774335,-12.833101959
 H,0,-7.7998394384,-2.7982679409,-11.8421208126
 H,0,-10.7274489342,-2.7903847806,-8.0060211075
 H,0,-11.2046229384,-3.9619849037,-9.1717871829
 N,0,-7.4702182091,-3.5628933917,-6.9393077016
 C,0,-6.6850041309,-3.4775209256,-5.7091103508
 C,0,-6.3015919503,-2.0180590872,-5.3583070733
 O,0,-5.1748053432,-1.7677715235,-4.9364174991
 C,0,-5.4291884675,-4.3829423727,-5.8257181053
 C,0,-4.6348520211,-4.1354320001,-7.0937620874
 C,0,-4.9827186309,-4.7864466251,-8.28926939
 C,0,-3.566972196,-3.2274964182,-7.1200991125
 C,0,-4.3127977072,-4.509285814,-9.4837900393
 C,0,-2.8885966853,-2.9550403069,-8.3100804969
 C,0,-3.2686428339,-3.5832451322,-9.4989600126
 H,0,-6.9731042052,-3.3412522187,-7.7931034165
 H,0,-7.3277466933,-3.8567422374,-4.9076673843
 H,0,-4.8126468853,-4.2160737138,-4.9403322515
 H,0,-5.7800955586,-5.4203143002,-5.8013485313
 H,0,-5.7695646987,-5.538625463,-8.2763676237
 H,0,-3.2686135682,-2.7462586466,-6.1957124923
 H,0,-4.5900665755,-5.0341334879,-10.3941767824
 H,0,-2.050199841,-2.2629362188,-8.3045275775
 H,0,-2.7375015979,-3.372952789,-10.4226989602
 N,0,-7.2265835236,-1.0241717127,-5.5082812128
 C,0,-8.6487172056,-1.1119999173,-5.8001499805
 C,0,-9.0122345402,-0.8588072008,-7.2774708992
 O,0,-10.1296214609,-1.2240528537,-7.6934378558
 C,0,-9.4543778761,-0.154258126,-4.8836721391
 C,0,-8.9802906359,1.2853646189,-5.0558352837
 N,0,-8.3745624916,1.8566167921,-3.9878294292
 O,0,-9.1198062836,1.8563953472,-6.1347840261
 H,0,-6.8334170076,-0.092341756,-5.3253444645
 H,0,-9.0130463696,-2.1126413662,-5.5680987992
 H,0,-9.3659974986,-0.5096197168,-3.8522128117
 H,0,-10.5056809063,-0.205989739,-5.1802828809
 H,0,-7.8588400876,2.7131103234,-4.1472198727
 H,0,-8.1427996021,1.3254343755,-3.1614107766
 N,0,-8.100608403,-0.2724304912,-8.0676410045
 C,0,-8.4475196012,0.3078959683,-9.3574447733
 C,0,-7.5116025473,-0.2168988642,-10.4425626741
 O,0,-6.8086069072,-1.2092848576,-10.3596120916
 C,0,-8.5686183209,1.8513378049,-9.3180971593
 C,0,-7.2743446599,2.6807374781,-9.2197311535
 C,0,-6.473751978,2.5821493682,-7.9165603461
 N,0,-5.6920156518,1.3302285544,-7.8642738399
 C,0,-5.0267783818,0.9945944483,-6.677216014
 N,0,-5.4707694631,1.4337641673,-5.5464735689
 N,0,-3.9386857065,0.1579805319,-6.8651209846
 O,0,-7.5932532102,0.5230089702,-11.5609191175
 H,0,-6.988496521,0.1354009995,-12.2218935141
 H,0,-7.2157994195,0.0643351458,-7.6827480624
 H,0,-9.438949819,-0.0874624167,-9.6125101038
 H,0,-9.088985093,2.1477051501,-10.2345882858
 H,0,-9.2212394014,2.0865204398,-8.4739769637
 H,0,-6.6232824962,2.4684755495,-10.0804180325
 H,0,-7.5699564299,3.7303679931,-9.3320663825
 H,0,-5.7987749368,3.443786248,-7.8267086027
 H,0,-7.1438054369,2.5962173739,-7.0574910521
 H,0,-5.0902754744,1.230659202,-8.6773593066
 H,0,-4.9050830886,1.0571827271,-4.7841336953
 H,0,-3.7385240068,-0.409383105,-6.0487316558
 H,0,-3.9588638063,-0.4222305462,-7.6980071109
 Recover connectivity data from disk.
                           ----------------------------
                           !    Current Parameters    !
                           ! (Angstroms and Degrees)  !
 --------------------------                            --------------------------
 ! Name  Definition              Value                                          !
 --------------------------------------------------------------------------------
 ! R1    R(1,2)                  1.506                                          !
 ! R2    R(1,9)                  1.0254                                         !
 ! R3    R(1,15)                 1.0511                                         !
 ! R4    R(1,16)                 1.0393                                         !
 ! R5    R(2,3)                  1.5398                                         !
 ! R6    R(2,5)                  1.5242                                         !
 ! R7    R(2,10)                 1.0946                                         !
 ! R8    R(3,4)                  1.2298                                         !
 ! R9    R(3,17)                 1.3483                                         !
 ! R10   R(5,6)                  1.5287                                         !
 ! R11   R(5,11)                 1.0908                                         !
 ! R12   R(5,12)                 1.096                                          !
 ! R13   R(6,7)                  1.3479                                         !
 ! R14   R(6,8)                  1.2348                                         !
 ! R15   R(7,13)                 1.0118                                         !
 ! R16   R(7,14)                 1.0121                                         !
 ! R17   R(17,18)                1.4619                                         !
 ! R18   R(17,28)                1.0125                                         !
 ! R19   R(18,19)                1.5492                                         !
 ! R20   R(18,21)                1.5526                                         !
 ! R21   R(18,29)                1.0951                                         !
 ! R22   R(19,20)                1.2289                                         !
 ! R23   R(19,37)                1.366                                          !
 ! R24   R(21,22)                1.5166                                         !
 ! R25   R(21,30)                1.0917                                         !
 ! R26   R(21,31)                1.0954                                         !
 ! R27   R(22,23)                1.405                                          !
 ! R28   R(22,24)                1.4019                                         !
 ! R29   R(23,25)                1.3973                                         !
 ! R30   R(23,32)                1.0886                                         !
 ! R31   R(24,26)                1.3966                                         !
 ! R32   R(24,33)                1.084                                          !
 ! R33   R(25,27)                1.3957                                         !
 ! R34   R(25,34)                1.0868                                         !
 ! R35   R(26,27)                1.3973                                         !
 ! R36   R(26,35)                1.0872                                         !
 ! R37   R(27,36)                1.0861                                         !
 ! R38   R(37,38)                1.4544                                         !
 ! R39   R(37,45)                1.0278                                         !
 ! R40   R(38,39)                1.5423                                         !
 ! R41   R(38,41)                1.5512                                         !
 ! R42   R(38,46)                1.0899                                         !
 ! R43   R(39,40)                1.247                                          !
 ! R44   R(39,51)                1.3414                                         !
 ! R45   R(41,42)                1.5254                                         !
 ! R46   R(41,47)                1.0945                                         !
 ! R47   R(41,48)                1.0936                                         !
 ! R48   R(42,43)                1.3542                                         !
 ! R49   R(42,44)                1.2287                                         !
 ! R50   R(43,49)                1.0124                                         !
 ! R51   R(43,50)                1.0094                                         !
 ! R52   R(51,52)                1.4563                                         !
 ! R53   R(51,64)                1.022                                          !
 ! R54   R(52,53)                1.5261                                         !
 ! R55   R(52,55)                1.5487                                         !
 ! R56   R(52,65)                1.0974                                         !
 ! R57   R(53,54)                1.219                                          !
 ! R58   R(53,62)                1.3434                                         !
 ! R59   R(55,56)                1.5404                                         !
 ! R60   R(55,66)                1.0948                                         !
 ! R61   R(55,67)                1.0926                                         !
 ! R62   R(56,57)                1.5326                                         !
 ! R63   R(56,68)                1.0999                                         !
 ! R64   R(56,69)                1.0962                                         !
 ! R65   R(57,58)                1.4769                                         !
 ! R66   R(57,70)                1.0982                                         !
 ! R67   R(57,71)                1.0896                                         !
 ! R68   R(58,59)                1.4015                                         !
 ! R69   R(58,72)                1.0164                                         !
 ! R70   R(59,60)                1.2917                                         !
 ! R71   R(59,61)                1.3853                                         !
 ! R72   R(60,73)                1.0213                                         !
 ! R73   R(61,74)                1.0141                                         !
 ! R74   R(61,75)                1.0153                                         !
 ! R75   R(62,63)                0.9761                                         !
 ! A1    A(2,1,9)              109.2458                                         !
 ! A2    A(2,1,15)             108.3485                                         !
 ! A3    A(2,1,16)             106.5939                                         !
 ! A4    A(9,1,15)             108.3824                                         !
 ! A5    A(9,1,16)             113.388                                          !
 ! A6    A(15,1,16)            110.7601                                         !
 ! A7    A(1,2,3)              104.9837                                         !
 ! A8    A(1,2,5)              110.5838                                         !
 ! A9    A(1,2,10)             106.0537                                         !
 ! A10   A(3,2,5)              116.3521                                         !
 ! A11   A(3,2,10)             107.82                                           !
 ! A12   A(5,2,10)             110.4386                                         !
 ! A13   A(2,3,4)              117.9304                                         !
 ! A14   A(2,3,17)             117.2903                                         !
 ! A15   A(4,3,17)             124.7025                                         !
 ! A16   A(2,5,6)              113.4135                                         !
 ! A17   A(2,5,11)             110.6092                                         !
 ! A18   A(2,5,12)             108.9226                                         !
 ! A19   A(6,5,11)             108.5344                                         !
 ! A20   A(6,5,12)             109.0204                                         !
 ! A21   A(11,5,12)            106.0708                                         !
 ! A22   A(5,6,7)              114.4461                                         !
 ! A23   A(5,6,8)              122.1922                                         !
 ! A24   A(7,6,8)              123.3522                                         !
 ! A25   A(6,7,13)             118.8064                                         !
 ! A26   A(6,7,14)             121.3417                                         !
 ! A27   A(13,7,14)            119.6683                                         !
 ! A28   A(3,17,18)            123.46                                           !
 ! A29   A(3,17,28)            119.9776                                         !
 ! A30   A(18,17,28)           115.6636                                         !
 ! A31   A(17,18,19)           112.2399                                         !
 ! A32   A(17,18,21)           109.7058                                         !
 ! A33   A(17,18,29)           106.2826                                         !
 ! A34   A(19,18,21)           111.4822                                         !
 ! A35   A(19,18,29)           107.8042                                         !
 ! A36   A(21,18,29)           109.133                                          !
 ! A37   A(18,19,20)           119.7695                                         !
 ! A38   A(18,19,37)           119.5374                                         !
 ! A39   A(20,19,37)           120.6893                                         !
 ! A40   A(18,21,22)           113.0333                                         !
 ! A41   A(18,21,30)           107.8634                                         !
 ! A42   A(18,21,31)           106.9478                                         !
 ! A43   A(22,21,30)           110.9369                                         !
 ! A44   A(22,21,31)           109.9341                                         !
 ! A45   A(30,21,31)           107.9161                                         !
 ! A46   A(21,22,23)           120.4062                                         !
 ! A47   A(21,22,24)           121.3558                                         !
 ! A48   A(23,22,24)           118.209                                          !
 ! A49   A(22,23,25)           121.1169                                         !
 ! A50   A(22,23,32)           119.2767                                         !
 ! A51   A(25,23,32)           119.5853                                         !
 ! A52   A(22,24,26)           120.8202                                         !
 ! A53   A(22,24,33)           118.7599                                         !
 ! A54   A(26,24,33)           120.4168                                         !
 ! A55   A(23,25,27)           119.9712                                         !
 ! A56   A(23,25,34)           119.8674                                         !
 ! A57   A(27,25,34)           120.1437                                         !
 ! A58   A(24,26,27)           120.3404                                         !
 ! A59   A(24,26,35)           119.6319                                         !
 ! A60   A(27,26,35)           120.0195                                         !
 ! A61   A(25,27,26)           119.5059                                         !
 ! A62   A(25,27,36)           120.2357                                         !
 ! A63   A(26,27,36)           120.2369                                         !
 ! A64   A(19,37,38)           129.8082                                         !
 ! A65   A(19,37,45)           112.4009                                         !
 ! A66   A(38,37,45)           117.6784                                         !
 ! A67   A(37,38,39)           114.3789                                         !
 ! A68   A(37,38,41)           110.6093                                         !
 ! A69   A(37,38,46)           109.8508                                         !
 ! A70   A(39,38,41)           110.0075                                         !
 ! A71   A(39,38,46)           106.014                                          !
 ! A72   A(41,38,46)           105.5123                                         !
 ! A73   A(38,39,40)           118.8577                                         !
 ! A74   A(38,39,51)           118.4136                                         !
 ! A75   A(40,39,51)           122.7195                                         !
 ! A76   A(38,41,42)           110.7682                                         !
 ! A77   A(38,41,47)           108.3229                                         !
 ! A78   A(38,41,48)           108.0499                                         !
 ! A79   A(42,41,47)           112.8097                                         !
 ! A80   A(42,41,48)           108.2288                                         !
 ! A81   A(47,41,48)           108.5341                                         !
 ! A82   A(41,42,43)           116.6227                                         !
 ! A83   A(41,42,44)           120.1607                                         !
 ! A84   A(43,42,44)           123.1812                                         !
 ! A85   A(42,43,49)           117.4234                                         !
 ! A86   A(42,43,50)           121.764                                          !
 ! A87   A(49,43,50)           117.203                                          !
 ! A88   A(39,51,52)           122.2792                                         !
 ! A89   A(39,51,64)           120.7038                                         !
 ! A90   A(52,51,64)           114.1103                                         !
 ! A91   A(51,52,53)           110.2821                                         !
 ! A92   A(51,52,55)           113.1586                                         !
 ! A93   A(51,52,65)           106.1113                                         !
 ! A94   A(53,52,55)           114.1263                                         !
 ! A95   A(53,52,65)           105.3614                                         !
 ! A96   A(55,52,65)           107.1161                                         !
 ! A97   A(52,53,54)           125.822                                          !
 ! A98   A(52,53,62)           111.4232                                         !
 ! A99   A(54,53,62)           122.6886                                         !
 ! A100  A(52,55,56)           118.1994                                         !
 ! A101  A(52,55,66)           106.5999                                         !
 ! A102  A(52,55,67)           106.3114                                         !
 ! A103  A(56,55,66)           107.8829                                         !
 ! A104  A(56,55,67)           109.6728                                         !
 ! A105  A(66,55,67)           107.7328                                         !
 ! A106  A(55,56,57)           117.2953                                         !
 ! A107  A(55,56,68)           110.0896                                         !
 ! A108  A(55,56,69)           106.4053                                         !
 ! A109  A(57,56,68)           110.1057                                         !
 ! A110  A(57,56,69)           106.8332                                         !
 ! A111  A(68,56,69)           105.3205                                         !
 ! A112  A(56,57,58)           111.1697                                         !
 ! A113  A(56,57,70)           109.8861                                         !
 ! A114  A(56,57,71)           110.3856                                         !
 ! A115  A(58,57,70)           109.6852                                         !
 ! A116  A(58,57,71)           107.9716                                         !
 ! A117  A(70,57,71)           107.6577                                         !
 ! A118  A(57,58,59)           118.9618                                         !
 ! A119  A(57,58,72)           111.5976                                         !
 ! A120  A(59,58,72)           111.9052                                         !
 ! A121  A(58,59,60)           119.7916                                         !
 ! A122  A(58,59,61)           113.7373                                         !
 ! A123  A(60,59,61)           126.4426                                         !
 ! A124  A(59,60,73)           109.7356                                         !
 ! A125  A(59,61,74)           112.5625                                         !
 ! A126  A(59,61,75)           116.1542                                         !
 ! A127  A(74,61,75)           110.1577                                         !
 ! A128  A(53,62,63)           107.8984                                         !
 ! D1    D(9,1,2,3)            -54.7948                                         !
 ! D2    D(9,1,2,5)            178.9516                                         !
 ! D3    D(9,1,2,10)            59.2012                                         !
 ! D4    D(15,1,2,3)            63.0908                                         !
 ! D5    D(15,1,2,5)           -63.1627                                         !
 ! D6    D(15,1,2,10)          177.0868                                         !
 ! D7    D(16,1,2,3)          -177.6669                                         !
 ! D8    D(16,1,2,5)            56.0795                                         !
 ! D9    D(16,1,2,10)          -63.6709                                         !
 ! D10   D(1,2,3,4)             41.7518                                         !
 ! D11   D(1,2,3,17)          -135.2122                                         !
 ! D12   D(5,2,3,4)            164.3496                                         !
 ! D13   D(5,2,3,17)           -12.6144                                         !
 ! D14   D(10,2,3,4)           -70.9995                                         !
 ! D15   D(10,2,3,17)          112.0364                                         !
 ! D16   D(1,2,5,6)            -52.4771                                         !
 ! D17   D(1,2,5,11)            69.726                                          !
 ! D18   D(1,2,5,12)          -174.0701                                         !
 ! D19   D(3,2,5,6)           -172.0965                                         !
 ! D20   D(3,2,5,11)           -49.8935                                         !
 ! D21   D(3,2,5,12)            66.3104                                         !
 ! D22   D(10,2,5,6)            64.6005                                         !
 ! D23   D(10,2,5,11)         -173.1964                                         !
 ! D24   D(10,2,5,12)          -56.9925                                         !
 ! D25   D(2,3,17,18)         -172.2673                                         !
 ! D26   D(2,3,17,28)           -3.5982                                         !
 ! D27   D(4,3,17,18)           10.9956                                         !
 ! D28   D(4,3,17,28)          179.6647                                         !
 ! D29   D(2,5,6,7)           -170.6142                                         !
 ! D30   D(2,5,6,8)             10.4729                                         !
 ! D31   D(11,5,6,7)            66.037                                          !
 ! D32   D(11,5,6,8)          -112.8759                                         !
 ! D33   D(12,5,6,7)           -49.0758                                         !
 ! D34   D(12,5,6,8)           132.0112                                         !
 ! D35   D(5,6,7,13)          -178.0358                                         !
 ! D36   D(5,6,7,14)            -2.9781                                         !
 ! D37   D(8,6,7,13)             0.8629                                         !
 ! D38   D(8,6,7,14)           175.9206                                         !
 ! D39   D(3,17,18,19)        -122.0099                                         !
 ! D40   D(3,17,18,21)         113.4687                                         !
 ! D41   D(3,17,18,29)          -4.3915                                         !
 ! D42   D(28,17,18,19)         68.8738                                         !
 ! D43   D(28,17,18,21)        -55.6475                                         !
 ! D44   D(28,17,18,29)       -173.5078                                         !
 ! D45   D(17,18,19,20)       -138.8849                                         !
 ! D46   D(17,18,19,37)         41.815                                          !
 ! D47   D(21,18,19,20)        -15.3522                                         !
 ! D48   D(21,18,19,37)        165.3478                                         !
 ! D49   D(29,18,19,20)        104.4057                                         !
 ! D50   D(29,18,19,37)        -74.8943                                         !
 ! D51   D(17,18,21,22)         51.0492                                         !
 ! D52   D(17,18,21,30)        174.0729                                         !
 ! D53   D(17,18,21,31)        -70.0724                                         !
 ! D54   D(19,18,21,22)        -73.9105                                         !
 ! D55   D(19,18,21,30)         49.1132                                         !
 ! D56   D(19,18,21,31)        164.9679                                         !
 ! D57   D(29,18,21,22)        167.1204                                         !
 ! D58   D(29,18,21,30)        -69.8559                                         !
 ! D59   D(29,18,21,31)         45.9988                                         !
 ! D60   D(18,19,37,38)          9.0993                                         !
 ! D61   D(18,19,37,45)       -174.909                                          !
 ! D62   D(20,19,37,38)       -170.1941                                         !
 ! D63   D(20,19,37,45)          5.7976                                         !
 ! D64   D(18,21,22,23)        -85.3623                                         !
 ! D65   D(18,21,22,24)         92.6445                                         !
 ! D66   D(30,21,22,23)        153.3355                                         !
 ! D67   D(30,21,22,24)        -28.6577                                         !
 ! D68   D(31,21,22,23)         34.0527                                         !
 ! D69   D(31,21,22,24)       -147.9404                                         !
 ! D70   D(21,22,23,25)        176.1121                                         !
 ! D71   D(21,22,23,32)         -5.5662                                         !
 ! D72   D(24,22,23,25)         -1.9565                                         !
 ! D73   D(24,22,23,32)        176.3652                                         !
 ! D74   D(21,22,24,26)       -176.5686                                         !
 ! D75   D(21,22,24,33)          4.0652                                         !
 ! D76   D(23,22,24,26)          1.4807                                         !
 ! D77   D(23,22,24,33)       -177.8855                                         !
 ! D78   D(22,23,25,27)          0.7429                                         !
 ! D79   D(22,23,25,34)        179.2158                                         !
 ! D80   D(32,23,25,27)       -177.5736                                         !
 ! D81   D(32,23,25,34)          0.8993                                         !
 ! D82   D(22,24,26,27)          0.2024                                         !
 ! D83   D(22,24,26,35)       -178.7564                                         !
 ! D84   D(33,24,26,27)        179.5582                                         !
 ! D85   D(33,24,26,35)          0.5993                                         !
 ! D86   D(23,25,27,26)          0.9799                                         !
 ! D87   D(23,25,27,36)        179.2983                                         !
 ! D88   D(34,25,27,26)       -177.4888                                         !
 ! D89   D(34,25,27,36)          0.8297                                         !
 ! D90   D(24,26,27,25)         -1.4501                                         !
 ! D91   D(24,26,27,36)       -179.7685                                         !
 ! D92   D(35,26,27,25)        177.5047                                         !
 ! D93   D(35,26,27,36)         -0.8137                                         !
 ! D94   D(19,37,38,39)        -99.8713                                         !
 ! D95   D(19,37,38,41)        135.2569                                         !
 ! D96   D(19,37,38,46)         19.1818                                         !
 ! D97   D(45,37,38,39)         84.3138                                         !
 ! D98   D(45,37,38,41)        -40.558                                          !
 ! D99   D(45,37,38,46)       -156.6332                                         !
 ! D100  D(37,38,39,40)        162.6854                                         !
 ! D101  D(37,38,39,51)        -16.2452                                         !
 ! D102  D(41,38,39,40)        -72.1251                                         !
 ! D103  D(41,38,39,51)        108.9443                                         !
 ! D104  D(46,38,39,40)         41.4918                                         !
 ! D105  D(46,38,39,51)       -137.4388                                         !
 ! D106  D(37,38,41,42)         58.0565                                         !
 ! D107  D(37,38,41,47)        -66.1614                                         !
 ! D108  D(37,38,41,48)        176.4452                                         !
 ! D109  D(39,38,41,42)        -69.262                                          !
 ! D110  D(39,38,41,47)        166.5201                                         !
 ! D111  D(39,38,41,48)         49.1266                                         !
 ! D112  D(46,38,41,42)        176.7996                                         !
 ! D113  D(46,38,41,47)         52.5817                                         !
 ! D114  D(46,38,41,48)        -64.8117                                         !
 ! D115  D(38,39,51,52)       -164.2867                                         !
 ! D116  D(38,39,51,64)         -4.7247                                         !
 ! D117  D(40,39,51,52)         16.8265                                         !
 ! D118  D(40,39,51,64)        176.3885                                         !
 ! D119  D(38,41,42,43)       -113.6403                                         !
 ! D120  D(38,41,42,44)         64.2637                                         !
 ! D121  D(47,41,42,43)          7.9762                                         !
 ! D122  D(47,41,42,44)       -174.1198                                         !
 ! D123  D(48,41,42,43)        128.0797                                         !
 ! D124  D(48,41,42,44)        -54.0163                                         !
 ! D125  D(41,42,43,49)        165.4649                                         !
 ! D126  D(41,42,43,50)          7.4919                                         !
 ! D127  D(44,42,43,49)        -12.3698                                         !
 ! D128  D(44,42,43,50)       -170.3428                                         !
 ! D129  D(39,51,52,53)       -129.1073                                         !
 ! D130  D(39,51,52,55)        101.6923                                         !
 ! D131  D(39,51,52,65)        -15.4848                                         !
 ! D132  D(64,51,52,53)         70.0972                                         !
 ! D133  D(64,51,52,55)        -59.1032                                         !
 ! D134  D(64,51,52,65)       -176.2803                                         !
 ! D135  D(51,52,53,54)         17.6015                                         !
 ! D136  D(51,52,53,62)       -165.3077                                         !
 ! D137  D(55,52,53,54)        146.2776                                         !
 ! D138  D(55,52,53,62)        -36.6315                                         !
 ! D139  D(65,52,53,54)        -96.4987                                         !
 ! D140  D(65,52,53,62)         80.5921                                         !
 ! D141  D(51,52,55,56)         73.6582                                         !
 ! D142  D(51,52,55,66)       -164.7796                                         !
 ! D143  D(51,52,55,67)        -50.0465                                         !
 ! D144  D(53,52,55,56)        -53.5479                                         !
 ! D145  D(53,52,55,66)         68.0143                                         !
 ! D146  D(53,52,55,67)       -177.2526                                         !
 ! D147  D(65,52,55,56)       -169.756                                          !
 ! D148  D(65,52,55,66)        -48.1939                                         !
 ! D149  D(65,52,55,67)         66.5392                                         !
 ! D150  D(52,53,62,63)       -179.0641                                         !
 ! D151  D(54,53,62,63)         -1.8668                                         !
 ! D152  D(52,55,56,57)        -67.4732                                         !
 ! D153  D(52,55,56,68)         59.4411                                         !
 ! D154  D(52,55,56,69)        173.0791                                         !
 ! D155  D(66,55,56,57)        171.6212                                         !
 ! D156  D(66,55,56,68)        -61.4644                                         !
 ! D157  D(66,55,56,69)         52.1735                                         !
 ! D158  D(67,55,56,57)         54.5411                                         !
 ! D159  D(67,55,56,68)       -178.5446                                         !
 ! D160  D(67,55,56,69)        -64.9066                                         !
 ! D161  D(55,56,57,58)         77.8071                                         !
 ! D162  D(55,56,57,70)       -160.5774                                         !
 ! D163  D(55,56,57,71)        -41.9877                                         !
 ! D164  D(68,56,57,58)        -49.0994                                         !
 ! D165  D(68,56,57,70)         72.5161                                         !
 ! D166  D(68,56,57,71)       -168.8942                                         !
 ! D167  D(69,56,57,58)       -162.9725                                         !
 ! D168  D(69,56,57,70)        -41.357                                          !
 ! D169  D(69,56,57,71)         77.2327                                         !
 ! D170  D(56,57,58,59)       -172.3566                                         !
 ! D171  D(56,57,58,72)         54.9802                                         !
 ! D172  D(70,57,58,59)         65.9108                                         !
 ! D173  D(70,57,58,72)        -66.7525                                         !
 ! D174  D(71,57,58,59)        -51.1367                                         !
 ! D175  D(71,57,58,72)        176.2001                                         !
 ! D176  D(57,58,59,60)         26.4661                                         !
 ! D177  D(57,58,59,61)       -155.3503                                         !
 ! D178  D(72,58,59,60)        158.9959                                         !
 ! D179  D(72,58,59,61)        -22.8205                                         !
 ! D180  D(58,59,60,73)        176.9154                                         !
 ! D181  D(61,59,60,73)         -1.0176                                         !
 ! D182  D(58,59,61,74)       -153.2746                                         !
 ! D183  D(58,59,61,75)        -24.9753                                         !
 ! D184  D(60,59,61,74)         24.7658                                         !
 ! D185  D(60,59,61,75)        153.0651                                         !
 --------------------------------------------------------------------------------
 Symmetry turned off by external request.
 Stoichiometry    C23H36N9O7(1+)
 Framework group  C1[X(C23H36N9O7)]
 Deg. of freedom   219
 Full point group                 C1      NOp   1
                          Input orientation:                          
 ---------------------------------------------------------------------
 Center     Atomic      Atomic             Coordinates (Angstroms)
 Number     Number       Type             X           Y           Z
 ---------------------------------------------------------------------
      1          7           0      -10.746331   -3.812322   -8.251050
      2          6           0       -9.325874   -4.291750   -8.394645
      3          6           0       -8.701222   -4.109624   -6.999046
      4          8           0       -9.378661   -4.417959   -6.020010
      5          6           0       -8.631577   -3.573252   -9.545637
      6          6           0       -9.408666   -3.639955  -10.860441
      7          7           0       -8.729187   -3.188661  -11.933493
      8          8           0      -10.570022   -4.055368  -10.917830
      9          1           0      -11.198654   -4.320503   -7.483844
     10          1           0       -9.387843   -5.365829   -8.596341
     11          1           0       -8.460672   -2.525114   -9.296677
     12          1           0       -7.639754   -4.015468   -9.694076
     13          1           0       -9.191994   -3.174777  -12.833102
     14          1           0       -7.799839   -2.798268  -11.842121
     15          1           0      -10.727449   -2.790385   -8.006021
     16          1           0      -11.204623   -3.961985   -9.171787
     17          7           0       -7.470218   -3.562893   -6.939308
     18          6           0       -6.685004   -3.477521   -5.709110
     19          6           0       -6.301592   -2.018059   -5.358307
     20          8           0       -5.174805   -1.767772   -4.936417
     21          6           0       -5.429188   -4.382942   -5.825718
     22          6           0       -4.634852   -4.135432   -7.093762
     23          6           0       -4.982719   -4.786447   -8.289269
     24          6           0       -3.566972   -3.227496   -7.120099
     25          6           0       -4.312798   -4.509286   -9.483790
     26          6           0       -2.888597   -2.955040   -8.310080
     27          6           0       -3.268643   -3.583245   -9.498960
     28          1           0       -6.973104   -3.341252   -7.793103
     29          1           0       -7.327747   -3.856742   -4.907667
     30          1           0       -4.812647   -4.216074   -4.940332
     31          1           0       -5.780096   -5.420314   -5.801349
     32          1           0       -5.769565   -5.538625   -8.276368
     33          1           0       -3.268614   -2.746259   -6.195712
     34          1           0       -4.590067   -5.034133  -10.394177
     35          1           0       -2.050200   -2.262936   -8.304528
     36          1           0       -2.737502   -3.372953  -10.422699
     37          7           0       -7.226584   -1.024172   -5.508281
     38          6           0       -8.648717   -1.112000   -5.800150
     39          6           0       -9.012235   -0.858807   -7.277471
     40          8           0      -10.129621   -1.224053   -7.693438
     41          6           0       -9.454378   -0.154258   -4.883672
     42          6           0       -8.980291    1.285365   -5.055835
     43          7           0       -8.374562    1.856617   -3.987829
     44          8           0       -9.119806    1.856395   -6.134784
     45          1           0       -6.833417   -0.092342   -5.325344
     46          1           0       -9.013046   -2.112641   -5.568099
     47          1           0       -9.365997   -0.509620   -3.852213
     48          1           0      -10.505681   -0.205990   -5.180283
     49          1           0       -7.858840    2.713110   -4.147220
     50          1           0       -8.142800    1.325434   -3.161411
     51          7           0       -8.100608   -0.272430   -8.067641
     52          6           0       -8.447520    0.307896   -9.357445
     53          6           0       -7.511603   -0.216899  -10.442563
     54          8           0       -6.808607   -1.209285  -10.359612
     55          6           0       -8.568618    1.851338   -9.318097
     56          6           0       -7.274345    2.680737   -9.219731
     57          6           0       -6.473752    2.582149   -7.916560
     58          7           0       -5.692016    1.330229   -7.864274
     59          6           0       -5.026778    0.994594   -6.677216
     60          7           0       -5.470769    1.433764   -5.546474
     61          7           0       -3.938686    0.157981   -6.865121
     62          8           0       -7.593253    0.523009  -11.560919
     63          1           0       -6.988497    0.135401  -12.221894
     64          1           0       -7.215799    0.064335   -7.682748
     65          1           0       -9.438950   -0.087462   -9.612510
     66          1           0       -9.088985    2.147705  -10.234588
     67          1           0       -9.221239    2.086520   -8.473977
     68          1           0       -6.623282    2.468476  -10.080418
     69          1           0       -7.569956    3.730368   -9.332066
     70          1           0       -5.798775    3.443786   -7.826709
     71          1           0       -7.143805    2.596217   -7.057491
     72          1           0       -5.090275    1.230659   -8.677359
     73          1           0       -4.905083    1.057183   -4.784134
     74          1           0       -3.738524   -0.409383   -6.048732
     75          1           0       -3.958864   -0.422231   -7.698007
 ---------------------------------------------------------------------
 Rotational constants (GHZ):           0.1094050           0.0960236           0.0851839
 Standard basis: 6-31G(d) (6D, 7F)
   657 basis functions,  1236 primitive gaussians,   657 cartesian basis functions
   146 alpha electrons      146 beta electrons
       nuclear repulsion energy      5258.0004651671 Hartrees.
 NAtoms=   75 NActive=   75 NUniq=   75 SFac= 1.00D+00 NAtFMM=   60 NAOKFM=T Big=T
 Integral buffers will be    131072 words long.
 Raffenetti 2 integral format.
 Two-electron integral symmetry is turned off.
 Nuclear repulsion after empirical dispersion term =     5257.8737036036 Hartrees.
 One-electron integrals computed using PRISM.
 NBasis=   657 RedAO= T EigKep=  4.70D-04  NBF=   657
 NBsUse=   657 1.00D-06 EigRej= -1.00D+00 NBFU=   657
 Initial guess from the checkpoint file:  "conf-727.chk"
 B after Tr=     0.000000    0.000000    0.000000
         Rot=    1.000000    0.000000    0.000000    0.000000 Ang=   0.00 deg.
 Requested convergence on RMS density matrix=1.00D-08 within 128 cycles.
 Requested convergence on MAX density matrix=1.00D-06.
 Requested convergence on             energy=1.00D-06.
 No special actions if energy rises.
 SCF Done:  E(RB3LYP) =  -1917.50108858     A.U. after    2 cycles
            NFock=  2  Conv=0.93D-08     -V/T= 2.0093

 **********************************************************************

            Population analysis using the SCF Density.

 **********************************************************************

 Alpha  occ. eigenvalues --  -19.32081 -19.26799 -19.25361 -19.25197 -19.24357
 Alpha  occ. eigenvalues --  -19.22720 -19.21036 -14.55773 -14.49790 -14.48437
 Alpha  occ. eigenvalues --  -14.47345 -14.46659 -14.45183 -14.45026 -14.43611
 Alpha  occ. eigenvalues --  -14.38013 -10.44664 -10.42870 -10.42818 -10.41200
 Alpha  occ. eigenvalues --  -10.40365 -10.39432 -10.38764 -10.37879 -10.35549
 Alpha  occ. eigenvalues --  -10.35376 -10.35172 -10.33775 -10.30566 -10.29823
 Alpha  occ. eigenvalues --  -10.29715 -10.29582 -10.29072 -10.28915 -10.28631
 Alpha  occ. eigenvalues --  -10.28573 -10.28381 -10.28274 -10.27890  -1.23211
 Alpha  occ. eigenvalues --   -1.17896  -1.16795  -1.15844  -1.14664  -1.14037
 Alpha  occ. eigenvalues --   -1.12865  -1.10928  -1.07304  -1.06477  -1.04678
 Alpha  occ. eigenvalues --   -1.03593  -1.02982  -0.99977  -0.98124  -0.95413
 Alpha  occ. eigenvalues --   -0.93611  -0.93012  -0.90369  -0.89210  -0.88397
 Alpha  occ. eigenvalues --   -0.84548  -0.84472  -0.84153  -0.81798  -0.78978
 Alpha  occ. eigenvalues --   -0.77241  -0.76802  -0.74006  -0.73373  -0.72568
 Alpha  occ. eigenvalues --   -0.71723  -0.71126  -0.70189  -0.69958  -0.69391
 Alpha  occ. eigenvalues --   -0.68965  -0.68266  -0.68160  -0.67587  -0.66550
 Alpha  occ. eigenvalues --   -0.65297  -0.64374  -0.63270  -0.62890  -0.62591
 Alpha  occ. eigenvalues --   -0.61449  -0.61109  -0.60811  -0.60735  -0.60135
 Alpha  occ. eigenvalues --   -0.59433  -0.59018  -0.58649  -0.57859  -0.56605
 Alpha  occ. eigenvalues --   -0.56460  -0.56372  -0.55658  -0.55454  -0.55065
 Alpha  occ. eigenvalues --   -0.54713  -0.54694  -0.54405  -0.53875  -0.53588
 Alpha  occ. eigenvalues --   -0.53529  -0.52996  -0.52436  -0.52125  -0.51739
 Alpha  occ. eigenvalues --   -0.51359  -0.51165  -0.51101  -0.50445  -0.50173
 Alpha  occ. eigenvalues --   -0.49269  -0.48851  -0.48457  -0.48246  -0.47607
 Alpha  occ. eigenvalues --   -0.47401  -0.46888  -0.46524  -0.45488  -0.45023
 Alpha  occ. eigenvalues --   -0.44048  -0.43665  -0.43503  -0.43156  -0.42897
 Alpha  occ. eigenvalues --   -0.40329  -0.40203  -0.39830  -0.39710  -0.39695
 Alpha  occ. eigenvalues --   -0.38863  -0.37978  -0.36922  -0.36441  -0.35957
 Alpha  occ. eigenvalues --   -0.35663  -0.35234  -0.34806  -0.34719  -0.34070
 Alpha  occ. eigenvalues --   -0.32429
 Alpha virt. eigenvalues --   -0.12437  -0.11990  -0.10995  -0.10811  -0.10114
 Alpha virt. eigenvalues --   -0.10001  -0.09642  -0.07432  -0.05679  -0.05010
 Alpha virt. eigenvalues --   -0.04881  -0.02853  -0.02476  -0.01506  -0.01406
 Alpha virt. eigenvalues --   -0.00482  -0.00305  -0.00073   0.01246   0.01382
 Alpha virt. eigenvalues --    0.01875   0.02457   0.03041   0.03191   0.03593
 Alpha virt. eigenvalues --    0.03961   0.04390   0.04593   0.04686   0.05250
 Alpha virt. eigenvalues --    0.05670   0.05910   0.06279   0.06618   0.07026
 Alpha virt. eigenvalues --    0.07207   0.07318   0.07650   0.07840   0.08266
 Alpha virt. eigenvalues --    0.08571   0.08792   0.09071   0.09475   0.09666
 Alpha virt. eigenvalues --    0.09711   0.09955   0.10367   0.10795   0.11063
 Alpha virt. eigenvalues --    0.11681   0.11840   0.12518   0.13362   0.13461
 Alpha virt. eigenvalues --    0.14131   0.14717   0.15038   0.15906   0.16744
 Alpha virt. eigenvalues --    0.17019   0.17543   0.18172   0.18522   0.19068
 Alpha virt. eigenvalues --    0.20994   0.21565   0.22004   0.22438   0.22686
 Alpha virt. eigenvalues --    0.23665   0.24161   0.25105   0.25704   0.26016
 Alpha virt. eigenvalues --    0.26601   0.26891   0.28176   0.28589   0.30782
 Alpha virt. eigenvalues --    0.31030   0.33873   0.35061   0.35906   0.37146
 Alpha virt. eigenvalues --    0.37821   0.38399   0.39488   0.40044   0.40556
 Alpha virt. eigenvalues --    0.41060   0.41335   0.41512   0.42596   0.43647
 Alpha virt. eigenvalues --    0.44017   0.44498   0.44688   0.45052   0.45181
 Alpha virt. eigenvalues --    0.45757   0.45862   0.46659   0.47167   0.47576
 Alpha virt. eigenvalues --    0.48071   0.48247   0.48651   0.48929   0.49201
 Alpha virt. eigenvalues --    0.49882   0.50009   0.50580   0.50821   0.51366
 Alpha virt. eigenvalues --    0.51648   0.52197   0.52286   0.52546   0.52894
 Alpha virt. eigenvalues --    0.53052   0.53297   0.53845   0.54040   0.54769
 Alpha virt. eigenvalues --    0.55043   0.55781   0.56196   0.56922   0.57119
 Alpha virt. eigenvalues --    0.57559   0.58104   0.58217   0.58998   0.59061
 Alpha virt. eigenvalues --    0.59593   0.60479   0.60782   0.61518   0.62594
 Alpha virt. eigenvalues --    0.63185   0.63496   0.64208   0.64683   0.65216
 Alpha virt. eigenvalues --    0.65702   0.66515   0.67266   0.67526   0.67941
 Alpha virt. eigenvalues --    0.68821   0.68978   0.69568   0.69859   0.70864
 Alpha virt. eigenvalues --    0.71500   0.71889   0.72353   0.72601   0.72638
 Alpha virt. eigenvalues --    0.73888   0.74270   0.74525   0.74703   0.75281
 Alpha virt. eigenvalues --    0.75480   0.75652   0.75824   0.76107   0.76469
 Alpha virt. eigenvalues --    0.76902   0.77041   0.77646   0.78562   0.79007
 Alpha virt. eigenvalues --    0.79069   0.79480   0.79776   0.79935   0.80073
 Alpha virt. eigenvalues --    0.80261   0.80910   0.81210   0.81727   0.81881
 Alpha virt. eigenvalues --    0.82279   0.82522   0.83287   0.83465   0.84501
 Alpha virt. eigenvalues --    0.85023   0.85314   0.85527   0.85979   0.86346
 Alpha virt. eigenvalues --    0.86564   0.87328   0.87571   0.88376   0.88739
 Alpha virt. eigenvalues --    0.88955   0.89623   0.89906   0.90273   0.91104
 Alpha virt. eigenvalues --    0.91809   0.91882   0.93116   0.93670   0.94662
 Alpha virt. eigenvalues --    0.95580   0.95688   0.96357   0.97374   0.97429
 Alpha virt. eigenvalues --    0.98544   0.98648   0.99297   1.00502   1.01102
 Alpha virt. eigenvalues --    1.01889   1.02438   1.02896   1.03632   1.03984
 Alpha virt. eigenvalues --    1.04695   1.05270   1.06634   1.07404   1.08025
 Alpha virt. eigenvalues --    1.08149   1.09453   1.10038   1.10532   1.11090
 Alpha virt. eigenvalues --    1.13477   1.13963   1.14434   1.15199   1.15915
 Alpha virt. eigenvalues --    1.16399   1.17092   1.17519   1.18425   1.19024
 Alpha virt. eigenvalues --    1.20204   1.20544   1.21892   1.23177   1.23759
 Alpha virt. eigenvalues --    1.24517   1.25129   1.26014   1.27211   1.27241
 Alpha virt. eigenvalues --    1.27831   1.28615   1.29450   1.29846   1.30947
 Alpha virt. eigenvalues --    1.31674   1.32546   1.32898   1.33406   1.34120
 Alpha virt. eigenvalues --    1.34679   1.35136   1.36557   1.37496   1.37907
 Alpha virt. eigenvalues --    1.38930   1.39200   1.39690   1.40368   1.40775
 Alpha virt. eigenvalues --    1.41951   1.43025   1.44182   1.45191   1.45330
 Alpha virt. eigenvalues --    1.47252   1.48588   1.49368   1.50053   1.50772
 Alpha virt. eigenvalues --    1.51457   1.52287   1.53299   1.53897   1.54514
 Alpha virt. eigenvalues --    1.55620   1.55900   1.58111   1.59541   1.59797
 Alpha virt. eigenvalues --    1.61003   1.61345   1.62390   1.62813   1.62918
 Alpha virt. eigenvalues --    1.63961   1.64387   1.64864   1.65750   1.66501
 Alpha virt. eigenvalues --    1.67050   1.67652   1.68187   1.68268   1.68706
 Alpha virt. eigenvalues --    1.69608   1.69902   1.69969   1.70729   1.71225
 Alpha virt. eigenvalues --    1.72043   1.72689   1.72974   1.73646   1.73975
 Alpha virt. eigenvalues --    1.74383   1.75299   1.75999   1.76702   1.77118
 Alpha virt. eigenvalues --    1.77869   1.78535   1.78749   1.78905   1.79806
 Alpha virt. eigenvalues --    1.79911   1.80465   1.81086   1.81369   1.81877
 Alpha virt. eigenvalues --    1.82420   1.82714   1.83107   1.84409   1.85539
 Alpha virt. eigenvalues --    1.85662   1.85777   1.87065   1.87594   1.87962
 Alpha virt. eigenvalues --    1.88824   1.89269   1.90547   1.90582   1.91175
 Alpha virt. eigenvalues --    1.91619   1.92660   1.93442   1.94377   1.94962
 Alpha virt. eigenvalues --    1.95207   1.96222   1.96792   1.97329   1.97945
 Alpha virt. eigenvalues --    1.98247   1.99898   2.00616   2.01449   2.01596
 Alpha virt. eigenvalues --    2.02701   2.04040   2.04541   2.05398   2.05534
 Alpha virt. eigenvalues --    2.06343   2.06546   2.07489   2.08538   2.09058
 Alpha virt. eigenvalues --    2.09675   2.11397   2.12588   2.13190   2.13525
 Alpha virt. eigenvalues --    2.14558   2.15509   2.16363   2.17223   2.18096
 Alpha virt. eigenvalues --    2.18511   2.19155   2.20168   2.21160   2.21403
 Alpha virt. eigenvalues --    2.22512   2.23314   2.23785   2.24375   2.25159
 Alpha virt. eigenvalues --    2.25517   2.26242   2.27213   2.28113   2.28477
 Alpha virt. eigenvalues --    2.29047   2.30204   2.30866   2.31574   2.32926
 Alpha virt. eigenvalues --    2.33549   2.34636   2.35606   2.36519   2.37397
 Alpha virt. eigenvalues --    2.37985   2.38291   2.40279   2.41081   2.41799
 Alpha virt. eigenvalues --    2.43051   2.43613   2.45650   2.46547   2.47297
 Alpha virt. eigenvalues --    2.48711   2.49223   2.49625   2.50214   2.50851
 Alpha virt. eigenvalues --    2.51605   2.52678   2.53756   2.53998   2.54085
 Alpha virt. eigenvalues --    2.55798   2.55943   2.56463   2.57548   2.58422
 Alpha virt. eigenvalues --    2.59502   2.60154   2.61900   2.62423   2.62710
 Alpha virt. eigenvalues --    2.64167   2.64885   2.65022   2.66385   2.67349
 Alpha virt. eigenvalues --    2.68157   2.68855   2.71004   2.72660   2.73490
 Alpha virt. eigenvalues --    2.75275   2.77953   2.79440   2.83394   2.84155
 Alpha virt. eigenvalues --    2.86268   2.88201   2.90079   2.90951   2.91682
 Alpha virt. eigenvalues --    2.92887   2.93838   2.94656   2.96421   2.97162
 Alpha virt. eigenvalues --    2.97237   2.99128   2.99534   3.03967   3.05434
 Alpha virt. eigenvalues --    3.10345   3.30800   3.69517   3.72129   3.73197
 Alpha virt. eigenvalues --    3.76340   3.78254   3.86999   3.92800   3.94345
 Alpha virt. eigenvalues --    3.96804   3.97429   4.00218   4.00736   4.04147
 Alpha virt. eigenvalues --    4.05782   4.07095   4.08055   4.11184   4.13446
 Alpha virt. eigenvalues --    4.13879   4.14550   4.17062   4.21238   4.23010
 Alpha virt. eigenvalues --    4.26042   4.26605   4.28687   4.32062   4.34688
 Alpha virt. eigenvalues --    4.36819   4.38752   4.41032   4.43306   4.46620
 Alpha virt. eigenvalues --    4.48833   4.54865   4.57297   4.59796   4.64980
 Alpha virt. eigenvalues --    4.73440
          Condensed to atoms (all electrons):
 Mulliken charges:
               1
     1  N   -0.767689
     2  C   -0.112802
     3  C    0.636358
     4  O   -0.525545
     5  C   -0.443410
     6  C    0.628534
     7  N   -0.747148
     8  O   -0.529378
     9  H    0.409460
    10  H    0.229981
    11  H    0.233687
    12  H    0.204517
    13  H    0.370163
    14  H    0.369047
    15  H    0.446530
    16  H    0.430219
    17  N   -0.611402
    18  C   -0.095056
    19  C    0.622647
    20  O   -0.525502
    21  C   -0.344438
    22  C    0.135252
    23  C   -0.215090
    24  C   -0.181706
    25  C   -0.125363
    26  C   -0.150502
    27  C   -0.125046
    28  H    0.371647
    29  H    0.220636
    30  H    0.197473
    31  H    0.167756
    32  H    0.127175
    33  H    0.164545
    34  H    0.142821
    35  H    0.156381
    36  H    0.151444
    37  N   -0.658044
    38  C   -0.083513
    39  C    0.673981
    40  O   -0.615983
    41  C   -0.352671
    42  C    0.583493
    43  N   -0.716512
    44  O   -0.510190
    45  H    0.391007
    46  H    0.201469
    47  H    0.167125
    48  H    0.209257
    49  H    0.369044
    50  H    0.349388
    51  N   -0.595407
    52  C   -0.098806
    53  C    0.602378
    54  O   -0.498904
    55  C   -0.276509
    56  C   -0.300790
    57  C   -0.144883
    58  N   -0.655729
    59  C    0.602216
    60  N   -0.685251
    61  N   -0.755232
    62  O   -0.543881
    63  H    0.421724
    64  H    0.408791
    65  H    0.212357
    66  H    0.168105
    67  H    0.214528
    68  H    0.135288
    69  H    0.172067
    70  H    0.163734
    71  H    0.219200
    72  H    0.324214
    73  H    0.297138
    74  H    0.362264
    75  H    0.327337
 Sum of Mulliken charges =   1.00000
 Mulliken charges with hydrogens summed into heavy atoms:
               1
     1  N    0.518521
     2  C    0.117179
     3  C    0.636358
     4  O   -0.525545
     5  C   -0.005207
     6  C    0.628534
     7  N   -0.007938
     8  O   -0.529378
    17  N   -0.239754
    18  C    0.125580
    19  C    0.622647
    20  O   -0.525502
    21  C    0.020791
    22  C    0.135252
    23  C   -0.087915
    24  C   -0.017160
    25  C    0.017458
    26  C    0.005879
    27  C    0.026398
    37  N   -0.267037
    38  C    0.117956
    39  C    0.673981
    40  O   -0.615983
    41  C    0.023712
    42  C    0.583493
    43  N    0.001919
    44  O   -0.510190
    51  N   -0.186616
    52  C    0.113552
    53  C    0.602378
    54  O   -0.498904
    55  C    0.106123
    56  C    0.006565
    57  C    0.238050
    58  N   -0.331515
    59  C    0.602216
    60  N   -0.388112
    61  N   -0.065631
    62  O   -0.122157
 Electronic spatial extent (au):  <R**2>=         135576.5647
 Charge=              1.0000 electrons
 Dipole moment (field-independent basis, Debye):
    X=            -36.7317    Y=            -10.0373    Z=            -41.5490  Tot=             56.3585
 Quadrupole moment (field-independent basis, Debye-Ang):
   XX=             77.6612   YY=           -177.8098   ZZ=            186.6552
   XY=             88.2464   XZ=            309.2621   YZ=             91.3111
 Traceless Quadrupole moment (field-independent basis, Debye-Ang):
   XX=             48.8257   YY=           -206.6453   ZZ=            157.8197
   XY=             88.2464   XZ=            309.2621   YZ=             91.3111
 Octapole moment (field-independent basis, Debye-Ang**2):
  XXX=           2233.7229  YYY=            833.7167  ZZZ=            814.5191  XYY=           1225.8243
  XXY=           -501.7786  XXZ=           -747.4765  XZZ=          -1367.1768  YZZ=           -506.4102
  YYZ=           1327.4511  XYZ=           -783.5238
 Hexadecapole moment (field-independent basis, Debye-Ang**3):
 XXXX=         -52437.3399 YYYY=          -9986.9730 ZZZZ=         -36913.8608 XXXY=           1314.8206
 XXXZ=         -16802.4108 YYYX=          -5516.8640 YYYZ=          -6824.3189 ZZZX=          -6500.3940
 ZZZY=            -92.6721 XXYY=         -11117.2888 XXZZ=          -3913.6990 YYZZ=         -12542.4818
 XXYZ=           4419.1813 YYXZ=          -9222.1528 ZZXY=           4609.2602
 N-N= 5.257873703604D+03 E-N=-1.495454470285D+04  KE= 1.899806348869D+03
 Unable to Open any file for archive entry.
 1\1\GINC-VIM-000\SP\RB3LYP\6-31G(d)\C23H36N9O7(1+)\KENGMITH\06-Jun-202
 2\0\\# B3LYP/6-31G* empiricaldispersion=gd3 guess=read geom=check nosy
 mm integral(ultrafinegrid)\\Candidate Structure: Conf:727 Charge calc 
 in gas phase\\1,1\N,0,-10.746331302,-3.8123215586,-8.2510503017\C,0,-9
 .3258737688,-4.2917495661,-8.3946453209\C,0,-8.7012221747,-4.109624480
 5,-6.9990463292\O,0,-9.3786605656,-4.4179586711,-6.0200101921\C,0,-8.6
 315771257,-3.5732524918,-9.5456373909\C,0,-9.4086655134,-3.6399546884,
 -10.8604407561\N,0,-8.7291867908,-3.1886610222,-11.9334931129\O,0,-10.
 5700220508,-4.0553682393,-10.9178297937\H,0,-11.1986536331,-4.32050302
 93,-7.4838442391\H,0,-9.3878431105,-5.3658287049,-8.5963407303\H,0,-8.
 460672395,-2.5251138904,-9.2966769124\H,0,-7.639753737,-4.0154682843,-
 9.6940762428\H,0,-9.1919942029,-3.1747774335,-12.833101959\H,0,-7.7998
 394384,-2.7982679409,-11.8421208126\H,0,-10.7274489342,-2.7903847806,-
 8.0060211075\H,0,-11.2046229384,-3.9619849037,-9.1717871829\N,0,-7.470
 2182091,-3.5628933917,-6.9393077016\C,0,-6.6850041309,-3.4775209256,-5
 .7091103508\C,0,-6.3015919503,-2.0180590872,-5.3583070733\O,0,-5.17480
 53432,-1.7677715235,-4.9364174991\C,0,-5.4291884675,-4.3829423727,-5.8
 257181053\C,0,-4.6348520211,-4.1354320001,-7.0937620874\C,0,-4.9827186
 309,-4.7864466251,-8.28926939\C,0,-3.566972196,-3.2274964182,-7.120099
 1125\C,0,-4.3127977072,-4.509285814,-9.4837900393\C,0,-2.8885966853,-2
 .9550403069,-8.3100804969\C,0,-3.2686428339,-3.5832451322,-9.498960012
 6\H,0,-6.9731042052,-3.3412522187,-7.7931034165\H,0,-7.3277466933,-3.8
 567422374,-4.9076673843\H,0,-4.8126468853,-4.2160737138,-4.9403322515\
 H,0,-5.7800955586,-5.4203143002,-5.8013485313\H,0,-5.7695646987,-5.538
 625463,-8.2763676237\H,0,-3.2686135682,-2.7462586466,-6.1957124923\H,0
 ,-4.5900665755,-5.0341334879,-10.3941767824\H,0,-2.050199841,-2.262936
 2188,-8.3045275775\H,0,-2.7375015979,-3.372952789,-10.4226989602\N,0,-
 7.2265835236,-1.0241717127,-5.5082812128\C,0,-8.6487172056,-1.11199991
 73,-5.8001499805\C,0,-9.0122345402,-0.8588072008,-7.2774708992\O,0,-10
 .1296214609,-1.2240528537,-7.6934378558\C,0,-9.4543778761,-0.154258126
 ,-4.8836721391\C,0,-8.9802906359,1.2853646189,-5.0558352837\N,0,-8.374
 5624916,1.8566167921,-3.9878294292\O,0,-9.1198062836,1.8563953472,-6.1
 347840261\H,0,-6.8334170076,-0.092341756,-5.3253444645\H,0,-9.01304636
 96,-2.1126413662,-5.5680987992\H,0,-9.3659974986,-0.5096197168,-3.8522
 128117\H,0,-10.5056809063,-0.205989739,-5.1802828809\H,0,-7.8588400876
 ,2.7131103234,-4.1472198727\H,0,-8.1427996021,1.3254343755,-3.16141077
 66\N,0,-8.100608403,-0.2724304912,-8.0676410045\C,0,-8.4475196012,0.30
 78959683,-9.3574447733\C,0,-7.5116025473,-0.2168988642,-10.4425626741\
 O,0,-6.8086069072,-1.2092848576,-10.3596120916\C,0,-8.5686183209,1.851
 3378049,-9.3180971593\C,0,-7.2743446599,2.6807374781,-9.2197311535\C,0
 ,-6.473751978,2.5821493682,-7.9165603461\N,0,-5.6920156518,1.330228554
 4,-7.8642738399\C,0,-5.0267783818,0.9945944483,-6.677216014\N,0,-5.470
 7694631,1.4337641673,-5.5464735689\N,0,-3.9386857065,0.1579805319,-6.8
 651209846\O,0,-7.5932532102,0.5230089702,-11.5609191175\H,0,-6.9884965
 21,0.1354009995,-12.2218935141\H,0,-7.2157994195,0.0643351458,-7.68274
 80624\H,0,-9.438949819,-0.0874624167,-9.6125101038\H,0,-9.088985093,2.
 1477051501,-10.2345882858\H,0,-9.2212394014,2.0865204398,-8.4739769637
 \H,0,-6.6232824962,2.4684755495,-10.0804180325\H,0,-7.5699564299,3.730
 3679931,-9.3320663825\H,0,-5.7987749368,3.443786248,-7.8267086027\H,0,
 -7.1438054369,2.5962173739,-7.0574910521\H,0,-5.0902754744,1.230659202
 ,-8.6773593066\H,0,-4.9050830886,1.0571827271,-4.7841336953\H,0,-3.738
 5240068,-0.409383105,-6.0487316558\H,0,-3.9588638063,-0.4222305462,-7.
 6980071109\\Version=ES64L-G16RevC.01\HF=-1917.5010886\RMSD=9.264e-09\D
 ipole=-0.6938938,-1.2047238,-1.7236368\Quadrupole=36.3006797,-153.6357
 423,117.3350626,65.6090078,229.9287727,67.8875388\PG=C01 [X(C23H36N9O7
 )]\\@
 The archive entry for this job was punched.


 UNDER MOST GREENE GRASSE LY MOST GREATE SNAKES.
 -- PROVERBS AND REASONS OF THE YEAR 1585
           AS REPRINTED IN PAISLEY MAGAZINE 1828.
 Job cpu time:       0 days  0 hours  5 minutes  1.1 seconds.
 Elapsed time:       0 days  0 hours  1 minutes 16.3 seconds.
 File lengths (MBytes):  RWF=    344 Int=      0 D2E=      0 Chk=     48 Scr=     16
 Normal termination of Gaussian 16 at Mon Jun  6 02:48:08 2022.
