 Entering Gaussian System, Link 0=/opt/software/Gaussian/g16-AVX2-C.01/g16/g16
 Input=charge-conf-797.com
 Output=charge-conf-797.log
 Initial command:
 /opt/software/Gaussian/g16-AVX2-C.01/g16/l1.exe "/mnt/gs18/scratch/users/kengmith/Gau-16454.inp" -scrdir="/mnt/gs18/scratch/users/kengmith/"
 Entering Link 1 = /opt/software/Gaussian/g16-AVX2-C.01/g16/l1.exe PID=     16464.
  
 Copyright (c) 1988-2019, Gaussian, Inc.  All Rights Reserved.
  
 This is part of the Gaussian(R) 16 program.  It is based on
 the Gaussian(R) 09 system (copyright 2009, Gaussian, Inc.),
 the Gaussian(R) 03 system (copyright 2003, Gaussian, Inc.),
 the Gaussian(R) 98 system (copyright 1998, Gaussian, Inc.),
 the Gaussian(R) 94 system (copyright 1995, Gaussian, Inc.),
 the Gaussian 92(TM) system (copyright 1992, Gaussian, Inc.),
 the Gaussian 90(TM) system (copyright 1990, Gaussian, Inc.),
 the Gaussian 88(TM) system (copyright 1988, Gaussian, Inc.),
 the Gaussian 86(TM) system (copyright 1986, Carnegie Mellon
 University), and the Gaussian 82(TM) system (copyright 1983,
 Carnegie Mellon University). Gaussian is a federally registered
 trademark of Gaussian, Inc.
  
 This software contains proprietary and confidential information,
 including trade secrets, belonging to Gaussian, Inc.
  
 This software is provided under written license and may be
 used, copied, transmitted, or stored only in accord with that
 written license.
  
 The following legend is applicable only to US Government
 contracts under FAR:
  
                    RESTRICTED RIGHTS LEGEND
  
 Use, reproduction and disclosure by the US Government is
 subject to restrictions as set forth in subparagraphs (a)
 and (c) of the Commercial Computer Software - Restricted
 Rights clause in FAR 52.227-19.
  
 Gaussian, Inc.
 340 Quinnipiac St., Bldg. 40, Wallingford CT 06492
  
  
 ---------------------------------------------------------------
 Warning -- This program may not be used in any manner that
 competes with the business of Gaussian, Inc. or will provide
 assistance to any competitor of Gaussian, Inc.  The licensee
 of this program is prohibited from giving any competitor of
 Gaussian, Inc. access to this program.  By using this program,
 the user acknowledges that Gaussian, Inc. is engaged in the
 business of creating and licensing software in the field of
 computational chemistry and represents and warrants to the
 licensee that it is not a competitor of Gaussian, Inc. and that
 it will not use this program in any manner prohibited above.
 ---------------------------------------------------------------
  

 Cite this work as:
 Gaussian 16, Revision C.01,
 M. J. Frisch, G. W. Trucks, H. B. Schlegel, G. E. Scuseria, 
 M. A. Robb, J. R. Cheeseman, G. Scalmani, V. Barone, 
 G. A. Petersson, H. Nakatsuji, X. Li, M. Caricato, A. V. Marenich, 
 J. Bloino, B. G. Janesko, R. Gomperts, B. Mennucci, H. P. Hratchian, 
 J. V. Ortiz, A. F. Izmaylov, J. L. Sonnenberg, D. Williams-Young, 
 F. Ding, F. Lipparini, F. Egidi, J. Goings, B. Peng, A. Petrone, 
 T. Henderson, D. Ranasinghe, V. G. Zakrzewski, J. Gao, N. Rega, 
 G. Zheng, W. Liang, M. Hada, M. Ehara, K. Toyota, R. Fukuda, 
 J. Hasegawa, M. Ishida, T. Nakajima, Y. Honda, O. Kitao, H. Nakai, 
 T. Vreven, K. Throssell, J. A. Montgomery, Jr., J. E. Peralta, 
 F. Ogliaro, M. J. Bearpark, J. J. Heyd, E. N. Brothers, K. N. Kudin, 
 V. N. Staroverov, T. A. Keith, R. Kobayashi, J. Normand, 
 K. Raghavachari, A. P. Rendell, J. C. Burant, S. S. Iyengar, 
 J. Tomasi, M. Cossi, J. M. Millam, M. Klene, C. Adamo, R. Cammi, 
 J. W. Ochterski, R. L. Martin, K. Morokuma, O. Farkas, 
 J. B. Foresman, and D. J. Fox, Gaussian, Inc., Wallingford CT, 2019.
 
 ******************************************
 Gaussian 16:  ES64L-G16RevC.01  3-Jul-2019
                24-May-2022 
 ******************************************
 %mem=8gb
 %nproc=4
 Will use up to    4 processors via shared memory.
 %chk=conf-797.chk
 ----------------------------------------------------------------------
 # B3LYP/6-31G* empiricaldispersion=gd3 guess=read geom=check nosymm in
 tegral(ultrafinegrid)
 ----------------------------------------------------------------------
 1/29=2,38=1,172=1/1;
 2/12=2,15=1,40=1/2;
 3/5=1,6=6,7=1,11=2,14=-4,25=1,30=1,74=-5,75=-5,116=-2,124=31/1,2,3;
 4/5=1/1;
 5/5=2,38=6/2;
 6/7=2,8=2,9=2,10=2,28=1/1;
 99/5=1,9=1/99;
 ------------------------------------------------------
 Candidate Structure: Conf:797 Charge calc in gas phase
 ------------------------------------------------------
 Structure from the checkpoint file:  "conf-797.chk"
 Charge =  1 Multiplicity = 1
 Redundant internal coordinates found in file.  (old form).
 N,0,9.0867111849,16.5411108463,12.8765077304
 C,0,9.9129182493,16.852464678,11.7019668613
 C,0,9.2541719963,18.0491877703,10.9934780671
 O,0,8.2974710662,17.9089811291,10.2516748717
 C,0,9.9588905233,15.6499162887,10.7509890691
 C,0,10.3782681476,14.3290105856,11.4444024037
 C,0,11.7051411907,14.4610771876,12.1370054267
 O,0,11.8736136925,15.0092979489,13.2282237905
 O,0,12.7288367125,13.9720554206,11.4318047105
 H,0,13.5530064777,14.123451508,11.933247743
 H,0,10.9506309981,17.1141587313,11.9715179514
 H,0,10.6412580554,15.8638862484,9.9194754118
 H,0,8.9590539079,15.5094420089,10.3335142168
 H,0,9.629647742,14.0680342964,12.1974309478
 H,0,10.4317605251,13.5261489882,10.7058200562
 H,0,9.6192277358,15.9490729535,13.5086853184
 H,0,8.8675951361,17.3943891254,13.3873152411
 N,0,9.7365811246,19.3022550134,11.3045997368
 C,0,11.0067955064,19.6600559528,11.9006713908
 C,0,11.1091137688,19.2047047333,13.3715642647
 O,0,10.1569691934,19.1909149407,14.1294297627
 C,0,11.1928599811,21.1939125143,11.8776940059
 C,0,11.229899735,21.8434580404,10.4785564433
 C,0,11.405783232,23.3615892824,10.6317481257
 C,0,12.3281551792,21.2479895131,9.587573354
 H,0,9.2056376948,20.0440112338,10.8646305209
 H,0,11.8307947537,19.1998252837,11.3358884648
 H,0,12.1351071882,21.4283053705,12.3930866557
 H,0,10.3883648645,21.63703691,12.4783457548
 H,0,10.2631909547,21.6717693663,9.9834488844
 H,0,10.6154099541,23.7973439382,11.2534170776
 H,0,12.3708244863,23.5978302919,11.0980504755
 H,0,11.3775899886,23.8564361793,9.6554539076
 H,0,13.3131430889,21.3425745125,10.0644301352
 H,0,12.1532864039,20.1890243306,9.365237424
 H,0,12.3743907201,21.7756134905,8.6294531723
 N,0,12.3941624591,18.8024685471,13.7203460812
 C,0,12.9386222006,18.6392402021,15.0755067385
 C,0,14.0426217569,17.5760992296,15.0608038086
 O,0,14.861063726,17.4686624585,15.9403394831
 C,0,11.9104401597,18.3017809898,16.1846531031
 C,0,11.0110935855,17.0611303469,15.9801343569
 C,0,11.4338326707,15.782075839,16.7187901792
 N,0,12.5625388798,15.1130960737,16.0569884366
 C,0,13.6946056313,14.6938834021,16.6144441263
 N,0,13.8009105307,14.5103606341,17.9399021925
 N,0,14.7400435896,14.4105853218,15.810806924
 O,0,14.0397843926,16.7015164432,14.0192971044
 H,0,13.2156719272,16.8046572458,13.4979383332
 H,0,13.0992252854,19.0783920116,13.0435674795
 H,0,13.4394338355,19.5637634857,15.3894138661
 H,0,11.2720755283,19.1771478021,16.2994546144
 H,0,12.4994818871,18.2074413696,17.1047342053
 H,0,10.0069265695,17.3122036742,16.3348319019
 H,0,10.8885671859,16.8390129296,14.9173999473
 H,0,10.5908100539,15.0831372142,16.7606542803
 H,0,11.7205494738,16.0226610116,17.7469187507
 H,0,12.4777706008,14.9920528998,15.0467257589
 H,0,12.9857241087,14.4553498516,18.5322085665
 H,0,14.7045910275,14.4622283116,18.3879235818
 H,0,15.5868269947,14.0419312367,16.2217052488
 H,0,14.8646948092,15.0172925653,15.0049505068
 Recover connectivity data from disk.
                           ----------------------------
                           !    Current Parameters    !
                           ! (Angstroms and Degrees)  !
 --------------------------                            --------------------------
 ! Name  Definition              Value                                          !
 --------------------------------------------------------------------------------
 ! R1    R(1,2)                  1.4694                                         !
 ! R2    R(1,16)                 1.0167                                         !
 ! R3    R(1,17)                 1.0183                                         !
 ! R4    R(2,3)                  1.5388                                         !
 ! R5    R(2,5)                  1.5338                                         !
 ! R6    R(2,11)                 1.1036                                         !
 ! R7    R(3,4)                  1.2187                                         !
 ! R8    R(3,18)                 1.3783                                         !
 ! R9    R(5,6)                  1.5497                                         !
 ! R10   R(5,12)                 1.0967                                         !
 ! R11   R(5,13)                 1.0926                                         !
 ! R12   R(6,7)                  1.5026                                         !
 ! R13   R(6,14)                 1.0934                                         !
 ! R14   R(6,15)                 1.0922                                         !
 ! R15   R(7,8)                  1.2328                                         !
 ! R16   R(7,9)                  1.3358                                         !
 ! R17   R(9,10)                 0.9765                                         !
 ! R18   R(18,19)                1.448                                          !
 ! R19   R(18,26)                1.0128                                         !
 ! R20   R(19,20)                1.5432                                         !
 ! R21   R(19,22)                1.5453                                         !
 ! R22   R(19,27)                1.0999                                         !
 ! R23   R(20,21)                1.217                                          !
 ! R24   R(20,37)                1.391                                          !
 ! R25   R(22,23)                1.543                                          !
 ! R26   R(22,28)                1.0993                                         !
 ! R27   R(22,29)                1.0974                                         !
 ! R28   R(23,24)                1.5359                                         !
 ! R29   R(23,25)                1.5345                                         !
 ! R30   R(23,30)                1.0996                                         !
 ! R31   R(24,31)                1.0959                                         !
 ! R32   R(24,32)                1.0975                                         !
 ! R33   R(24,33)                1.0949                                         !
 ! R34   R(25,34)                1.0984                                         !
 ! R35   R(25,35)                1.0961                                         !
 ! R36   R(25,36)                1.0948                                         !
 ! R37   R(37,38)                1.4695                                         !
 ! R38   R(37,50)                1.0155                                         !
 ! R39   R(38,39)                1.5327                                         !
 ! R40   R(38,41)                1.5496                                         !
 ! R41   R(38,51)                1.0973                                         !
 ! R42   R(39,40)                1.2062                                         !
 ! R43   R(39,48)                1.36                                           !
 ! R44   R(41,42)                1.5459                                         !
 ! R45   R(41,52)                1.0895                                         !
 ! R46   R(41,53)                1.0965                                         !
 ! R47   R(42,43)                1.5363                                         !
 ! R48   R(42,54)                1.0942                                         !
 ! R49   R(42,55)                1.0926                                         !
 ! R50   R(43,44)                1.4695                                         !
 ! R51   R(43,56)                1.0959                                         !
 ! R52   R(43,57)                1.0941                                         !
 ! R53   R(44,45)                1.3297                                         !
 ! R54   R(44,58)                1.021                                          !
 ! R55   R(45,46)                1.3423                                         !
 ! R56   R(45,47)                1.3487                                         !
 ! R57   R(46,59)                1.0091                                         !
 ! R58   R(46,60)                1.0098                                         !
 ! R59   R(47,61)                1.0108                                         !
 ! R60   R(47,62)                1.0164                                         !
 ! R61   R(48,49)                0.9806                                         !
 ! A1    A(2,1,16)             109.0201                                         !
 ! A2    A(2,1,17)             110.1447                                         !
 ! A3    A(16,1,17)            106.7814                                         !
 ! A4    A(1,2,3)              106.9839                                         !
 ! A5    A(1,2,5)              110.2624                                         !
 ! A6    A(1,2,11)             112.5637                                         !
 ! A7    A(3,2,5)              109.6999                                         !
 ! A8    A(3,2,11)             109.3026                                         !
 ! A9    A(5,2,11)             108.0085                                         !
 ! A10   A(2,3,4)              121.7911                                         !
 ! A11   A(2,3,18)             116.9532                                         !
 ! A12   A(4,3,18)             121.1149                                         !
 ! A13   A(2,5,6)              113.5136                                         !
 ! A14   A(2,5,12)             109.6188                                         !
 ! A15   A(2,5,13)             108.0764                                         !
 ! A16   A(6,5,12)             109.7045                                         !
 ! A17   A(6,5,13)             108.0013                                         !
 ! A18   A(12,5,13)            107.7437                                         !
 ! A19   A(5,6,7)              111.7349                                         !
 ! A20   A(5,6,14)             109.0453                                         !
 ! A21   A(5,6,15)             109.7083                                         !
 ! A22   A(7,6,14)             107.9464                                         !
 ! A23   A(7,6,15)             109.4545                                         !
 ! A24   A(14,6,15)            108.8922                                         !
 ! A25   A(6,7,8)              124.5963                                         !
 ! A26   A(6,7,9)              113.6542                                         !
 ! A27   A(8,7,9)              121.6936                                         !
 ! A28   A(7,9,10)             108.5987                                         !
 ! A29   A(3,18,19)            128.6523                                         !
 ! A30   A(3,18,26)            112.6012                                         !
 ! A31   A(19,18,26)           117.241                                          !
 ! A32   A(18,19,20)           112.1862                                         !
 ! A33   A(18,19,22)           110.168                                          !
 ! A34   A(18,19,27)           110.0233                                         !
 ! A35   A(20,19,22)           107.4028                                         !
 ! A36   A(20,19,27)           108.4393                                         !
 ! A37   A(22,19,27)           108.5118                                         !
 ! A38   A(19,20,21)           123.0268                                         !
 ! A39   A(19,20,37)           112.6804                                         !
 ! A40   A(21,20,37)           124.2886                                         !
 ! A41   A(19,22,23)           115.736                                          !
 ! A42   A(19,22,28)           107.932                                          !
 ! A43   A(19,22,29)           107.7217                                         !
 ! A44   A(23,22,28)           108.3486                                         !
 ! A45   A(23,22,29)           110.1155                                         !
 ! A46   A(28,22,29)           106.5975                                         !
 ! A47   A(22,23,24)           109.1711                                         !
 ! A48   A(22,23,25)           112.354                                          !
 ! A49   A(22,23,30)           108.7504                                         !
 ! A50   A(24,23,25)           111.0704                                         !
 ! A51   A(24,23,30)           107.4519                                         !
 ! A52   A(25,23,30)           107.89                                           !
 ! A53   A(23,24,31)           111.5304                                         !
 ! A54   A(23,24,32)           110.8436                                         !
 ! A55   A(23,24,33)           110.7831                                         !
 ! A56   A(31,24,32)           107.9113                                         !
 ! A57   A(31,24,33)           107.9105                                         !
 ! A58   A(32,24,33)           107.7101                                         !
 ! A59   A(23,25,34)           110.8742                                         !
 ! A60   A(23,25,35)           112.2415                                         !
 ! A61   A(23,25,36)           110.5712                                         !
 ! A62   A(34,25,35)           108.3195                                         !
 ! A63   A(34,25,36)           107.4917                                         !
 ! A64   A(35,25,36)           107.1478                                         !
 ! A65   A(20,37,38)           127.2746                                         !
 ! A66   A(20,37,50)           113.3122                                         !
 ! A67   A(38,37,50)           112.7999                                         !
 ! A68   A(37,38,39)           109.5761                                         !
 ! A69   A(37,38,41)           116.0027                                         !
 ! A70   A(37,38,51)           109.8351                                         !
 ! A71   A(39,38,41)           109.4954                                         !
 ! A72   A(39,38,51)           104.9757                                         !
 ! A73   A(41,38,51)           106.3528                                         !
 ! A74   A(38,39,40)           122.9226                                         !
 ! A75   A(38,39,48)           116.8649                                         !
 ! A76   A(40,39,48)           120.168                                          !
 ! A77   A(38,41,42)           117.7802                                         !
 ! A78   A(38,41,52)           106.8117                                         !
 ! A79   A(38,41,53)           105.2414                                         !
 ! A80   A(42,41,52)           108.535                                          !
 ! A81   A(42,41,53)           110.7608                                         !
 ! A82   A(52,41,53)           107.1853                                         !
 ! A83   A(41,42,43)           116.3886                                         !
 ! A84   A(41,42,54)           107.8703                                         !
 ! A85   A(41,42,55)           110.9204                                         !
 ! A86   A(43,42,54)           106.7208                                         !
 ! A87   A(43,42,55)           109.224                                          !
 ! A88   A(54,42,55)           105.0133                                         !
 ! A89   A(42,43,44)           111.9516                                         !
 ! A90   A(42,43,56)           109.7355                                         !
 ! A91   A(42,43,57)           109.9274                                         !
 ! A92   A(44,43,56)           108.5248                                         !
 ! A93   A(44,43,57)           108.7845                                         !
 ! A94   A(56,43,57)           107.814                                          !
 ! A95   A(43,44,45)           127.4914                                         !
 ! A96   A(43,44,58)           115.8369                                         !
 ! A97   A(45,44,58)           116.6239                                         !
 ! A98   A(44,45,46)           121.6346                                         !
 ! A99   A(44,45,47)           118.4474                                         !
 ! A100  A(46,45,47)           119.8852                                         !
 ! A101  A(45,46,59)           121.5366                                         !
 ! A102  A(45,46,60)           121.0305                                         !
 ! A103  A(59,46,60)           117.3808                                         !
 ! A104  A(45,47,61)           118.9295                                         !
 ! A105  A(45,47,62)           116.2387                                         !
 ! A106  A(61,47,62)           115.9291                                         !
 ! A107  A(39,48,49)           109.954                                          !
 ! D1    D(16,1,2,3)          -163.7656                                         !
 ! D2    D(16,1,2,5)            76.9945                                         !
 ! D3    D(16,1,2,11)          -43.6869                                         !
 ! D4    D(17,1,2,3)           -46.9097                                         !
 ! D5    D(17,1,2,5)          -166.1496                                         !
 ! D6    D(17,1,2,11)           73.169                                          !
 ! D7    D(1,2,3,4)            -80.575                                          !
 ! D8    D(1,2,3,18)            95.1557                                         !
 ! D9    D(5,2,3,4)             39.0275                                         !
 ! D10   D(5,2,3,18)          -145.2417                                         !
 ! D11   D(11,2,3,4)           157.279                                          !
 ! D12   D(11,2,3,18)          -26.9903                                         !
 ! D13   D(1,2,5,6)            -52.448                                          !
 ! D14   D(1,2,5,12)          -175.5038                                         !
 ! D15   D(1,2,5,13)            67.3229                                         !
 ! D16   D(3,2,5,6)           -170.0229                                         !
 ! D17   D(3,2,5,12)            66.9213                                         !
 ! D18   D(3,2,5,13)           -50.252                                          !
 ! D19   D(11,2,5,6)            70.926                                          !
 ! D20   D(11,2,5,12)          -52.1298                                         !
 ! D21   D(11,2,5,13)         -169.3031                                         !
 ! D22   D(2,3,18,19)           19.5524                                         !
 ! D23   D(2,3,18,26)         -175.0225                                         !
 ! D24   D(4,3,18,19)         -164.6861                                         !
 ! D25   D(4,3,18,26)            0.739                                          !
 ! D26   D(2,5,6,7)            -56.027                                          !
 ! D27   D(2,5,6,14)            63.2175                                         !
 ! D28   D(2,5,6,15)          -177.6052                                         !
 ! D29   D(12,5,6,7)            66.9816                                         !
 ! D30   D(12,5,6,14)         -173.7739                                         !
 ! D31   D(12,5,6,15)          -54.5966                                         !
 ! D32   D(13,5,6,7)          -175.8406                                         !
 ! D33   D(13,5,6,14)          -56.5961                                         !
 ! D34   D(13,5,6,15)           62.5811                                         !
 ! D35   D(5,6,7,8)             78.2087                                         !
 ! D36   D(5,6,7,9)            -99.1045                                         !
 ! D37   D(14,6,7,8)           -41.6838                                         !
 ! D38   D(14,6,7,9)           141.003                                          !
 ! D39   D(15,6,7,8)          -160.0666                                         !
 ! D40   D(15,6,7,9)            22.6202                                         !
 ! D41   D(6,7,9,10)           178.039                                          !
 ! D42   D(8,7,9,10)             0.6383                                         !
 ! D43   D(3,18,19,20)         -68.4376                                         !
 ! D44   D(3,18,19,22)         171.966                                          !
 ! D45   D(3,18,19,27)          52.3719                                         !
 ! D46   D(26,18,19,20)        126.7096                                         !
 ! D47   D(26,18,19,22)          7.1133                                         !
 ! D48   D(26,18,19,27)       -112.4808                                         !
 ! D49   D(18,19,20,21)        -34.6612                                         !
 ! D50   D(18,19,20,37)        144.6182                                         !
 ! D51   D(22,19,20,21)         86.5387                                         !
 ! D52   D(22,19,20,37)        -94.1819                                         !
 ! D53   D(27,19,20,21)       -156.3808                                         !
 ! D54   D(27,19,20,37)         22.8986                                         !
 ! D55   D(18,19,22,23)        -61.9289                                         !
 ! D56   D(18,19,22,28)        176.5173                                         !
 ! D57   D(18,19,22,29)         61.7711                                         !
 ! D58   D(20,19,22,23)        175.6115                                         !
 ! D59   D(20,19,22,28)         54.0577                                         !
 ! D60   D(20,19,22,29)        -60.6884                                         !
 ! D61   D(27,19,22,23)         58.5785                                         !
 ! D62   D(27,19,22,28)        -62.9753                                         !
 ! D63   D(27,19,22,29)       -177.7215                                         !
 ! D64   D(19,20,37,38)        163.1801                                         !
 ! D65   D(19,20,37,50)         14.0596                                         !
 ! D66   D(21,20,37,38)        -17.5512                                         !
 ! D67   D(21,20,37,50)       -166.6716                                         !
 ! D68   D(19,22,23,24)        179.4686                                         !
 ! D69   D(19,22,23,25)        -56.8535                                         !
 ! D70   D(19,22,23,30)         62.511                                          !
 ! D71   D(28,22,23,24)        -59.2009                                         !
 ! D72   D(28,22,23,25)         64.4771                                         !
 ! D73   D(28,22,23,30)       -176.1584                                         !
 ! D74   D(29,22,23,24)         57.0287                                         !
 ! D75   D(29,22,23,25)       -179.2934                                         !
 ! D76   D(29,22,23,30)        -59.9289                                         !
 ! D77   D(22,23,24,31)        -56.5106                                         !
 ! D78   D(22,23,24,32)         63.7528                                         !
 ! D79   D(22,23,24,33)       -176.7319                                         !
 ! D80   D(25,23,24,31)        179.0552                                         !
 ! D81   D(25,23,24,32)        -60.6814                                         !
 ! D82   D(25,23,24,33)         58.8339                                         !
 ! D83   D(30,23,24,31)         61.2669                                         !
 ! D84   D(30,23,24,32)       -178.4697                                         !
 ! D85   D(30,23,24,33)        -58.9544                                         !
 ! D86   D(22,23,25,34)        -56.9412                                         !
 ! D87   D(22,23,25,35)         64.3497                                         !
 ! D88   D(22,23,25,36)       -176.0657                                         !
 ! D89   D(24,23,25,34)         65.6711                                         !
 ! D90   D(24,23,25,35)       -173.038                                          !
 ! D91   D(24,23,25,36)        -53.4534                                         !
 ! D92   D(30,23,25,34)       -176.8069                                         !
 ! D93   D(30,23,25,35)        -55.516                                          !
 ! D94   D(30,23,25,36)         64.0685                                         !
 ! D95   D(20,37,38,39)        151.7881                                         !
 ! D96   D(20,37,38,41)         27.2076                                         !
 ! D97   D(20,37,38,51)        -93.3878                                         !
 ! D98   D(50,37,38,39)        -58.9614                                         !
 ! D99   D(50,37,38,41)        176.4581                                         !
 ! D100  D(50,37,38,51)         55.8628                                         !
 ! D101  D(37,38,39,40)        161.8626                                         !
 ! D102  D(37,38,39,48)        -20.5636                                         !
 ! D103  D(41,38,39,40)        -69.8573                                         !
 ! D104  D(41,38,39,48)        107.7165                                         !
 ! D105  D(51,38,39,40)         43.9634                                         !
 ! D106  D(51,38,39,48)       -138.4628                                         !
 ! D107  D(37,38,41,42)         55.2954                                         !
 ! D108  D(37,38,41,52)        -67.0149                                         !
 ! D109  D(37,38,41,53)        179.2674                                         !
 ! D110  D(39,38,41,42)        -69.3266                                         !
 ! D111  D(39,38,41,52)        168.3631                                         !
 ! D112  D(39,38,41,53)         54.6454                                         !
 ! D113  D(51,38,41,42)        177.7462                                         !
 ! D114  D(51,38,41,52)         55.4359                                         !
 ! D115  D(51,38,41,53)        -58.2818                                         !
 ! D116  D(38,39,48,49)         -9.3459                                         !
 ! D117  D(40,39,48,49)        168.2985                                         !
 ! D118  D(38,41,42,43)         99.8596                                         !
 ! D119  D(38,41,42,54)       -140.3105                                         !
 ! D120  D(38,41,42,55)        -25.8142                                         !
 ! D121  D(52,41,42,43)       -138.7134                                         !
 ! D122  D(52,41,42,54)        -18.8835                                         !
 ! D123  D(52,41,42,55)         95.6129                                         !
 ! D124  D(53,41,42,43)        -21.3029                                         !
 ! D125  D(53,41,42,54)         98.527                                          !
 ! D126  D(53,41,42,55)       -146.9766                                         !
 ! D127  D(41,42,43,44)        -76.9181                                         !
 ! D128  D(41,42,43,56)        162.5168                                         !
 ! D129  D(41,42,43,57)         44.1067                                         !
 ! D130  D(54,42,43,44)        162.6355                                         !
 ! D131  D(54,42,43,56)         42.0704                                         !
 ! D132  D(54,42,43,57)        -76.3397                                         !
 ! D133  D(55,42,43,44)         49.6058                                         !
 ! D134  D(55,42,43,56)        -70.9593                                         !
 ! D135  D(55,42,43,57)        170.6306                                         !
 ! D136  D(42,43,44,45)        129.7712                                         !
 ! D137  D(42,43,44,58)        -47.6098                                         !
 ! D138  D(56,43,44,45)       -108.9624                                         !
 ! D139  D(56,43,44,58)         73.6566                                         !
 ! D140  D(57,43,44,45)          8.0875                                         !
 ! D141  D(57,43,44,58)       -169.2935                                         !
 ! D142  D(43,44,45,46)         18.4403                                         !
 ! D143  D(43,44,45,47)       -163.643                                          !
 ! D144  D(58,44,45,46)       -164.1965                                         !
 ! D145  D(58,44,45,47)         13.7202                                         !
 ! D146  D(44,45,46,59)         15.6313                                         !
 ! D147  D(44,45,46,60)       -161.675                                          !
 ! D148  D(47,45,46,59)       -162.256                                          !
 ! D149  D(47,45,46,60)         20.4376                                         !
 ! D150  D(44,45,47,61)       -176.5919                                         !
 ! D151  D(44,45,47,62)         37.3689                                         !
 ! D152  D(46,45,47,61)          1.3623                                         !
 ! D153  D(46,45,47,62)       -144.6769                                         !
 --------------------------------------------------------------------------------
 Symmetry turned off by external request.
 Stoichiometry    C17H33N6O6(1+)
 Framework group  C1[X(C17H33N6O6)]
 Deg. of freedom   180
 Full point group                 C1      NOp   1
                          Input orientation:                          
 ---------------------------------------------------------------------
 Center     Atomic      Atomic             Coordinates (Angstroms)
 Number     Number       Type             X           Y           Z
 ---------------------------------------------------------------------
      1          7           0        9.086711   16.541111   12.876508
      2          6           0        9.912918   16.852465   11.701967
      3          6           0        9.254172   18.049188   10.993478
      4          8           0        8.297471   17.908981   10.251675
      5          6           0        9.958891   15.649916   10.750989
      6          6           0       10.378268   14.329011   11.444402
      7          6           0       11.705141   14.461077   12.137005
      8          8           0       11.873614   15.009298   13.228224
      9          8           0       12.728837   13.972055   11.431805
     10          1           0       13.553006   14.123452   11.933248
     11          1           0       10.950631   17.114159   11.971518
     12          1           0       10.641258   15.863886    9.919475
     13          1           0        8.959054   15.509442   10.333514
     14          1           0        9.629648   14.068034   12.197431
     15          1           0       10.431761   13.526149   10.705820
     16          1           0        9.619228   15.949073   13.508685
     17          1           0        8.867595   17.394389   13.387315
     18          7           0        9.736581   19.302255   11.304600
     19          6           0       11.006796   19.660056   11.900671
     20          6           0       11.109114   19.204705   13.371564
     21          8           0       10.156969   19.190915   14.129430
     22          6           0       11.192860   21.193913   11.877694
     23          6           0       11.229900   21.843458   10.478556
     24          6           0       11.405783   23.361589   10.631748
     25          6           0       12.328155   21.247990    9.587573
     26          1           0        9.205638   20.044011   10.864631
     27          1           0       11.830795   19.199825   11.335888
     28          1           0       12.135107   21.428305   12.393087
     29          1           0       10.388365   21.637037   12.478346
     30          1           0       10.263191   21.671769    9.983449
     31          1           0       10.615410   23.797344   11.253417
     32          1           0       12.370824   23.597830   11.098050
     33          1           0       11.377590   23.856436    9.655454
     34          1           0       13.313143   21.342575   10.064430
     35          1           0       12.153286   20.189024    9.365237
     36          1           0       12.374391   21.775613    8.629453
     37          7           0       12.394162   18.802469   13.720346
     38          6           0       12.938622   18.639240   15.075507
     39          6           0       14.042622   17.576099   15.060804
     40          8           0       14.861064   17.468662   15.940339
     41          6           0       11.910440   18.301781   16.184653
     42          6           0       11.011094   17.061130   15.980134
     43          6           0       11.433833   15.782076   16.718790
     44          7           0       12.562539   15.113096   16.056988
     45          6           0       13.694606   14.693883   16.614444
     46          7           0       13.800911   14.510361   17.939902
     47          7           0       14.740044   14.410585   15.810807
     48          8           0       14.039784   16.701516   14.019297
     49          1           0       13.215672   16.804657   13.497938
     50          1           0       13.099225   19.078392   13.043567
     51          1           0       13.439434   19.563763   15.389414
     52          1           0       11.272076   19.177148   16.299455
     53          1           0       12.499482   18.207441   17.104734
     54          1           0       10.006927   17.312204   16.334832
     55          1           0       10.888567   16.839013   14.917400
     56          1           0       10.590810   15.083137   16.760654
     57          1           0       11.720549   16.022661   17.746919
     58          1           0       12.477771   14.992053   15.046726
     59          1           0       12.985724   14.455350   18.532209
     60          1           0       14.704591   14.462228   18.387924
     61          1           0       15.586827   14.041931   16.221705
     62          1           0       14.864695   15.017293   15.004951
 ---------------------------------------------------------------------
 Rotational constants (GHZ):           0.2225726           0.1110009           0.0910220
 Standard basis: 6-31G(d) (6D, 7F)
   501 basis functions,   944 primitive gaussians,   501 cartesian basis functions
   112 alpha electrons      112 beta electrons
       nuclear repulsion energy      3229.4165604656 Hartrees.
 NAtoms=   62 NActive=   62 NUniq=   62 SFac= 1.00D+00 NAtFMM=   60 NAOKFM=T Big=T
 Integral buffers will be    131072 words long.
 Raffenetti 2 integral format.
 Two-electron integral symmetry is turned off.
 Nuclear repulsion after empirical dispersion term =     3229.3278686196 Hartrees.
 One-electron integrals computed using PRISM.
 NBasis=   501 RedAO= T EigKep=  1.77D-03  NBF=   501
 NBsUse=   501 1.00D-06 EigRej= -1.00D+00 NBFU=   501
 Initial guess from the checkpoint file:  "conf-797.chk"
 B after Tr=     0.000000    0.000000    0.000000
         Rot=    1.000000    0.000000    0.000000    0.000000 Ang=   0.00 deg.
 Requested convergence on RMS density matrix=1.00D-08 within 128 cycles.
 Requested convergence on MAX density matrix=1.00D-06.
 Requested convergence on             energy=1.00D-06.
 No special actions if energy rises.
 SCF Done:  E(RB3LYP) =  -1447.48163603     A.U. after    1 cycles
            NFock=  1  Conv=0.58D-08     -V/T= 2.0093

 **********************************************************************

            Population analysis using the SCF Density.

 **********************************************************************

 Alpha  occ. eigenvalues --  -19.32864 -19.32790 -19.27820 -19.26587 -19.24026
 Alpha  occ. eigenvalues --  -19.19625 -14.52854 -14.51706 -14.51215 -14.49431
 Alpha  occ. eigenvalues --  -14.44682 -14.40245 -10.48432 -10.45520 -10.44860
 Alpha  occ. eigenvalues --  -10.40989 -10.37179 -10.37018 -10.36587 -10.34410
 Alpha  occ. eigenvalues --  -10.31504 -10.31504 -10.31177 -10.30343 -10.29187
 Alpha  occ. eigenvalues --  -10.28403 -10.28250 -10.25974 -10.25287  -1.23953
 Alpha  occ. eigenvalues --   -1.23295  -1.16911  -1.16038  -1.15001  -1.14537
 Alpha  occ. eigenvalues --   -1.11752  -1.06339  -1.05466  -1.05013  -1.01566
 Alpha  occ. eigenvalues --   -0.97804  -0.92875  -0.90362  -0.89407  -0.88543
 Alpha  occ. eigenvalues --   -0.84239  -0.81752  -0.81428  -0.78829  -0.76804
 Alpha  occ. eigenvalues --   -0.75939  -0.75040  -0.74894  -0.74207  -0.72801
 Alpha  occ. eigenvalues --   -0.70751  -0.70415  -0.68854  -0.67442  -0.66595
 Alpha  occ. eigenvalues --   -0.66103  -0.65416  -0.64558  -0.63658  -0.62845
 Alpha  occ. eigenvalues --   -0.61808  -0.61007  -0.60355  -0.59224  -0.58932
 Alpha  occ. eigenvalues --   -0.58334  -0.57925  -0.57631  -0.56871  -0.56315
 Alpha  occ. eigenvalues --   -0.55946  -0.55365  -0.54411  -0.53954  -0.53425
 Alpha  occ. eigenvalues --   -0.52839  -0.52117  -0.51985  -0.51567  -0.51126
 Alpha  occ. eigenvalues --   -0.50412  -0.49925  -0.49247  -0.48128  -0.47831
 Alpha  occ. eigenvalues --   -0.47206  -0.47030  -0.46706  -0.46429  -0.45940
 Alpha  occ. eigenvalues --   -0.45468  -0.45072  -0.44920  -0.44561  -0.43955
 Alpha  occ. eigenvalues --   -0.43832  -0.41916  -0.41579  -0.41501  -0.41158
 Alpha  occ. eigenvalues --   -0.40860  -0.40496  -0.38900  -0.36984  -0.34256
 Alpha  occ. eigenvalues --   -0.33086  -0.32413
 Alpha virt. eigenvalues --   -0.13551  -0.12845  -0.12156  -0.10606  -0.08211
 Alpha virt. eigenvalues --   -0.07332  -0.06901  -0.05071  -0.04350  -0.02567
 Alpha virt. eigenvalues --   -0.01585  -0.01357  -0.00661  -0.00362   0.00524
 Alpha virt. eigenvalues --    0.01470   0.02029   0.02649   0.02881   0.03046
 Alpha virt. eigenvalues --    0.04266   0.04594   0.04684   0.04961   0.05106
 Alpha virt. eigenvalues --    0.05619   0.06384   0.06960   0.06990   0.07337
 Alpha virt. eigenvalues --    0.07861   0.08080   0.08373   0.08864   0.09281
 Alpha virt. eigenvalues --    0.09662   0.10468   0.10621   0.10852   0.11143
 Alpha virt. eigenvalues --    0.11720   0.12418   0.12572   0.12920   0.13427
 Alpha virt. eigenvalues --    0.14350   0.14639   0.15263   0.15719   0.16221
 Alpha virt. eigenvalues --    0.16603   0.17045   0.17915   0.18589   0.19498
 Alpha virt. eigenvalues --    0.20540   0.20655   0.21643   0.22336   0.24629
 Alpha virt. eigenvalues --    0.24864   0.26538   0.27329   0.28144   0.30032
 Alpha virt. eigenvalues --    0.32384   0.34348   0.36982   0.38785   0.39144
 Alpha virt. eigenvalues --    0.39819   0.40890   0.41429   0.42151   0.42392
 Alpha virt. eigenvalues --    0.42558   0.43157   0.43452   0.43888   0.44264
 Alpha virt. eigenvalues --    0.45543   0.45618   0.47438   0.47783   0.48179
 Alpha virt. eigenvalues --    0.48568   0.49545   0.50097   0.50460   0.50858
 Alpha virt. eigenvalues --    0.51282   0.52475   0.53126   0.53259   0.53679
 Alpha virt. eigenvalues --    0.53911   0.54677   0.54830   0.55978   0.56372
 Alpha virt. eigenvalues --    0.57082   0.58096   0.58893   0.59067   0.59253
 Alpha virt. eigenvalues --    0.60618   0.61016   0.61793   0.62465   0.62854
 Alpha virt. eigenvalues --    0.63144   0.63770   0.64083   0.64305   0.65584
 Alpha virt. eigenvalues --    0.65896   0.67130   0.67928   0.68569   0.69684
 Alpha virt. eigenvalues --    0.69864   0.70683   0.71498   0.72100   0.72924
 Alpha virt. eigenvalues --    0.73054   0.73825   0.74406   0.74607   0.75489
 Alpha virt. eigenvalues --    0.75952   0.76004   0.76619   0.76980   0.77498
 Alpha virt. eigenvalues --    0.77709   0.78348   0.79168   0.79335   0.79592
 Alpha virt. eigenvalues --    0.80397   0.80637   0.81130   0.81554   0.82007
 Alpha virt. eigenvalues --    0.82563   0.82748   0.83546   0.83697   0.84439
 Alpha virt. eigenvalues --    0.84653   0.85272   0.85807   0.85855   0.86321
 Alpha virt. eigenvalues --    0.86685   0.87362   0.88044   0.88896   0.89746
 Alpha virt. eigenvalues --    0.90059   0.90573   0.91454   0.92250   0.92719
 Alpha virt. eigenvalues --    0.92859   0.93899   0.94157   0.95117   0.95905
 Alpha virt. eigenvalues --    0.98304   0.98748   0.99587   0.99995   1.02113
 Alpha virt. eigenvalues --    1.02885   1.03833   1.04551   1.06270   1.06954
 Alpha virt. eigenvalues --    1.08053   1.08977   1.09239   1.10504   1.11302
 Alpha virt. eigenvalues --    1.12961   1.13963   1.14728   1.15291   1.16690
 Alpha virt. eigenvalues --    1.17358   1.18109   1.20298   1.22381   1.23850
 Alpha virt. eigenvalues --    1.25060   1.25604   1.26651   1.27444   1.28990
 Alpha virt. eigenvalues --    1.30171   1.31192   1.31887   1.32259   1.33386
 Alpha virt. eigenvalues --    1.34334   1.35603   1.36373   1.37321   1.38535
 Alpha virt. eigenvalues --    1.39402   1.41470   1.42743   1.43815   1.44292
 Alpha virt. eigenvalues --    1.45381   1.47928   1.48397   1.49189   1.49881
 Alpha virt. eigenvalues --    1.50573   1.50958   1.53966   1.54913   1.55271
 Alpha virt. eigenvalues --    1.56629   1.57637   1.57956   1.58607   1.60440
 Alpha virt. eigenvalues --    1.62014   1.62633   1.63368   1.63734   1.64219
 Alpha virt. eigenvalues --    1.64671   1.65747   1.66746   1.68530   1.68783
 Alpha virt. eigenvalues --    1.69860   1.70073   1.70498   1.71129   1.72427
 Alpha virt. eigenvalues --    1.72571   1.73282   1.74093   1.74650   1.75756
 Alpha virt. eigenvalues --    1.75822   1.76695   1.77425   1.79188   1.79588
 Alpha virt. eigenvalues --    1.80226   1.81030   1.81893   1.82241   1.83117
 Alpha virt. eigenvalues --    1.83453   1.84096   1.85143   1.86074   1.87410
 Alpha virt. eigenvalues --    1.87680   1.88724   1.89386   1.90744   1.91487
 Alpha virt. eigenvalues --    1.91904   1.91984   1.92300   1.93510   1.93922
 Alpha virt. eigenvalues --    1.95347   1.96286   1.97565   1.98167   1.98427
 Alpha virt. eigenvalues --    1.99099   2.00159   2.00423   2.01811   2.02154
 Alpha virt. eigenvalues --    2.02591   2.03940   2.05373   2.07131   2.08170
 Alpha virt. eigenvalues --    2.10542   2.11127   2.11253   2.12845   2.15579
 Alpha virt. eigenvalues --    2.16148   2.16535   2.17673   2.19858   2.20997
 Alpha virt. eigenvalues --    2.21654   2.22410   2.23765   2.24765   2.25086
 Alpha virt. eigenvalues --    2.26512   2.28222   2.29374   2.30476   2.30724
 Alpha virt. eigenvalues --    2.31591   2.33116   2.34519   2.35898   2.36245
 Alpha virt. eigenvalues --    2.38136   2.38817   2.39013   2.39047   2.40584
 Alpha virt. eigenvalues --    2.42719   2.42874   2.43323   2.44142   2.45789
 Alpha virt. eigenvalues --    2.46793   2.48465   2.50082   2.50656   2.50964
 Alpha virt. eigenvalues --    2.53827   2.54415   2.54929   2.56992   2.58577
 Alpha virt. eigenvalues --    2.59268   2.60377   2.61208   2.61592   2.62321
 Alpha virt. eigenvalues --    2.62565   2.65279   2.68667   2.70178   2.73000
 Alpha virt. eigenvalues --    2.74088   2.76436   2.76967   2.78939   2.86087
 Alpha virt. eigenvalues --    2.88567   2.90783   2.91408   2.91950   2.94120
 Alpha virt. eigenvalues --    2.95831   2.97153   2.98675   3.04563   3.07354
 Alpha virt. eigenvalues --    3.65575   3.73255   3.75613   3.78085   3.80772
 Alpha virt. eigenvalues --    3.85510   3.93853   3.98595   4.02902   4.04910
 Alpha virt. eigenvalues --    4.07126   4.08379   4.09199   4.10690   4.14064
 Alpha virt. eigenvalues --    4.20509   4.21656   4.24091   4.26783   4.31618
 Alpha virt. eigenvalues --    4.33767   4.36647   4.39565   4.45155   4.45899
 Alpha virt. eigenvalues --    4.48591   4.56892   4.64182   4.66277
          Condensed to atoms (all electrons):
 Mulliken charges:
               1
     1  N   -0.736409
     2  C   -0.056991
     3  C    0.604804
     4  O   -0.479405
     5  C   -0.270421
     6  C   -0.359088
     7  C    0.585645
     8  O   -0.526468
     9  O   -0.517386
    10  H    0.414295
    11  H    0.095198
    12  H    0.153416
    13  H    0.215188
    14  H    0.201752
    15  H    0.198558
    16  H    0.309407
    17  H    0.338939
    18  N   -0.607856
    19  C   -0.045753
    20  C    0.632241
    21  O   -0.500417
    22  C   -0.300500
    23  C   -0.083975
    24  C   -0.445918
    25  C   -0.454541
    26  H    0.348243
    27  H    0.144739
    28  H    0.137248
    29  H    0.177151
    30  H    0.140704
    31  H    0.155723
    32  H    0.146756
    33  H    0.165216
    34  H    0.137354
    35  H    0.147380
    36  H    0.171638
    37  N   -0.673978
    38  C   -0.041461
    39  C    0.608273
    40  O   -0.464247
    41  C   -0.280727
    42  C   -0.304188
    43  C   -0.164716
    44  N   -0.616896
    45  C    0.785936
    46  N   -0.755659
    47  N   -0.750590
    48  O   -0.623451
    49  H    0.448891
    50  H    0.345535
    51  H    0.206779
    52  H    0.208776
    53  H    0.168621
    54  H    0.192497
    55  H    0.165275
    56  H    0.194494
    57  H    0.167928
    58  H    0.411123
    59  H    0.385230
    60  H    0.384350
    61  H    0.367618
    62  H    0.398120
 Sum of Mulliken charges =   1.00000
 Mulliken charges with hydrogens summed into heavy atoms:
               1
     1  N   -0.088062
     2  C    0.038207
     3  C    0.604804
     4  O   -0.479405
     5  C    0.098183
     6  C    0.041222
     7  C    0.585645
     8  O   -0.526468
     9  O   -0.103091
    18  N   -0.259612
    19  C    0.098985
    20  C    0.632241
    21  O   -0.500417
    22  C    0.013899
    23  C    0.056729
    24  C    0.021777
    25  C    0.001831
    37  N   -0.328442
    38  C    0.165318
    39  C    0.608273
    40  O   -0.464247
    41  C    0.096670
    42  C    0.053583
    43  C    0.197706
    44  N   -0.205773
    45  C    0.785936
    46  N    0.013921
    47  N    0.015148
    48  O   -0.174561
 Electronic spatial extent (au):  <R**2>=         509162.4957
 Charge=              1.0000 electrons
 Dipole moment (field-independent basis, Debye):
    X=             65.8231    Y=             77.7744    Z=             73.6466  Tot=            125.7193
 Quadrupole moment (field-independent basis, Debye-Ang):
   XX=            716.3455   YY=           1135.5689   ZZ=            997.0805
   XY=           1057.7595   XZ=           1000.3691   YZ=           1164.7404
 Traceless Quadrupole moment (field-independent basis, Debye-Ang):
   XX=           -233.3194   YY=            185.9039   ZZ=             47.4155
   XY=           1057.7595   XZ=           1000.3691   YZ=           1164.7404
 Octapole moment (field-independent basis, Debye-Ang**2):
  XXX=           5951.4928  YYY=          13856.7181  ZZZ=          12273.8875  XYY=          15574.8497
  XXY=          11099.5961  XXZ=          11208.5996  XZZ=          13770.0040  YZZ=          15108.0776
  YYZ=          16712.6894  XYZ=          15703.9682
 Hexadecapole moment (field-independent basis, Debye-Ang**3):
 XXXX=          18733.5773 YYYY=          93850.4815 ZZZZ=         132868.8433 XXXY=          82457.7299
 XXXZ=         101368.3542 YYYX=         198324.3564 YYYZ=         202335.2232 ZZZX=         175808.2815
 ZZZY=         172962.8141 XXYY=         153460.8270 XXZZ=         157456.3279 YYZZ=         202512.3753
 XXYZ=         169893.6007 YYXZ=         226537.1977 ZZXY=         207713.6969
 N-N= 3.229327868620D+03 E-N=-9.807466575193D+03  KE= 1.434084480140D+03
 Unable to Open any file for archive entry.
 1\1\GINC-SKL-137\SP\RB3LYP\6-31G(d)\C17H33N6O6(1+)\KENGMITH\24-May-202
 2\0\\# B3LYP/6-31G* empiricaldispersion=gd3 guess=read geom=check nosy
 mm integral(ultrafinegrid)\\Candidate Structure: Conf:797 Charge calc 
 in gas phase\\1,1\N,0,9.0867111849,16.5411108463,12.8765077304\C,0,9.9
 129182493,16.852464678,11.7019668613\C,0,9.2541719963,18.0491877703,10
 .9934780671\O,0,8.2974710662,17.9089811291,10.2516748717\C,0,9.9588905
 233,15.6499162887,10.7509890691\C,0,10.3782681476,14.3290105856,11.444
 4024037\C,0,11.7051411907,14.4610771876,12.1370054267\O,0,11.873613692
 5,15.0092979489,13.2282237905\O,0,12.7288367125,13.9720554206,11.43180
 47105\H,0,13.5530064777,14.123451508,11.933247743\H,0,10.9506309981,17
 .1141587313,11.9715179514\H,0,10.6412580554,15.8638862484,9.9194754118
 \H,0,8.9590539079,15.5094420089,10.3335142168\H,0,9.629647742,14.06803
 42964,12.1974309478\H,0,10.4317605251,13.5261489882,10.7058200562\H,0,
 9.6192277358,15.9490729535,13.5086853184\H,0,8.8675951361,17.394389125
 4,13.3873152411\N,0,9.7365811246,19.3022550134,11.3045997368\C,0,11.00
 67955064,19.6600559528,11.9006713908\C,0,11.1091137688,19.2047047333,1
 3.3715642647\O,0,10.1569691934,19.1909149407,14.1294297627\C,0,11.1928
 599811,21.1939125143,11.8776940059\C,0,11.229899735,21.8434580404,10.4
 785564433\C,0,11.405783232,23.3615892824,10.6317481257\C,0,12.32815517
 92,21.2479895131,9.587573354\H,0,9.2056376948,20.0440112338,10.8646305
 209\H,0,11.8307947537,19.1998252837,11.3358884648\H,0,12.1351071882,21
 .4283053705,12.3930866557\H,0,10.3883648645,21.63703691,12.4783457548\
 H,0,10.2631909547,21.6717693663,9.9834488844\H,0,10.6154099541,23.7973
 439382,11.2534170776\H,0,12.3708244863,23.5978302919,11.0980504755\H,0
 ,11.3775899886,23.8564361793,9.6554539076\H,0,13.3131430889,21.3425745
 125,10.0644301352\H,0,12.1532864039,20.1890243306,9.365237424\H,0,12.3
 743907201,21.7756134905,8.6294531723\N,0,12.3941624591,18.8024685471,1
 3.7203460812\C,0,12.9386222006,18.6392402021,15.0755067385\C,0,14.0426
 217569,17.5760992296,15.0608038086\O,0,14.861063726,17.4686624585,15.9
 403394831\C,0,11.9104401597,18.3017809898,16.1846531031\C,0,11.0110935
 855,17.0611303469,15.9801343569\C,0,11.4338326707,15.782075839,16.7187
 901792\N,0,12.5625388798,15.1130960737,16.0569884366\C,0,13.6946056313
 ,14.6938834021,16.6144441263\N,0,13.8009105307,14.5103606341,17.939902
 1925\N,0,14.7400435896,14.4105853218,15.810806924\O,0,14.0397843926,16
 .7015164432,14.0192971044\H,0,13.2156719272,16.8046572458,13.497938333
 2\H,0,13.0992252854,19.0783920116,13.0435674795\H,0,13.4394338355,19.5
 637634857,15.3894138661\H,0,11.2720755283,19.1771478021,16.2994546144\
 H,0,12.4994818871,18.2074413696,17.1047342053\H,0,10.0069265695,17.312
 2036742,16.3348319019\H,0,10.8885671859,16.8390129296,14.9173999473\H,
 0,10.5908100539,15.0831372142,16.7606542803\H,0,11.7205494738,16.02266
 10116,17.7469187507\H,0,12.4777706008,14.9920528998,15.0467257589\H,0,
 12.9857241087,14.4553498516,18.5322085665\H,0,14.7045910275,14.4622283
 116,18.3879235818\H,0,15.5868269947,14.0419312367,16.2217052488\H,0,14
 .8646948092,15.0172925653,15.0049505068\\Version=ES64L-G16RevC.01\HF=-
 1447.481636\RMSD=5.803e-09\Dipole=3.7658225,-2.4366457,3.7415113\Quadr
 upole=-173.4672774,138.215,35.2522774,786.4182529,743.7499352,865.9559
 399\PG=C01 [X(C17H33N6O6)]\\@
 The archive entry for this job was punched.


 If your ship doesn't come in, swim out to it!
                          -- Jonathan Winters
 Job cpu time:       0 days  0 hours  1 minutes  6.4 seconds.
 Elapsed time:       0 days  0 hours  0 minutes 17.0 seconds.
 File lengths (MBytes):  RWF=    248 Int=      0 D2E=      0 Chk=     32 Scr=     16
 Normal termination of Gaussian 16 at Tue May 24 03:34:02 2022.
