 Entering Gaussian System, Link 0=/opt/software/Gaussian/g16-AVX-C.01/g16/g16
 Input=charge-conf-34.com
 Output=charge-conf-34.log
 Initial command:
 /opt/software/Gaussian/g16-AVX-C.01/g16/l1.exe "/mnt/gs18/scratch/users/kengmith/Gau-34501.inp" -scrdir="/mnt/gs18/scratch/users/kengmith/"
 Entering Link 1 = /opt/software/Gaussian/g16-AVX-C.01/g16/l1.exe PID=     34514.
  
 Copyright (c) 1988-2019, Gaussian, Inc.  All Rights Reserved.
  
 This is part of the Gaussian(R) 16 program.  It is based on
 the Gaussian(R) 09 system (copyright 2009, Gaussian, Inc.),
 the Gaussian(R) 03 system (copyright 2003, Gaussian, Inc.),
 the Gaussian(R) 98 system (copyright 1998, Gaussian, Inc.),
 the Gaussian(R) 94 system (copyright 1995, Gaussian, Inc.),
 the Gaussian 92(TM) system (copyright 1992, Gaussian, Inc.),
 the Gaussian 90(TM) system (copyright 1990, Gaussian, Inc.),
 the Gaussian 88(TM) system (copyright 1988, Gaussian, Inc.),
 the Gaussian 86(TM) system (copyright 1986, Carnegie Mellon
 University), and the Gaussian 82(TM) system (copyright 1983,
 Carnegie Mellon University). Gaussian is a federally registered
 trademark of Gaussian, Inc.
  
 This software contains proprietary and confidential information,
 including trade secrets, belonging to Gaussian, Inc.
  
 This software is provided under written license and may be
 used, copied, transmitted, or stored only in accord with that
 written license.
  
 The following legend is applicable only to US Government
 contracts under FAR:
  
                    RESTRICTED RIGHTS LEGEND
  
 Use, reproduction and disclosure by the US Government is
 subject to restrictions as set forth in subparagraphs (a)
 and (c) of the Commercial Computer Software - Restricted
 Rights clause in FAR 52.227-19.
  
 Gaussian, Inc.
 340 Quinnipiac St., Bldg. 40, Wallingford CT 06492
  
  
 ---------------------------------------------------------------
 Warning -- This program may not be used in any manner that
 competes with the business of Gaussian, Inc. or will provide
 assistance to any competitor of Gaussian, Inc.  The licensee
 of this program is prohibited from giving any competitor of
 Gaussian, Inc. access to this program.  By using this program,
 the user acknowledges that Gaussian, Inc. is engaged in the
 business of creating and licensing software in the field of
 computational chemistry and represents and warrants to the
 licensee that it is not a competitor of Gaussian, Inc. and that
 it will not use this program in any manner prohibited above.
 ---------------------------------------------------------------
  

 Cite this work as:
 Gaussian 16, Revision C.01,
 M. J. Frisch, G. W. Trucks, H. B. Schlegel, G. E. Scuseria, 
 M. A. Robb, J. R. Cheeseman, G. Scalmani, V. Barone, 
 G. A. Petersson, H. Nakatsuji, X. Li, M. Caricato, A. V. Marenich, 
 J. Bloino, B. G. Janesko, R. Gomperts, B. Mennucci, H. P. Hratchian, 
 J. V. Ortiz, A. F. Izmaylov, J. L. Sonnenberg, D. Williams-Young, 
 F. Ding, F. Lipparini, F. Egidi, J. Goings, B. Peng, A. Petrone, 
 T. Henderson, D. Ranasinghe, V. G. Zakrzewski, J. Gao, N. Rega, 
 G. Zheng, W. Liang, M. Hada, M. Ehara, K. Toyota, R. Fukuda, 
 J. Hasegawa, M. Ishida, T. Nakajima, Y. Honda, O. Kitao, H. Nakai, 
 T. Vreven, K. Throssell, J. A. Montgomery, Jr., J. E. Peralta, 
 F. Ogliaro, M. J. Bearpark, J. J. Heyd, E. N. Brothers, K. N. Kudin, 
 V. N. Staroverov, T. A. Keith, R. Kobayashi, J. Normand, 
 K. Raghavachari, A. P. Rendell, J. C. Burant, S. S. Iyengar, 
 J. Tomasi, M. Cossi, J. M. Millam, M. Klene, C. Adamo, R. Cammi, 
 J. W. Ochterski, R. L. Martin, K. Morokuma, O. Farkas, 
 J. B. Foresman, and D. J. Fox, Gaussian, Inc., Wallingford CT, 2019.
 
 ******************************************
 Gaussian 16:  ES64L-G16RevC.01  3-Jul-2019
                24-May-2022 
 ******************************************
 %mem=8gb
 %nproc=4
 Will use up to    4 processors via shared memory.
 %chk=conf-34.chk
 ----------------------------------------------------------------------
 # B3LYP/6-31G* empiricaldispersion=gd3 guess=read geom=check nosymm in
 tegral(ultrafinegrid)
 ----------------------------------------------------------------------
 1/29=2,38=1,172=1/1;
 2/12=2,15=1,40=1/2;
 3/5=1,6=6,7=1,11=2,14=-4,25=1,30=1,74=-5,75=-5,116=-2,124=31/1,2,3;
 4/5=1/1;
 5/5=2,38=6/2;
 6/7=2,8=2,9=2,10=2,28=1/1;
 99/5=1,9=1/99;
 -----------------------------------------------------
 Candidate Structure: Conf:34 Charge calc in gas phase
 -----------------------------------------------------
 Structure from the checkpoint file:  "conf-34.chk"
 Charge =  1 Multiplicity = 1
 Redundant internal coordinates found in file.  (old form).
 N,0,13.5668571717,17.0731864688,14.065330986
 C,0,13.0493794576,18.42208736,14.4090568501
 C,0,13.5365382595,19.4485064718,13.3633073776
 O,0,14.7312441502,19.6828812234,13.2715271008
 C,0,13.5356762133,18.8859004388,15.7958029172
 C,0,13.5586924156,17.7848236796,16.862408433
 C,0,14.8181907161,16.9498607107,16.7783906985
 O,0,15.861334093,17.2694909195,16.2667457302
 O,0,14.6756827823,15.7287213755,17.3992470778
 H,0,15.565320034,15.3214346459,17.3885297988
 H,0,11.9564865082,18.3470189038,14.422942907
 H,0,12.8944245898,19.7094389469,16.1264800635
 H,0,14.5480845362,19.2842340755,15.6866432648
 H,0,13.5634249661,18.2334399217,17.8649089746
 H,0,12.6782445587,17.1336562841,16.825168982
 H,0,13.3981962459,16.9368725247,13.0644673596
 H,0,14.5842676277,17.1002788876,14.1621128565
 N,0,12.611877797,20.1010931543,12.583111191
 C,0,11.2642948575,19.6578773688,12.2787788964
 C,0,11.2649385816,18.2103229254,11.7354488111
 O,0,12.2993471982,17.6035593057,11.4679782721
 C,0,10.6148817632,20.6255661338,11.2654381531
 C,0,10.5281839842,22.0948109639,11.7262296673
 C,0,9.8861568085,22.9389040462,10.6155822956
 C,0,9.7589361935,22.2428058925,13.0457273569
 H,0,13.0668640726,20.6531954042,11.8626824272
 H,0,10.6604017777,19.6638144971,13.1949043102
 H,0,9.6000618972,20.2719603241,11.0392061443
 H,0,11.176058242,20.5632953954,10.3226720227
 H,0,11.5488637586,22.4669811262,11.8876112563
 H,0,9.8645684299,23.9973753066,10.8950261158
 H,0,10.4385470125,22.8515124439,9.6728816287
 H,0,8.8517302,22.6218608087,10.4304491426
 H,0,9.652866333,23.2994409159,13.3121860203
 H,0,8.7485247409,21.8202468845,12.9617016227
 H,0,10.271432223,21.7486771271,13.8791030382
 N,0,10.0411860896,17.6207696269,11.6248900832
 C,0,9.9233313064,16.3153209094,10.9688847491
 C,0,8.4934072613,16.0817164956,10.4835202299
 O,0,7.992263212,14.9910833224,10.3560439892
 C,0,10.406783015,15.1372380705,11.8335428667
 C,0,9.6348135088,14.9406582527,13.1503259115
 C,0,10.1857363355,15.7121499273,14.3647266203
 N,0,11.4791902945,15.2272233943,14.8742439815
 C,0,11.5996840671,14.1587293794,15.6573627736
 N,0,10.5529870706,13.3381828755,15.8844657267
 N,0,12.7726535575,13.8818583728,16.2508501586
 O,0,7.8569224149,17.2399454608,10.1858534627
 H,0,6.9706894923,17.0051199545,9.8484165415
 H,0,9.2141225179,18.2030025382,11.6515571757
 H,0,10.5517102276,16.335536304,10.0662759727
 H,0,11.4744243976,15.2757269335,12.0243742108
 H,0,10.3017173474,14.2400010135,11.2180623008
 H,0,8.584836603,15.228544701,13.0211565918
 H,0,9.6114323622,13.86619555,13.3713966437
 H,0,9.4619831086,15.6896268961,15.1889541455
 H,0,10.3328274708,16.7592252177,14.0982890106
 H,0,12.3392900901,15.7838337297,14.6500177368
 H,0,9.7466603541,13.3341065989,15.2795958715
 H,0,10.617777354,12.5937966341,16.5630213261
 H,0,12.876570607,13.0257752345,16.7764453717
 H,0,13.4473608969,14.6171512139,16.4627874873
 Recover connectivity data from disk.
                           ----------------------------
                           !    Current Parameters    !
                           ! (Angstroms and Degrees)  !
 --------------------------                            --------------------------
 ! Name  Definition              Value                                          !
 --------------------------------------------------------------------------------
 ! R1    R(1,2)                  1.4851                                         !
 ! R2    R(1,16)                 1.0241                                         !
 ! R3    R(1,17)                 1.0224                                         !
 ! R4    R(2,3)                  1.5442                                         !
 ! R5    R(2,5)                  1.541                                          !
 ! R6    R(2,11)                 1.0956                                         !
 ! R7    R(3,4)                  1.2209                                         !
 ! R8    R(3,18)                 1.3746                                         !
 ! R9    R(5,6)                  1.5331                                         !
 ! R10   R(5,12)                 1.0949                                         !
 ! R11   R(5,13)                 1.0934                                         !
 ! R12   R(6,7)                  1.5135                                         !
 ! R13   R(6,14)                 1.0983                                         !
 ! R14   R(6,15)                 1.0957                                         !
 ! R15   R(7,8)                  1.205                                          !
 ! R16   R(7,9)                  1.3773                                         !
 ! R17   R(9,10)                 0.9785                                         !
 ! R18   R(18,19)                1.4509                                         !
 ! R19   R(18,26)                1.0153                                         !
 ! R20   R(19,20)                1.5462                                         !
 ! R21   R(19,22)                1.5444                                         !
 ! R22   R(19,27)                1.0973                                         !
 ! R23   R(20,21)                1.2287                                         !
 ! R24   R(20,37)                1.3629                                         !
 ! R25   R(22,23)                1.5422                                         !
 ! R26   R(22,28)                1.0982                                         !
 ! R27   R(22,29)                1.0989                                         !
 ! R28   R(23,24)                1.5357                                         !
 ! R29   R(23,25)                1.5345                                         !
 ! R30   R(23,30)                1.0983                                         !
 ! R31   R(24,31)                1.095                                          !
 ! R32   R(24,32)                1.0961                                         !
 ! R33   R(24,33)                1.0976                                         !
 ! R34   R(25,34)                1.0949                                         !
 ! R35   R(25,35)                1.0984                                         !
 ! R36   R(25,36)                1.0961                                         !
 ! R37   R(37,38)                1.4658                                         !
 ! R38   R(37,50)                1.0118                                         !
 ! R39   R(38,39)                1.528                                          !
 ! R40   R(38,41)                1.5392                                         !
 ! R41   R(38,51)                1.1                                            !
 ! R42   R(39,40)                1.207                                          !
 ! R43   R(39,48)                1.3547                                         !
 ! R44   R(41,42)                1.539                                          !
 ! R45   R(41,52)                1.0934                                         !
 ! R46   R(41,53)                1.0931                                         !
 ! R47   R(42,43)                1.5406                                         !
 ! R48   R(42,54)                1.0964                                         !
 ! R49   R(42,55)                1.0972                                         !
 ! R50   R(43,44)                1.4723                                         !
 ! R51   R(43,56)                1.0971                                         !
 ! R52   R(43,57)                1.0904                                         !
 ! R53   R(44,45)                1.3302                                         !
 ! R54   R(44,58)                1.0487                                         !
 ! R55   R(45,46)                1.3492                                         !
 ! R56   R(45,47)                1.3434                                         !
 ! R57   R(46,59)                1.008                                          !
 ! R58   R(46,60)                1.0093                                         !
 ! R59   R(47,61)                1.0099                                         !
 ! R60   R(47,62)                1.0202                                         !
 ! R61   R(48,49)                0.9769                                         !
 ! A1    A(2,1,16)             106.8411                                         !
 ! A2    A(2,1,17)             107.5046                                         !
 ! A3    A(16,1,17)            105.0666                                         !
 ! A4    A(1,2,3)              109.699                                          !
 ! A5    A(1,2,5)              111.8209                                         !
 ! A6    A(1,2,11)             106.7562                                         !
 ! A7    A(3,2,5)              108.048                                          !
 ! A8    A(3,2,11)             111.6445                                         !
 ! A9    A(5,2,11)             108.9064                                         !
 ! A10   A(2,3,4)              119.1577                                         !
 ! A11   A(2,3,18)             119.1911                                         !
 ! A12   A(4,3,18)             121.6292                                         !
 ! A13   A(2,5,6)              114.4964                                         !
 ! A14   A(2,5,12)             108.2615                                         !
 ! A15   A(2,5,13)             108.1799                                         !
 ! A16   A(6,5,12)             109.8082                                         !
 ! A17   A(6,5,13)             108.493                                          !
 ! A18   A(12,5,13)            107.363                                          !
 ! A19   A(5,6,7)              111.721                                          !
 ! A20   A(5,6,14)             109.982                                          !
 ! A21   A(5,6,15)             113.0227                                         !
 ! A22   A(7,6,14)             105.8089                                         !
 ! A23   A(7,6,15)             109.8131                                         !
 ! A24   A(14,6,15)            106.0947                                         !
 ! A25   A(6,7,8)              126.7008                                         !
 ! A26   A(6,7,9)              112.2104                                         !
 ! A27   A(8,7,9)              121.0736                                         !
 ! A28   A(7,9,10)             105.6663                                         !
 ! A29   A(3,18,19)            126.7845                                         !
 ! A30   A(3,18,26)            111.0661                                         !
 ! A31   A(19,18,26)           115.6899                                         !
 ! A32   A(18,19,20)           111.0586                                         !
 ! A33   A(18,19,22)           109.6815                                         !
 ! A34   A(18,19,27)           109.5357                                         !
 ! A35   A(20,19,22)           110.8691                                         !
 ! A36   A(20,19,27)           107.3788                                         !
 ! A37   A(22,19,27)           108.241                                          !
 ! A38   A(19,20,21)           122.6277                                         !
 ! A39   A(19,20,37)           115.6665                                         !
 ! A40   A(21,20,37)           121.6456                                         !
 ! A41   A(19,22,23)           115.121                                          !
 ! A42   A(19,22,28)           108.7834                                         !
 ! A43   A(19,22,29)           108.2208                                         !
 ! A44   A(23,22,28)           108.4419                                         !
 ! A45   A(23,22,29)           109.817                                          !
 ! A46   A(28,22,29)           106.076                                          !
 ! A47   A(22,23,24)           109.333                                          !
 ! A48   A(22,23,25)           112.1464                                         !
 ! A49   A(22,23,30)           108.3288                                         !
 ! A50   A(24,23,25)           111.0576                                         !
 ! A51   A(24,23,30)           107.971                                          !
 ! A52   A(25,23,30)           107.8683                                         !
 ! A53   A(23,24,31)           110.7944                                         !
 ! A54   A(23,24,32)           111.5615                                         !
 ! A55   A(23,24,33)           110.9296                                         !
 ! A56   A(31,24,32)           107.8485                                         !
 ! A57   A(31,24,33)           107.6788                                         !
 ! A58   A(32,24,33)           107.869                                          !
 ! A59   A(23,25,34)           110.5432                                         !
 ! A60   A(23,25,35)           110.9928                                         !
 ! A61   A(23,25,36)           112.0816                                         !
 ! A62   A(34,25,35)           107.5034                                         !
 ! A63   A(34,25,36)           107.1778                                         !
 ! A64   A(35,25,36)           108.3517                                         !
 ! A65   A(20,37,38)           119.5896                                         !
 ! A66   A(20,37,50)           118.8763                                         !
 ! A67   A(38,37,50)           117.2955                                         !
 ! A68   A(37,38,39)           110.7057                                         !
 ! A69   A(37,38,41)           113.891                                          !
 ! A70   A(37,38,51)           107.755                                          !
 ! A71   A(39,38,41)           110.8148                                         !
 ! A72   A(39,38,51)           106.0664                                         !
 ! A73   A(41,38,51)           107.1929                                         !
 ! A74   A(38,39,40)           124.0716                                         !
 ! A75   A(38,39,48)           112.2569                                         !
 ! A76   A(40,39,48)           123.6596                                         !
 ! A77   A(38,41,42)           114.8884                                         !
 ! A78   A(38,41,52)           107.9265                                         !
 ! A79   A(38,41,53)           106.3642                                         !
 ! A80   A(42,41,52)           110.8945                                         !
 ! A81   A(42,41,53)           109.1899                                         !
 ! A82   A(52,41,53)           107.2231                                         !
 ! A83   A(41,42,43)           115.5377                                         !
 ! A84   A(41,42,54)           110.2452                                         !
 ! A85   A(41,42,55)           107.9486                                         !
 ! A86   A(43,42,54)           107.6887                                         !
 ! A87   A(43,42,55)           109.8271                                         !
 ! A88   A(54,42,55)           105.0978                                         !
 ! A89   A(42,43,44)           114.9612                                         !
 ! A90   A(42,43,56)           110.2433                                         !
 ! A91   A(42,43,57)           109.6637                                         !
 ! A92   A(44,43,56)           108.2275                                         !
 ! A93   A(44,43,57)           106.3988                                         !
 ! A94   A(56,43,57)           106.9939                                         !
 ! A95   A(43,44,45)           123.2206                                         !
 ! A96   A(43,44,58)           118.1439                                         !
 ! A97   A(45,44,58)           118.5482                                         !
 ! A98   A(44,45,46)           121.1527                                         !
 ! A99   A(44,45,47)           120.3126                                         !
 ! A100  A(46,45,47)           118.5319                                         !
 ! A101  A(45,46,59)           121.4678                                         !
 ! A102  A(45,46,60)           120.789                                          !
 ! A103  A(59,46,60)           116.8584                                         !
 ! A104  A(45,47,61)           119.6343                                         !
 ! A105  A(45,47,62)           121.3778                                         !
 ! A106  A(61,47,62)           115.7717                                         !
 ! A107  A(39,48,49)           107.2534                                         !
 ! D1    D(16,1,2,3)           -46.6039                                         !
 ! D2    D(16,1,2,5)          -166.4599                                         !
 ! D3    D(16,1,2,11)           74.5236                                         !
 ! D4    D(17,1,2,3)            65.745                                          !
 ! D5    D(17,1,2,5)           -54.1111                                         !
 ! D6    D(17,1,2,11)         -173.1275                                         !
 ! D7    D(1,2,3,4)            -64.941                                          !
 ! D8    D(1,2,3,18)           116.7416                                         !
 ! D9    D(5,2,3,4)             57.1933                                         !
 ! D10   D(5,2,3,18)          -121.1241                                         !
 ! D11   D(11,2,3,4)           176.9255                                         !
 ! D12   D(11,2,3,18)           -1.3918                                         !
 ! D13   D(1,2,5,6)            -39.628                                          !
 ! D14   D(1,2,5,12)          -162.4815                                         !
 ! D15   D(1,2,5,13)            81.4705                                         !
 ! D16   D(3,2,5,6)           -160.4485                                         !
 ! D17   D(3,2,5,12)            76.6979                                         !
 ! D18   D(3,2,5,13)           -39.35                                           !
 ! D19   D(11,2,5,6)            78.1079                                         !
 ! D20   D(11,2,5,12)          -44.7457                                         !
 ! D21   D(11,2,5,13)         -160.7937                                         !
 ! D22   D(2,3,18,19)          -22.4741                                         !
 ! D23   D(2,3,18,26)         -172.7049                                         !
 ! D24   D(4,3,18,19)          159.2517                                         !
 ! D25   D(4,3,18,26)            9.0208                                         !
 ! D26   D(2,5,6,7)             82.7396                                         !
 ! D27   D(2,5,6,14)          -160.0739                                         !
 ! D28   D(2,5,6,15)           -41.7128                                         !
 ! D29   D(12,5,6,7)          -155.2467                                         !
 ! D30   D(12,5,6,14)          -38.0601                                         !
 ! D31   D(12,5,6,15)           80.301                                          !
 ! D32   D(13,5,6,7)           -38.1863                                         !
 ! D33   D(13,5,6,14)           79.0002                                         !
 ! D34   D(13,5,6,15)         -162.6386                                         !
 ! D35   D(5,6,7,8)             21.2782                                         !
 ! D36   D(5,6,7,9)           -160.1383                                         !
 ! D37   D(14,6,7,8)           -98.3979                                         !
 ! D38   D(14,6,7,9)            80.1855                                         !
 ! D39   D(15,6,7,8)           147.5064                                         !
 ! D40   D(15,6,7,9)           -33.9102                                         !
 ! D41   D(6,7,9,10)          -173.0156                                         !
 ! D42   D(8,7,9,10)             5.6584                                         !
 ! D43   D(3,18,19,20)         -51.9697                                         !
 ! D44   D(3,18,19,22)        -174.8671                                         !
 ! D45   D(3,18,19,27)          66.4699                                         !
 ! D46   D(26,18,19,20)         97.09                                           !
 ! D47   D(26,18,19,22)        -25.8074                                         !
 ! D48   D(26,18,19,27)       -144.4703                                         !
 ! D49   D(18,19,20,21)         -7.5343                                         !
 ! D50   D(18,19,20,37)        169.6844                                         !
 ! D51   D(22,19,20,21)        114.6758                                         !
 ! D52   D(22,19,20,37)        -68.1054                                         !
 ! D53   D(27,19,20,21)       -127.2682                                         !
 ! D54   D(27,19,20,37)         49.9505                                         !
 ! D55   D(18,19,22,23)        -58.5773                                         !
 ! D56   D(18,19,22,28)        179.5176                                         !
 ! D57   D(18,19,22,29)         64.6901                                         !
 ! D58   D(20,19,22,23)        178.4133                                         !
 ! D59   D(20,19,22,28)         56.5082                                         !
 ! D60   D(20,19,22,29)        -58.3193                                         !
 ! D61   D(27,19,22,23)         60.8829                                         !
 ! D62   D(27,19,22,28)        -61.0222                                         !
 ! D63   D(27,19,22,29)       -175.8497                                         !
 ! D64   D(19,20,37,38)        172.568                                          !
 ! D65   D(19,20,37,50)         16.3067                                         !
 ! D66   D(21,20,37,38)        -10.1835                                         !
 ! D67   D(21,20,37,50)       -166.4447                                         !
 ! D68   D(19,22,23,24)        179.0625                                         !
 ! D69   D(19,22,23,25)        -57.3023                                         !
 ! D70   D(19,22,23,30)         61.6319                                         !
 ! D71   D(28,22,23,24)        -58.8483                                         !
 ! D72   D(28,22,23,25)         64.7869                                         !
 ! D73   D(28,22,23,30)       -176.2789                                         !
 ! D74   D(29,22,23,24)         56.6475                                         !
 ! D75   D(29,22,23,25)       -179.7173                                         !
 ! D76   D(29,22,23,30)        -60.7831                                         !
 ! D77   D(22,23,24,31)       -176.7852                                         !
 ! D78   D(22,23,24,32)        -56.614                                          !
 ! D79   D(22,23,24,33)         63.6752                                         !
 ! D80   D(25,23,24,31)         58.9393                                         !
 ! D81   D(25,23,24,32)        179.1105                                         !
 ! D82   D(25,23,24,33)        -60.6003                                         !
 ! D83   D(30,23,24,31)        -59.1297                                         !
 ! D84   D(30,23,24,32)         61.0415                                         !
 ! D85   D(30,23,24,33)       -178.6693                                         !
 ! D86   D(22,23,25,34)       -176.0623                                         !
 ! D87   D(22,23,25,35)        -56.8651                                         !
 ! D88   D(22,23,25,36)         64.44                                           !
 ! D89   D(24,23,25,34)        -53.3985                                         !
 ! D90   D(24,23,25,35)         65.7987                                         !
 ! D91   D(24,23,25,36)       -172.8961                                         !
 ! D92   D(30,23,25,34)         64.7327                                         !
 ! D93   D(30,23,25,35)       -176.07                                           !
 ! D94   D(30,23,25,36)        -54.7649                                         !
 ! D95   D(20,37,38,39)       -158.6524                                         !
 ! D96   D(20,37,38,41)         75.692                                          !
 ! D97   D(20,37,38,51)        -43.0777                                         !
 ! D98   D(50,37,38,39)         -2.0233                                         !
 ! D99   D(50,37,38,41)       -127.679                                          !
 ! D100  D(50,37,38,51)        113.5513                                         !
 ! D101  D(37,38,39,40)       -152.5074                                         !
 ! D102  D(37,38,39,48)         28.713                                          !
 ! D103  D(41,38,39,40)        -25.1426                                         !
 ! D104  D(41,38,39,48)        156.0778                                         !
 ! D105  D(51,38,39,40)         90.8698                                         !
 ! D106  D(51,38,39,48)        -87.9097                                         !
 ! D107  D(37,38,41,42)         61.2224                                         !
 ! D108  D(37,38,41,52)        -63.0624                                         !
 ! D109  D(37,38,41,53)       -177.8549                                         !
 ! D110  D(39,38,41,42)        -64.3755                                         !
 ! D111  D(39,38,41,52)        171.3396                                         !
 ! D112  D(39,38,41,53)         56.5471                                         !
 ! D113  D(51,38,41,42)       -179.6877                                         !
 ! D114  D(51,38,41,52)         56.0274                                         !
 ! D115  D(51,38,41,53)        -58.7651                                         !
 ! D116  D(38,39,48,49)        177.5437                                         !
 ! D117  D(40,39,48,49)         -1.2417                                         !
 ! D118  D(38,41,42,43)        -89.3288                                         !
 ! D119  D(38,41,42,54)         33.0244                                         !
 ! D120  D(38,41,42,55)        147.3105                                         !
 ! D121  D(52,41,42,43)         33.3754                                         !
 ! D122  D(52,41,42,54)        155.7287                                         !
 ! D123  D(52,41,42,55)        -89.9853                                         !
 ! D124  D(53,41,42,43)        151.309                                          !
 ! D125  D(53,41,42,54)        -86.3378                                         !
 ! D126  D(53,41,42,55)         27.9483                                         !
 ! D127  D(41,42,43,44)        -69.6531                                         !
 ! D128  D(41,42,43,56)        167.7045                                         !
 ! D129  D(41,42,43,57)         50.1505                                         !
 ! D130  D(54,42,43,44)        166.642                                          !
 ! D131  D(54,42,43,56)         43.9996                                         !
 ! D132  D(54,42,43,57)        -73.5544                                         !
 ! D133  D(55,42,43,44)         52.7126                                         !
 ! D134  D(55,42,43,56)        -69.9298                                         !
 ! D135  D(55,42,43,57)        172.5162                                         !
 ! D136  D(42,43,44,45)        -79.5938                                         !
 ! D137  D(42,43,44,58)        103.8578                                         !
 ! D138  D(56,43,44,45)         44.1244                                         !
 ! D139  D(56,43,44,58)       -132.4241                                         !
 ! D140  D(57,43,44,45)        158.8122                                         !
 ! D141  D(57,43,44,58)        -17.7362                                         !
 ! D142  D(43,44,45,46)          9.3644                                         !
 ! D143  D(43,44,45,47)       -170.0308                                         !
 ! D144  D(58,44,45,46)       -174.1003                                         !
 ! D145  D(58,44,45,47)          6.5044                                         !
 ! D146  D(44,45,46,59)         18.42                                           !
 ! D147  D(44,45,46,60)       -172.6865                                         !
 ! D148  D(47,45,46,59)       -162.1742                                         !
 ! D149  D(47,45,46,60)          6.7192                                         !
 ! D150  D(44,45,47,61)       -174.6051                                         !
 ! D151  D(44,45,47,62)         26.5131                                         !
 ! D152  D(46,45,47,61)          5.984                                          !
 ! D153  D(46,45,47,62)       -152.8978                                         !
 --------------------------------------------------------------------------------
 Symmetry turned off by external request.
 Stoichiometry    C17H33N6O6(1+)
 Framework group  C1[X(C17H33N6O6)]
 Deg. of freedom   180
 Full point group                 C1      NOp   1
                          Input orientation:                          
 ---------------------------------------------------------------------
 Center     Atomic      Atomic             Coordinates (Angstroms)
 Number     Number       Type             X           Y           Z
 ---------------------------------------------------------------------
      1          7           0       13.566857   17.073186   14.065331
      2          6           0       13.049379   18.422087   14.409057
      3          6           0       13.536538   19.448506   13.363307
      4          8           0       14.731244   19.682881   13.271527
      5          6           0       13.535676   18.885900   15.795803
      6          6           0       13.558692   17.784824   16.862408
      7          6           0       14.818191   16.949861   16.778391
      8          8           0       15.861334   17.269491   16.266746
      9          8           0       14.675683   15.728721   17.399247
     10          1           0       15.565320   15.321435   17.388530
     11          1           0       11.956487   18.347019   14.422943
     12          1           0       12.894425   19.709439   16.126480
     13          1           0       14.548085   19.284234   15.686643
     14          1           0       13.563425   18.233440   17.864909
     15          1           0       12.678245   17.133656   16.825169
     16          1           0       13.398196   16.936873   13.064467
     17          1           0       14.584268   17.100279   14.162113
     18          7           0       12.611878   20.101093   12.583111
     19          6           0       11.264295   19.657877   12.278779
     20          6           0       11.264939   18.210323   11.735449
     21          8           0       12.299347   17.603559   11.467978
     22          6           0       10.614882   20.625566   11.265438
     23          6           0       10.528184   22.094811   11.726230
     24          6           0        9.886157   22.938904   10.615582
     25          6           0        9.758936   22.242806   13.045727
     26          1           0       13.066864   20.653195   11.862682
     27          1           0       10.660402   19.663814   13.194904
     28          1           0        9.600062   20.271960   11.039206
     29          1           0       11.176058   20.563295   10.322672
     30          1           0       11.548864   22.466981   11.887611
     31          1           0        9.864568   23.997375   10.895026
     32          1           0       10.438547   22.851512    9.672882
     33          1           0        8.851730   22.621861   10.430449
     34          1           0        9.652866   23.299441   13.312186
     35          1           0        8.748525   21.820247   12.961702
     36          1           0       10.271432   21.748677   13.879103
     37          7           0       10.041186   17.620770   11.624890
     38          6           0        9.923331   16.315321   10.968885
     39          6           0        8.493407   16.081716   10.483520
     40          8           0        7.992263   14.991083   10.356044
     41          6           0       10.406783   15.137238   11.833543
     42          6           0        9.634814   14.940658   13.150326
     43          6           0       10.185736   15.712150   14.364727
     44          7           0       11.479190   15.227223   14.874244
     45          6           0       11.599684   14.158729   15.657363
     46          7           0       10.552987   13.338183   15.884466
     47          7           0       12.772654   13.881858   16.250850
     48          8           0        7.856922   17.239945   10.185853
     49          1           0        6.970689   17.005120    9.848417
     50          1           0        9.214123   18.203003   11.651557
     51          1           0       10.551710   16.335536   10.066276
     52          1           0       11.474424   15.275727   12.024374
     53          1           0       10.301717   14.240001   11.218062
     54          1           0        8.584837   15.228545   13.021157
     55          1           0        9.611432   13.866196   13.371397
     56          1           0        9.461983   15.689627   15.188954
     57          1           0       10.332827   16.759225   14.098289
     58          1           0       12.339290   15.783834   14.650018
     59          1           0        9.746660   13.334107   15.279596
     60          1           0       10.617777   12.593797   16.563021
     61          1           0       12.876571   13.025775   16.776445
     62          1           0       13.447361   14.617151   16.462787
 ---------------------------------------------------------------------
 Rotational constants (GHZ):           0.1713593           0.1219017           0.0795978
 Standard basis: 6-31G(d) (6D, 7F)
   501 basis functions,   944 primitive gaussians,   501 cartesian basis functions
   112 alpha electrons      112 beta electrons
       nuclear repulsion energy      3147.5075532814 Hartrees.
 NAtoms=   62 NActive=   62 NUniq=   62 SFac= 1.00D+00 NAtFMM=   60 NAOKFM=T Big=T
 Integral buffers will be    131072 words long.
 Raffenetti 2 integral format.
 Two-electron integral symmetry is turned off.
 Nuclear repulsion after empirical dispersion term =     3147.4235117577 Hartrees.
 One-electron integrals computed using PRISM.
 NBasis=   501 RedAO= T EigKep=  1.73D-03  NBF=   501
 NBsUse=   501 1.00D-06 EigRej= -1.00D+00 NBFU=   501
 Initial guess from the checkpoint file:  "conf-34.chk"
 B after Tr=     0.000000    0.000000    0.000000
         Rot=    1.000000    0.000000    0.000000    0.000000 Ang=   0.00 deg.
 Requested convergence on RMS density matrix=1.00D-08 within 128 cycles.
 Requested convergence on MAX density matrix=1.00D-06.
 Requested convergence on             energy=1.00D-06.
 No special actions if energy rises.
 SCF Done:  E(RB3LYP) =  -1447.50016976     A.U. after    1 cycles
            NFock=  1  Conv=0.67D-08     -V/T= 2.0094

 **********************************************************************

            Population analysis using the SCF Density.

 **********************************************************************

 Alpha  occ. eigenvalues --  -19.31790 -19.31167 -19.25301 -19.25169 -19.23635
 Alpha  occ. eigenvalues --  -19.20247 -14.52255 -14.50729 -14.50517 -14.47980
 Alpha  occ. eigenvalues --  -14.45123 -14.43870 -10.47829 -10.43452 -10.43397
 Alpha  occ. eigenvalues --  -10.40235 -10.37623 -10.35997 -10.35461 -10.34444
 Alpha  occ. eigenvalues --  -10.33158 -10.31535 -10.31218 -10.30002 -10.29374
 Alpha  occ. eigenvalues --  -10.29009 -10.28044 -10.25933 -10.25265  -1.21970
 Alpha  occ. eigenvalues --   -1.21899  -1.16204  -1.15645  -1.13072  -1.12994
 Alpha  occ. eigenvalues --   -1.12420  -1.05352  -1.04475  -1.04362  -1.02014
 Alpha  occ. eigenvalues --   -1.00177  -0.92232  -0.90357  -0.89880  -0.87738
 Alpha  occ. eigenvalues --   -0.84049  -0.82460  -0.81369  -0.78333  -0.76802
 Alpha  occ. eigenvalues --   -0.75471  -0.75259  -0.74736  -0.73460  -0.70927
 Alpha  occ. eigenvalues --   -0.70070  -0.69444  -0.68236  -0.66866  -0.65722
 Alpha  occ. eigenvalues --   -0.65457  -0.64701  -0.64580  -0.62358  -0.61580
 Alpha  occ. eigenvalues --   -0.60754  -0.60422  -0.59863  -0.59544  -0.59406
 Alpha  occ. eigenvalues --   -0.58699  -0.58422  -0.57357  -0.56503  -0.55571
 Alpha  occ. eigenvalues --   -0.55196  -0.54413  -0.54190  -0.53855  -0.53505
 Alpha  occ. eigenvalues --   -0.52660  -0.52120  -0.51864  -0.51537  -0.50735
 Alpha  occ. eigenvalues --   -0.50631  -0.49838  -0.49491  -0.48502  -0.47650
 Alpha  occ. eigenvalues --   -0.47392  -0.46978  -0.46855  -0.46490  -0.45821
 Alpha  occ. eigenvalues --   -0.45170  -0.44661  -0.44445  -0.43499  -0.43142
 Alpha  occ. eigenvalues --   -0.43004  -0.42034  -0.41512  -0.41361  -0.40110
 Alpha  occ. eigenvalues --   -0.39067  -0.38830  -0.38615  -0.37497  -0.37209
 Alpha  occ. eigenvalues --   -0.34793  -0.33374
 Alpha virt. eigenvalues --   -0.12117  -0.10641  -0.10381  -0.09931  -0.08204
 Alpha virt. eigenvalues --   -0.07536  -0.05316  -0.04968  -0.03943  -0.03634
 Alpha virt. eigenvalues --   -0.01206  -0.01122  -0.00687   0.00101   0.00507
 Alpha virt. eigenvalues --    0.00979   0.02103   0.02211   0.02756   0.03817
 Alpha virt. eigenvalues --    0.04015   0.04726   0.05014   0.05625   0.05833
 Alpha virt. eigenvalues --    0.06521   0.06855   0.06991   0.07232   0.07476
 Alpha virt. eigenvalues --    0.08225   0.08567   0.08997   0.09331   0.09945
 Alpha virt. eigenvalues --    0.10106   0.10574   0.10898   0.11133   0.11605
 Alpha virt. eigenvalues --    0.11902   0.12515   0.12830   0.13502   0.13823
 Alpha virt. eigenvalues --    0.14466   0.14651   0.14869   0.15117   0.16269
 Alpha virt. eigenvalues --    0.16581   0.16993   0.17384   0.18132   0.19311
 Alpha virt. eigenvalues --    0.19931   0.21023   0.21643   0.24394   0.24895
 Alpha virt. eigenvalues --    0.26136   0.26500   0.27792   0.28849   0.30443
 Alpha virt. eigenvalues --    0.32764   0.36284   0.37378   0.38414   0.39396
 Alpha virt. eigenvalues --    0.40768   0.41210   0.41646   0.42010   0.42196
 Alpha virt. eigenvalues --    0.42968   0.43304   0.43426   0.44289   0.44840
 Alpha virt. eigenvalues --    0.45589   0.46029   0.46885   0.47348   0.48633
 Alpha virt. eigenvalues --    0.49261   0.49576   0.49834   0.50727   0.51026
 Alpha virt. eigenvalues --    0.51690   0.52282   0.53292   0.53977   0.54433
 Alpha virt. eigenvalues --    0.54996   0.55571   0.56257   0.56672   0.57185
 Alpha virt. eigenvalues --    0.57633   0.58290   0.58349   0.59211   0.59399
 Alpha virt. eigenvalues --    0.59783   0.61421   0.62711   0.63038   0.63103
 Alpha virt. eigenvalues --    0.63873   0.64126   0.65091   0.65407   0.66680
 Alpha virt. eigenvalues --    0.66811   0.68515   0.68829   0.69261   0.70070
 Alpha virt. eigenvalues --    0.71147   0.71359   0.71653   0.72314   0.72614
 Alpha virt. eigenvalues --    0.73367   0.74181   0.74331   0.75193   0.75529
 Alpha virt. eigenvalues --    0.75616   0.76528   0.76621   0.77117   0.77367
 Alpha virt. eigenvalues --    0.78121   0.78532   0.79132   0.79873   0.80347
 Alpha virt. eigenvalues --    0.80395   0.80877   0.81056   0.81721   0.82188
 Alpha virt. eigenvalues --    0.82923   0.83266   0.84127   0.84586   0.84748
 Alpha virt. eigenvalues --    0.85242   0.85432   0.85852   0.86586   0.86986
 Alpha virt. eigenvalues --    0.87614   0.88018   0.88677   0.89306   0.89633
 Alpha virt. eigenvalues --    0.90505   0.90538   0.91142   0.91681   0.92328
 Alpha virt. eigenvalues --    0.93369   0.94233   0.94494   0.95841   0.96210
 Alpha virt. eigenvalues --    0.97143   0.98564   0.99937   1.00769   1.00967
 Alpha virt. eigenvalues --    1.01811   1.03121   1.03808   1.05019   1.05270
 Alpha virt. eigenvalues --    1.05744   1.06156   1.07459   1.08197   1.10082
 Alpha virt. eigenvalues --    1.10950   1.11802   1.13875   1.14262   1.15002
 Alpha virt. eigenvalues --    1.16851   1.17883   1.19500   1.21556   1.22138
 Alpha virt. eigenvalues --    1.22994   1.25440   1.25959   1.26871   1.28486
 Alpha virt. eigenvalues --    1.29610   1.30389   1.31882   1.32837   1.34868
 Alpha virt. eigenvalues --    1.35789   1.37135   1.37501   1.38123   1.39110
 Alpha virt. eigenvalues --    1.39616   1.41040   1.42586   1.43990   1.44435
 Alpha virt. eigenvalues --    1.46056   1.48184   1.50127   1.50872   1.51425
 Alpha virt. eigenvalues --    1.53271   1.53619   1.54311   1.55649   1.56589
 Alpha virt. eigenvalues --    1.57770   1.58060   1.59466   1.60007   1.60366
 Alpha virt. eigenvalues --    1.61069   1.62206   1.62287   1.62778   1.64163
 Alpha virt. eigenvalues --    1.64499   1.65408   1.66487   1.67849   1.68339
 Alpha virt. eigenvalues --    1.69394   1.69725   1.70699   1.70927   1.71214
 Alpha virt. eigenvalues --    1.71994   1.72637   1.73770   1.74887   1.75526
 Alpha virt. eigenvalues --    1.75840   1.77052   1.77262   1.78350   1.79106
 Alpha virt. eigenvalues --    1.79599   1.81743   1.82168   1.82725   1.83569
 Alpha virt. eigenvalues --    1.84449   1.85063   1.85515   1.86295   1.86863
 Alpha virt. eigenvalues --    1.87387   1.88881   1.89811   1.90158   1.90834
 Alpha virt. eigenvalues --    1.91678   1.92314   1.93020   1.94023   1.94446
 Alpha virt. eigenvalues --    1.94945   1.96106   1.96396   1.97092   1.98394
 Alpha virt. eigenvalues --    1.98776   1.99359   1.99968   2.01667   2.03175
 Alpha virt. eigenvalues --    2.03645   2.04488   2.05582   2.07624   2.10071
 Alpha virt. eigenvalues --    2.11290   2.12846   2.13965   2.14886   2.15679
 Alpha virt. eigenvalues --    2.16308   2.17487   2.17748   2.18477   2.19761
 Alpha virt. eigenvalues --    2.20953   2.22026   2.22749   2.25134   2.25269
 Alpha virt. eigenvalues --    2.25573   2.27583   2.28483   2.29626   2.30675
 Alpha virt. eigenvalues --    2.31807   2.32112   2.33345   2.34431   2.35491
 Alpha virt. eigenvalues --    2.38032   2.38901   2.40160   2.40337   2.41216
 Alpha virt. eigenvalues --    2.42203   2.42864   2.43386   2.44520   2.45543
 Alpha virt. eigenvalues --    2.46321   2.48884   2.50102   2.51577   2.53104
 Alpha virt. eigenvalues --    2.53829   2.54068   2.55035   2.55452   2.56479
 Alpha virt. eigenvalues --    2.57859   2.59045   2.60054   2.61006   2.62162
 Alpha virt. eigenvalues --    2.63663   2.64071   2.65468   2.70566   2.71028
 Alpha virt. eigenvalues --    2.75381   2.76082   2.76471   2.79610   2.87397
 Alpha virt. eigenvalues --    2.88497   2.88747   2.88922   2.92703   2.95677
 Alpha virt. eigenvalues --    2.97017   2.98912   3.02289   3.04448   3.06841
 Alpha virt. eigenvalues --    3.68241   3.73937   3.77317   3.78694   3.84763
 Alpha virt. eigenvalues --    3.85057   3.92769   3.97075   4.02621   4.05936
 Alpha virt. eigenvalues --    4.08170   4.08462   4.10310   4.10956   4.16404
 Alpha virt. eigenvalues --    4.17571   4.20702   4.22785   4.23186   4.27009
 Alpha virt. eigenvalues --    4.35968   4.37542   4.37783   4.43972   4.44359
 Alpha virt. eigenvalues --    4.45937   4.53188   4.59470   4.65017
          Condensed to atoms (all electrons):
 Mulliken charges:
               1
     1  N   -0.818923
     2  C   -0.041342
     3  C    0.598335
     4  O   -0.490238
     5  C   -0.300052
     6  C   -0.353463
     7  C    0.591606
     8  O   -0.424185
     9  O   -0.601960
    10  H    0.427892
    11  H    0.121241
    12  H    0.161854
    13  H    0.222079
    14  H    0.210142
    15  H    0.151704
    16  H    0.373944
    17  H    0.353960
    18  N   -0.589636
    19  C   -0.066784
    20  C    0.615748
    21  O   -0.525529
    22  C   -0.304753
    23  C   -0.071671
    24  C   -0.447590
    25  C   -0.454701
    26  H    0.347188
    27  H    0.164755
    28  H    0.143104
    29  H    0.163818
    30  H    0.145586
    31  H    0.164345
    32  H    0.153699
    33  H    0.145867
    34  H    0.169212
    35  H    0.137752
    36  H    0.144102
    37  N   -0.628639
    38  C   -0.034055
    39  C    0.578942
    40  O   -0.441004
    41  C   -0.276563
    42  C   -0.284596
    43  C   -0.188496
    44  N   -0.626604
    45  C    0.800005
    46  N   -0.764307
    47  N   -0.793016
    48  O   -0.577267
    49  H    0.434435
    50  H    0.360861
    51  H    0.218698
    52  H    0.172550
    53  H    0.188175
    54  H    0.171520
    55  H    0.144688
    56  H    0.176620
    57  H    0.187932
    58  H    0.422972
    59  H    0.384871
    60  H    0.376240
    61  H    0.363864
    62  H    0.415065
 Sum of Mulliken charges =   1.00000
 Mulliken charges with hydrogens summed into heavy atoms:
               1
     1  N   -0.091020
     2  C    0.079899
     3  C    0.598335
     4  O   -0.490238
     5  C    0.083881
     6  C    0.008383
     7  C    0.591606
     8  O   -0.424185
     9  O   -0.174068
    18  N   -0.242448
    19  C    0.097971
    20  C    0.615748
    21  O   -0.525529
    22  C    0.002169
    23  C    0.073915
    24  C    0.016322
    25  C   -0.003635
    37  N   -0.267778
    38  C    0.184643
    39  C    0.578942
    40  O   -0.441004
    41  C    0.084162
    42  C    0.031612
    43  C    0.176057
    44  N   -0.203632
    45  C    0.800005
    46  N   -0.003196
    47  N   -0.014086
    48  O   -0.142832
 Electronic spatial extent (au):  <R**2>=         511862.5022
 Charge=              1.0000 electrons
 Dipole moment (field-independent basis, Debye):
    X=             49.6179    Y=             75.7084    Z=             71.3689  Tot=            115.2701
 Quadrupole moment (field-independent basis, Debye-Ang):
   XX=            346.3772   YY=           1070.9994   ZZ=            924.9001
   XY=            756.7290   XZ=            766.2240   YZ=           1092.7428
 Traceless Quadrupole moment (field-independent basis, Debye-Ang):
   XX=           -434.3817   YY=            290.2405   ZZ=            144.1411
   XY=            756.7290   XZ=            766.2240   YZ=           1092.7428
 Octapole moment (field-independent basis, Debye-Ang**2):
  XXX=           -567.5746  YYY=          12194.0168  ZZZ=          10371.9555  XYY=          10040.3107
  XXY=           4512.7613  XXZ=           6050.6717  XZZ=          10199.3715  YZZ=          13391.9546
  YYZ=          15093.1519  XYZ=          11397.1086
 Hexadecapole moment (field-independent basis, Debye-Ang**3):
 XXXX=         -87553.8432 YYYY=          52430.7246 ZZZZ=          86882.8872 XXXY=         -32180.3278
 XXXZ=          10131.7552 YYYX=          95105.5062 YYYZ=         168107.3717 ZZZX=         116272.4225
 ZZZY=         133950.8110 XXYY=          35480.4349 XXZZ=          82490.8419 YYZZ=         168604.8693
 XXYZ=          79214.5358 YYXZ=         148649.3849 ZZXY=         143219.8934
 N-N= 3.147423511758D+03 E-N=-9.644388292041D+03  KE= 1.434057405821D+03
 Unable to Open any file for archive entry.
 1\1\GINC-QML-000\SP\RB3LYP\6-31G(d)\C17H33N6O6(1+)\KENGMITH\24-May-202
 2\0\\# B3LYP/6-31G* empiricaldispersion=gd3 guess=read geom=check nosy
 mm integral(ultrafinegrid)\\Candidate Structure: Conf:34 Charge calc i
 n gas phase\\1,1\N,0,13.5668571717,17.0731864688,14.065330986\C,0,13.0
 493794576,18.42208736,14.4090568501\C,0,13.5365382595,19.4485064718,13
 .3633073776\O,0,14.7312441502,19.6828812234,13.2715271008\C,0,13.53567
 62133,18.8859004388,15.7958029172\C,0,13.5586924156,17.7848236796,16.8
 62408433\C,0,14.8181907161,16.9498607107,16.7783906985\O,0,15.86133409
 3,17.2694909195,16.2667457302\O,0,14.6756827823,15.7287213755,17.39924
 70778\H,0,15.565320034,15.3214346459,17.3885297988\H,0,11.9564865082,1
 8.3470189038,14.422942907\H,0,12.8944245898,19.7094389469,16.126480063
 5\H,0,14.5480845362,19.2842340755,15.6866432648\H,0,13.5634249661,18.2
 334399217,17.8649089746\H,0,12.6782445587,17.1336562841,16.825168982\H
 ,0,13.3981962459,16.9368725247,13.0644673596\H,0,14.5842676277,17.1002
 788876,14.1621128565\N,0,12.611877797,20.1010931543,12.583111191\C,0,1
 1.2642948575,19.6578773688,12.2787788964\C,0,11.2649385816,18.21032292
 54,11.7354488111\O,0,12.2993471982,17.6035593057,11.4679782721\C,0,10.
 6148817632,20.6255661338,11.2654381531\C,0,10.5281839842,22.0948109639
 ,11.7262296673\C,0,9.8861568085,22.9389040462,10.6155822956\C,0,9.7589
 361935,22.2428058925,13.0457273569\H,0,13.0668640726,20.6531954042,11.
 8626824272\H,0,10.6604017777,19.6638144971,13.1949043102\H,0,9.6000618
 972,20.2719603241,11.0392061443\H,0,11.176058242,20.5632953954,10.3226
 720227\H,0,11.5488637586,22.4669811262,11.8876112563\H,0,9.8645684299,
 23.9973753066,10.8950261158\H,0,10.4385470125,22.8515124439,9.67288162
 87\H,0,8.8517302,22.6218608087,10.4304491426\H,0,9.652866333,23.299440
 9159,13.3121860203\H,0,8.7485247409,21.8202468845,12.9617016227\H,0,10
 .271432223,21.7486771271,13.8791030382\N,0,10.0411860896,17.6207696269
 ,11.6248900832\C,0,9.9233313064,16.3153209094,10.9688847491\C,0,8.4934
 072613,16.0817164956,10.4835202299\O,0,7.992263212,14.9910833224,10.35
 60439892\C,0,10.406783015,15.1372380705,11.8335428667\C,0,9.6348135088
 ,14.9406582527,13.1503259115\C,0,10.1857363355,15.7121499273,14.364726
 6203\N,0,11.4791902945,15.2272233943,14.8742439815\C,0,11.5996840671,1
 4.1587293794,15.6573627736\N,0,10.5529870706,13.3381828755,15.88446572
 67\N,0,12.7726535575,13.8818583728,16.2508501586\O,0,7.8569224149,17.2
 399454608,10.1858534627\H,0,6.9706894923,17.0051199545,9.8484165415\H,
 0,9.2141225179,18.2030025382,11.6515571757\H,0,10.5517102276,16.335536
 304,10.0662759727\H,0,11.4744243976,15.2757269335,12.0243742108\H,0,10
 .3017173474,14.2400010135,11.2180623008\H,0,8.584836603,15.228544701,1
 3.0211565918\H,0,9.6114323622,13.86619555,13.3713966437\H,0,9.46198310
 86,15.6896268961,15.1889541455\H,0,10.3328274708,16.7592252177,14.0982
 890106\H,0,12.3392900901,15.7838337297,14.6500177368\H,0,9.7466603541,
 13.3341065989,15.2795958715\H,0,10.617777354,12.5937966341,16.56302132
 61\H,0,12.876570607,13.0257752345,16.7764453717\H,0,13.4473608969,14.6
 171512139,16.4627874873\\Version=ES64L-G16RevC.01\HF=-1447.5001698\RMS
 D=6.684e-09\Dipole=-2.3615702,-3.4097855,2.7161486\Quadrupole=-322.952
 1268,215.7867239,107.1654029,562.6094869,569.6687995,812.4274631\PG=C0
 1 [X(C17H33N6O6)]\\@
 The archive entry for this job was punched.


 THEORY:  SUPPOSITION WHICH HAS SCIENTIFIC BASIS,
          BUT NOT EXPERIMENTALLY PROVEN.
 FACT:    A THEORY WHICH HAS BEEN PROVEN BY ENOUGH 
          MONEY TO PAY FOR THE EXPERIMENTS.

                          --  THE WIZARD OF ID
 Job cpu time:       0 days  0 hours  1 minutes 50.7 seconds.
 Elapsed time:       0 days  0 hours  0 minutes 28.2 seconds.
 File lengths (MBytes):  RWF=    248 Int=      0 D2E=      0 Chk=     32 Scr=     16
 Normal termination of Gaussian 16 at Tue May 24 03:33:06 2022.
