 Entering Gaussian System, Link 0=/opt/software/Gaussian/g16-AVX2-C.01/g16/g16
 Input=charge-conf-367.com
 Output=charge-conf-367.log
 Initial command:
 /opt/software/Gaussian/g16-AVX2-C.01/g16/l1.exe "/mnt/gs18/scratch/users/kengmith/Gau-48971.inp" -scrdir="/mnt/gs18/scratch/users/kengmith/"
 Entering Link 1 = /opt/software/Gaussian/g16-AVX2-C.01/g16/l1.exe PID=     48993.
  
 Copyright (c) 1988-2019, Gaussian, Inc.  All Rights Reserved.
  
 This is part of the Gaussian(R) 16 program.  It is based on
 the Gaussian(R) 09 system (copyright 2009, Gaussian, Inc.),
 the Gaussian(R) 03 system (copyright 2003, Gaussian, Inc.),
 the Gaussian(R) 98 system (copyright 1998, Gaussian, Inc.),
 the Gaussian(R) 94 system (copyright 1995, Gaussian, Inc.),
 the Gaussian 92(TM) system (copyright 1992, Gaussian, Inc.),
 the Gaussian 90(TM) system (copyright 1990, Gaussian, Inc.),
 the Gaussian 88(TM) system (copyright 1988, Gaussian, Inc.),
 the Gaussian 86(TM) system (copyright 1986, Carnegie Mellon
 University), and the Gaussian 82(TM) system (copyright 1983,
 Carnegie Mellon University). Gaussian is a federally registered
 trademark of Gaussian, Inc.
  
 This software contains proprietary and confidential information,
 including trade secrets, belonging to Gaussian, Inc.
  
 This software is provided under written license and may be
 used, copied, transmitted, or stored only in accord with that
 written license.
  
 The following legend is applicable only to US Government
 contracts under FAR:
  
                    RESTRICTED RIGHTS LEGEND
  
 Use, reproduction and disclosure by the US Government is
 subject to restrictions as set forth in subparagraphs (a)
 and (c) of the Commercial Computer Software - Restricted
 Rights clause in FAR 52.227-19.
  
 Gaussian, Inc.
 340 Quinnipiac St., Bldg. 40, Wallingford CT 06492
  
  
 ---------------------------------------------------------------
 Warning -- This program may not be used in any manner that
 competes with the business of Gaussian, Inc. or will provide
 assistance to any competitor of Gaussian, Inc.  The licensee
 of this program is prohibited from giving any competitor of
 Gaussian, Inc. access to this program.  By using this program,
 the user acknowledges that Gaussian, Inc. is engaged in the
 business of creating and licensing software in the field of
 computational chemistry and represents and warrants to the
 licensee that it is not a competitor of Gaussian, Inc. and that
 it will not use this program in any manner prohibited above.
 ---------------------------------------------------------------
  

 Cite this work as:
 Gaussian 16, Revision C.01,
 M. J. Frisch, G. W. Trucks, H. B. Schlegel, G. E. Scuseria, 
 M. A. Robb, J. R. Cheeseman, G. Scalmani, V. Barone, 
 G. A. Petersson, H. Nakatsuji, X. Li, M. Caricato, A. V. Marenich, 
 J. Bloino, B. G. Janesko, R. Gomperts, B. Mennucci, H. P. Hratchian, 
 J. V. Ortiz, A. F. Izmaylov, J. L. Sonnenberg, D. Williams-Young, 
 F. Ding, F. Lipparini, F. Egidi, J. Goings, B. Peng, A. Petrone, 
 T. Henderson, D. Ranasinghe, V. G. Zakrzewski, J. Gao, N. Rega, 
 G. Zheng, W. Liang, M. Hada, M. Ehara, K. Toyota, R. Fukuda, 
 J. Hasegawa, M. Ishida, T. Nakajima, Y. Honda, O. Kitao, H. Nakai, 
 T. Vreven, K. Throssell, J. A. Montgomery, Jr., J. E. Peralta, 
 F. Ogliaro, M. J. Bearpark, J. J. Heyd, E. N. Brothers, K. N. Kudin, 
 V. N. Staroverov, T. A. Keith, R. Kobayashi, J. Normand, 
 K. Raghavachari, A. P. Rendell, J. C. Burant, S. S. Iyengar, 
 J. Tomasi, M. Cossi, J. M. Millam, M. Klene, C. Adamo, R. Cammi, 
 J. W. Ochterski, R. L. Martin, K. Morokuma, O. Farkas, 
 J. B. Foresman, and D. J. Fox, Gaussian, Inc., Wallingford CT, 2019.
 
 ******************************************
 Gaussian 16:  ES64L-G16RevC.01  3-Jul-2019
                24-May-2022 
 ******************************************
 %mem=8gb
 %nproc=4
 Will use up to    4 processors via shared memory.
 %chk=conf-367.chk
 ----------------------------------------------------------------------
 # B3LYP/6-31G* empiricaldispersion=gd3 guess=read geom=check nosymm in
 tegral(ultrafinegrid)
 ----------------------------------------------------------------------
 1/29=2,38=1,172=1/1;
 2/12=2,15=1,40=1/2;
 3/5=1,6=6,7=1,11=2,14=-4,25=1,30=1,74=-5,75=-5,116=-2,124=31/1,2,3;
 4/5=1/1;
 5/5=2,38=6/2;
 6/7=2,8=2,9=2,10=2,28=1/1;
 99/5=1,9=1/99;
 ------------------------------------------------------
 Candidate Structure: Conf:367 Charge calc in gas phase
 ------------------------------------------------------
 Structure from the checkpoint file:  "conf-367.chk"
 Charge =  1 Multiplicity = 1
 Redundant internal coordinates found in file.  (old form).
 N,0,8.4334416155,16.7199205298,15.9494730668
 C,0,9.1480494926,16.2626620896,14.7613394023
 C,0,8.1955517711,15.937672304,13.5858641946
 O,0,7.0100693592,15.7266960126,13.7952464633
 C,0,9.9680340743,15.0038576362,15.1286880738
 C,0,10.9963002216,15.2748861047,16.2316240924
 C,0,12.1602684157,16.1242137729,15.7904758398
 O,0,12.2383974437,16.7379876106,14.7351513722
 O,0,13.1996614227,16.2548083715,16.642867313
 H,0,13.0589885431,15.750012149,17.464252318
 H,0,9.8319693544,17.0604994118,14.4588069732
 H,0,10.4596865933,14.5773173263,14.248994785
 H,0,9.2681796165,14.2436617081,15.4937616254
 H,0,10.4912604459,15.8174270954,17.0456024559
 H,0,11.3846188127,14.3390089831,16.6545286211
 H,0,8.0652107553,17.6553275748,15.781648699
 H,0,7.6006522894,16.1354144879,16.0486587751
 N,0,8.7364006689,15.8562445206,12.3282449371
 C,0,10.0925690773,16.1911908966,11.9208683767
 C,0,10.2306672256,17.6835976116,11.5812333155
 O,0,9.5389747588,18.235522574,10.7457333008
 C,0,10.4934616063,15.3669003229,10.682122406
 C,0,11.9208156846,15.6242789127,10.1604466976
 C,0,13.0014768702,15.302946094,11.2074446397
 C,0,12.1599657121,14.8133438684,8.8787144511
 H,0,8.0495878781,15.7378992695,11.5907198516
 H,0,10.7689975971,15.9431998952,12.7384161602
 H,0,9.7766744061,15.5939273805,9.8831438763
 H,0,10.3783812419,14.305147732,10.9354337814
 H,0,11.9952240296,16.6897348192,9.8898057019
 H,0,12.9102562295,15.9044005841,12.1209607711
 H,0,12.9442308601,14.2485439705,11.5056001068
 H,0,14.0025260158,15.4733091344,10.7946474649
 H,0,11.4188134266,15.0575774265,8.110204988
 H,0,13.1540303886,15.0147897261,8.4649964309
 H,0,12.0933207007,13.7373189993,9.0817558952
 N,0,11.2776791967,18.3180977863,12.2330747796
 C,0,11.5583774148,19.7306568211,12.0092956677
 C,0,13.0622897289,19.9312806945,11.7953503846
 O,0,13.6270823596,20.989399739,12.0033349235
 C,0,10.9799886922,20.6874073191,13.0667460115
 C,0,11.3384222889,20.42495438,14.5396164328
 C,0,12.8207850503,20.5385656712,14.9288346822
 N,0,13.5434222366,19.287876004,14.6212679568
 C,0,14.8539466917,19.1434461467,14.3908928498
 N,0,15.5758504964,20.1361860996,13.8538044898
 N,0,15.4370661653,17.9788353182,14.7274787997
 O,0,13.7479904318,18.8620186703,11.3668563577
 H,0,13.119631044,18.1145232736,11.2827411399
 H,0,11.6227347995,17.8842652739,13.0819543752
 H,0,11.075763638,19.9694691977,11.0520918845
 H,0,9.8900856532,20.6442268726,12.9686823306
 H,0,11.2874495393,21.7016268771,12.7930712086
 H,0,10.7933807806,21.1617393528,15.1399698482
 H,0,10.9537256746,19.4461707701,14.8622317978
 H,0,12.909468981,20.721320398,16.0065947047
 H,0,13.291703473,21.368938897,14.4041433903
 H,0,13.0650718076,18.4222962448,14.8701644345
 H,0,15.1099272974,20.7379407788,13.1680142959
 H,0,16.5734312094,20.0140223449,13.7456120535
 H,0,16.2950967827,17.681566983,14.2848160578
 H,0,14.9297863516,17.2962497695,15.2785373387
 Recover connectivity data from disk.
                           ----------------------------
                           !    Current Parameters    !
                           ! (Angstroms and Degrees)  !
 --------------------------                            --------------------------
 ! Name  Definition              Value                                          !
 --------------------------------------------------------------------------------
 ! R1    R(1,2)                  1.4599                                         !
 ! R2    R(1,16)                 1.0192                                         !
 ! R3    R(1,17)                 1.0223                                         !
 ! R4    R(2,3)                  1.5475                                         !
 ! R5    R(2,5)                  1.5466                                         !
 ! R6    R(2,11)                 1.0935                                         !
 ! R7    R(3,4)                  1.2222                                         !
 ! R8    R(3,18)                 1.3714                                         !
 ! R9    R(5,6)                  1.5321                                         !
 ! R10   R(5,12)                 1.0943                                         !
 ! R11   R(5,13)                 1.0959                                         !
 ! R12   R(6,7)                  1.5069                                         !
 ! R13   R(6,14)                 1.1009                                         !
 ! R14   R(6,15)                 1.098                                          !
 ! R15   R(7,8)                  1.2233                                         !
 ! R16   R(7,9)                  1.3505                                         !
 ! R17   R(9,10)                 0.9743                                         !
 ! R18   R(18,19)                1.4551                                         !
 ! R19   R(18,26)                1.0147                                         !
 ! R20   R(19,20)                1.5368                                         !
 ! R21   R(19,22)                1.541                                          !
 ! R22   R(19,27)                1.0897                                         !
 ! R23   R(20,21)                1.217                                          !
 ! R24   R(20,37)                1.387                                          !
 ! R25   R(22,23)                1.5413                                         !
 ! R26   R(22,28)                1.0971                                         !
 ! R27   R(22,29)                1.0976                                         !
 ! R28   R(23,24)                1.5386                                         !
 ! R29   R(23,25)                1.5355                                         !
 ! R30   R(23,30)                1.1018                                         !
 ! R31   R(24,31)                1.0975                                         !
 ! R32   R(24,32)                1.0972                                         !
 ! R33   R(24,33)                1.0961                                         !
 ! R34   R(25,34)                1.0952                                         !
 ! R35   R(25,35)                1.0954                                         !
 ! R36   R(25,36)                1.097                                          !
 ! R37   R(37,38)                1.4575                                         !
 ! R38   R(37,50)                1.0138                                         !
 ! R39   R(38,39)                1.5322                                         !
 ! R40   R(38,41)                1.5389                                         !
 ! R41   R(38,51)                1.0983                                         !
 ! R42   R(39,40)                1.2173                                         !
 ! R43   R(39,48)                1.3406                                         !
 ! R44   R(41,42)                1.5384                                         !
 ! R45   R(41,52)                1.0952                                         !
 ! R46   R(41,53)                1.0946                                         !
 ! R47   R(42,43)                1.5368                                         !
 ! R48   R(42,54)                1.0956                                         !
 ! R49   R(42,55)                1.1                                            !
 ! R50   R(43,44)                1.4768                                         !
 ! R51   R(43,56)                1.0967                                         !
 ! R52   R(43,57)                1.0893                                         !
 ! R53   R(44,45)                1.3384                                         !
 ! R54   R(44,58)                1.0198                                         !
 ! R55   R(45,46)                1.3398                                         !
 ! R56   R(45,47)                1.3452                                         !
 ! R57   R(46,59)                1.0245                                         !
 ! R58   R(46,60)                1.0108                                         !
 ! R59   R(47,61)                1.0102                                         !
 ! R60   R(47,62)                1.0134                                         !
 ! R61   R(48,49)                0.9801                                         !
 ! A1    A(2,1,16)             109.2868                                         !
 ! A2    A(2,1,17)             107.3756                                         !
 ! A3    A(16,1,17)            104.2657                                         !
 ! A4    A(1,2,3)              112.5003                                         !
 ! A5    A(1,2,5)              108.732                                          !
 ! A6    A(1,2,11)             107.6239                                         !
 ! A7    A(3,2,5)              109.6234                                         !
 ! A8    A(3,2,11)             109.1497                                         !
 ! A9    A(5,2,11)             109.1448                                         !
 ! A10   A(2,3,4)              120.2094                                         !
 ! A11   A(2,3,18)             117.7953                                         !
 ! A12   A(4,3,18)             121.9642                                         !
 ! A13   A(2,5,6)              112.5103                                         !
 ! A14   A(2,5,12)             111.3779                                         !
 ! A15   A(2,5,13)             107.7667                                         !
 ! A16   A(6,5,12)             110.2504                                         !
 ! A17   A(6,5,13)             108.1502                                         !
 ! A18   A(12,5,13)            106.5189                                         !
 ! A19   A(5,6,7)              114.0399                                         !
 ! A20   A(5,6,14)             108.1532                                         !
 ! A21   A(5,6,15)             111.338                                          !
 ! A22   A(7,6,14)             107.04                                           !
 ! A23   A(7,6,15)             108.6626                                         !
 ! A24   A(14,6,15)            107.3092                                         !
 ! A25   A(6,7,8)              125.7789                                         !
 ! A26   A(6,7,9)              117.6581                                         !
 ! A27   A(8,7,9)              116.5387                                         !
 ! A28   A(7,9,10)             111.7691                                         !
 ! A29   A(3,18,19)            127.6349                                         !
 ! A30   A(3,18,26)            113.9859                                         !
 ! A31   A(19,18,26)           117.0127                                         !
 ! A32   A(18,19,20)           111.6641                                         !
 ! A33   A(18,19,22)           110.1443                                         !
 ! A34   A(18,19,27)           108.428                                          !
 ! A35   A(20,19,22)           108.5679                                         !
 ! A36   A(20,19,27)           109.3315                                         !
 ! A37   A(22,19,27)           108.6555                                         !
 ! A38   A(19,20,21)           122.756                                          !
 ! A39   A(19,20,37)           114.0936                                         !
 ! A40   A(21,20,37)           122.9713                                         !
 ! A41   A(19,22,23)           115.0661                                         !
 ! A42   A(19,22,28)           107.7435                                         !
 ! A43   A(19,22,29)           107.7366                                         !
 ! A44   A(23,22,28)           108.9039                                         !
 ! A45   A(23,22,29)           109.678                                          !
 ! A46   A(28,22,29)           107.4419                                         !
 ! A47   A(22,23,24)           112.6584                                         !
 ! A48   A(22,23,25)           109.7898                                         !
 ! A49   A(22,23,30)           107.8875                                         !
 ! A50   A(24,23,25)           110.3861                                         !
 ! A51   A(24,23,30)           108.7642                                         !
 ! A52   A(25,23,30)           107.1666                                         !
 ! A53   A(23,24,31)           113.1767                                         !
 ! A54   A(23,24,32)           110.4237                                         !
 ! A55   A(23,24,33)           110.6532                                         !
 ! A56   A(31,24,32)           107.2236                                         !
 ! A57   A(31,24,33)           107.709                                          !
 ! A58   A(32,24,33)           107.4174                                         !
 ! A59   A(23,25,34)           111.2575                                         !
 ! A60   A(23,25,35)           111.069                                          !
 ! A61   A(23,25,36)           110.7359                                         !
 ! A62   A(34,25,35)           107.9432                                         !
 ! A63   A(34,25,36)           107.9075                                         !
 ! A64   A(35,25,36)           107.7829                                         !
 ! A65   A(20,37,38)           121.1045                                         !
 ! A66   A(20,37,50)           117.0436                                         !
 ! A67   A(38,37,50)           118.5377                                         !
 ! A68   A(37,38,39)           109.7169                                         !
 ! A69   A(37,38,41)           115.1302                                         !
 ! A70   A(37,38,51)           105.0661                                         !
 ! A71   A(39,38,41)           112.5473                                         !
 ! A72   A(39,38,51)           106.3283                                         !
 ! A73   A(41,38,51)           107.3705                                         !
 ! A74   A(38,39,40)           123.0479                                         !
 ! A75   A(38,39,48)           116.2467                                         !
 ! A76   A(40,39,48)           120.7039                                         !
 ! A77   A(38,41,42)           117.6618                                         !
 ! A78   A(38,41,52)           106.7386                                         !
 ! A79   A(38,41,53)           107.3795                                         !
 ! A80   A(42,41,52)           108.1119                                         !
 ! A81   A(42,41,53)           109.3908                                         !
 ! A82   A(52,41,53)           107.0794                                         !
 ! A83   A(41,42,43)           117.039                                          !
 ! A84   A(41,42,54)           107.0968                                         !
 ! A85   A(41,42,55)           110.5545                                         !
 ! A86   A(43,42,54)           106.9394                                         !
 ! A87   A(43,42,55)           109.1973                                         !
 ! A88   A(54,42,55)           105.2888                                         !
 ! A89   A(42,43,44)           110.8932                                         !
 ! A90   A(42,43,56)           109.8279                                         !
 ! A91   A(42,43,57)           110.5703                                         !
 ! A92   A(44,43,56)           107.831                                          !
 ! A93   A(44,43,57)           109.4946                                         !
 ! A94   A(56,43,57)           108.1411                                         !
 ! A95   A(43,44,45)           127.3257                                         !
 ! A96   A(43,44,58)           116.0053                                         !
 ! A97   A(45,44,58)           114.1859                                         !
 ! A98   A(44,45,46)           121.1051                                         !
 ! A99   A(44,45,47)           118.3456                                         !
 ! A100  A(46,45,47)           120.5443                                         !
 ! A101  A(45,46,59)           117.2918                                         !
 ! A102  A(45,46,60)           119.0187                                         !
 ! A103  A(59,46,60)           116.6267                                         !
 ! A104  A(45,47,61)           120.8831                                         !
 ! A105  A(45,47,62)           120.1463                                         !
 ! A106  A(61,47,62)           117.7262                                         !
 ! A107  A(39,48,49)           107.9275                                         !
 ! D1    D(16,1,2,3)           -71.1933                                         !
 ! D2    D(16,1,2,5)           167.1853                                         !
 ! D3    D(16,1,2,11)           49.081                                          !
 ! D4    D(17,1,2,3)            41.3296                                         !
 ! D5    D(17,1,2,5)           -80.2917                                         !
 ! D6    D(17,1,2,11)          161.6039                                         !
 ! D7    D(1,2,3,4)            -19.4825                                         !
 ! D8    D(1,2,3,18)           162.5072                                         !
 ! D9    D(5,2,3,4)            101.6302                                         !
 ! D10   D(5,2,3,18)           -76.3801                                         !
 ! D11   D(11,2,3,4)          -138.8723                                         !
 ! D12   D(11,2,3,18)           43.1174                                         !
 ! D13   D(1,2,5,6)            -60.1308                                         !
 ! D14   D(1,2,5,12)           175.4961                                         !
 ! D15   D(1,2,5,13)            59.0048                                         !
 ! D16   D(3,2,5,6)            176.508                                          !
 ! D17   D(3,2,5,12)            52.1349                                         !
 ! D18   D(3,2,5,13)           -64.3564                                         !
 ! D19   D(11,2,5,6)            57.0076                                         !
 ! D20   D(11,2,5,12)          -67.3655                                         !
 ! D21   D(11,2,5,13)          176.1432                                         !
 ! D22   D(2,3,18,19)           -7.7813                                         !
 ! D23   D(2,3,18,26)         -173.9047                                         !
 ! D24   D(4,3,18,19)          174.2455                                         !
 ! D25   D(4,3,18,26)            8.1221                                         !
 ! D26   D(2,5,6,7)            -70.9973                                         !
 ! D27   D(2,5,6,14)            47.9453                                         !
 ! D28   D(2,5,6,15)           165.6064                                         !
 ! D29   D(12,5,6,7)            53.9952                                         !
 ! D30   D(12,5,6,14)          172.9377                                         !
 ! D31   D(12,5,6,15)          -69.4011                                         !
 ! D32   D(13,5,6,7)           170.0911                                         !
 ! D33   D(13,5,6,14)          -70.9663                                         !
 ! D34   D(13,5,6,15)           46.6948                                         !
 ! D35   D(5,6,7,8)             10.8838                                         !
 ! D36   D(5,6,7,9)           -170.978                                          !
 ! D37   D(14,6,7,8)          -108.6891                                         !
 ! D38   D(14,6,7,9)            69.4492                                         !
 ! D39   D(15,6,7,8)           135.7177                                         !
 ! D40   D(15,6,7,9)           -46.144                                          !
 ! D41   D(6,7,9,10)             0.7765                                         !
 ! D42   D(8,7,9,10)           179.0883                                         !
 ! D43   D(3,18,19,20)         -86.4964                                         !
 ! D44   D(3,18,19,22)         152.7953                                         !
 ! D45   D(3,18,19,27)          34.021                                          !
 ! D46   D(26,18,19,20)         79.2654                                         !
 ! D47   D(26,18,19,22)        -41.4428                                         !
 ! D48   D(26,18,19,27)       -160.2171                                         !
 ! D49   D(18,19,20,21)        -56.3702                                         !
 ! D50   D(18,19,20,37)        128.3657                                         !
 ! D51   D(22,19,20,21)         65.2538                                         !
 ! D52   D(22,19,20,37)       -110.0104                                         !
 ! D53   D(27,19,20,21)       -176.3578                                         !
 ! D54   D(27,19,20,37)          8.378                                          !
 ! D55   D(18,19,22,23)       -179.4549                                         !
 ! D56   D(18,19,22,28)         58.8642                                         !
 ! D57   D(18,19,22,29)        -56.7786                                         !
 ! D58   D(20,19,22,23)         57.9953                                         !
 ! D59   D(20,19,22,28)        -63.6856                                         !
 ! D60   D(20,19,22,29)       -179.3283                                         !
 ! D61   D(27,19,22,23)        -60.8199                                         !
 ! D62   D(27,19,22,28)        177.4992                                         !
 ! D63   D(27,19,22,29)         61.8565                                         !
 ! D64   D(19,20,37,38)        179.1941                                         !
 ! D65   D(19,20,37,50)        -21.6662                                         !
 ! D66   D(21,20,37,38)          3.9414                                         !
 ! D67   D(21,20,37,50)        163.0812                                         !
 ! D68   D(19,22,23,24)         60.1709                                         !
 ! D69   D(19,22,23,25)       -176.3673                                         !
 ! D70   D(19,22,23,30)        -59.8965                                         !
 ! D71   D(28,22,23,24)       -178.7786                                         !
 ! D72   D(28,22,23,25)        -55.3168                                         !
 ! D73   D(28,22,23,30)         61.1539                                         !
 ! D74   D(29,22,23,24)        -61.4595                                         !
 ! D75   D(29,22,23,25)         62.0023                                         !
 ! D76   D(29,22,23,30)        178.473                                          !
 ! D77   D(22,23,24,31)        -60.4192                                         !
 ! D78   D(22,23,24,32)         59.7874                                         !
 ! D79   D(22,23,24,33)        178.5843                                         !
 ! D80   D(25,23,24,31)        176.4511                                         !
 ! D81   D(25,23,24,32)        -63.3423                                         !
 ! D82   D(25,23,24,33)         55.4546                                         !
 ! D83   D(30,23,24,31)         59.1415                                         !
 ! D84   D(30,23,24,32)        179.3481                                         !
 ! D85   D(30,23,24,33)        -61.855                                          !
 ! D86   D(22,23,25,34)         57.2273                                         !
 ! D87   D(22,23,25,35)        177.5001                                         !
 ! D88   D(22,23,25,36)        -62.7768                                         !
 ! D89   D(24,23,25,34)       -177.9884                                         !
 ! D90   D(24,23,25,35)        -57.7156                                         !
 ! D91   D(24,23,25,36)         62.0075                                         !
 ! D92   D(30,23,25,34)        -59.6963                                         !
 ! D93   D(30,23,25,35)         60.5766                                         !
 ! D94   D(30,23,25,36)       -179.7003                                         !
 ! D95   D(20,37,38,39)       -134.0992                                         !
 ! D96   D(20,37,38,41)         97.7289                                         !
 ! D97   D(20,37,38,51)        -20.1608                                         !
 ! D98   D(50,37,38,39)         67.0636                                         !
 ! D99   D(50,37,38,41)        -61.1084                                         !
 ! D100  D(50,37,38,51)       -178.9981                                         !
 ! D101  D(37,38,39,40)       -156.1308                                         !
 ! D102  D(37,38,39,48)         23.4369                                         !
 ! D103  D(41,38,39,40)        -26.5433                                         !
 ! D104  D(41,38,39,48)        153.0244                                         !
 ! D105  D(51,38,39,40)         90.7455                                         !
 ! D106  D(51,38,39,48)        -89.6868                                         !
 ! D107  D(37,38,41,42)         54.5894                                         !
 ! D108  D(37,38,41,52)        -67.0225                                         !
 ! D109  D(37,38,41,53)        178.4271                                         !
 ! D110  D(39,38,41,42)        -72.1544                                         !
 ! D111  D(39,38,41,52)        166.2337                                         !
 ! D112  D(39,38,41,53)         51.6834                                         !
 ! D113  D(51,38,41,42)        171.1769                                         !
 ! D114  D(51,38,41,52)         49.565                                          !
 ! D115  D(51,38,41,53)        -64.9854                                         !
 ! D116  D(38,39,48,49)         -0.9152                                         !
 ! D117  D(40,39,48,49)        178.6634                                         !
 ! D118  D(38,41,42,43)         63.3712                                         !
 ! D119  D(38,41,42,54)       -176.6804                                         !
 ! D120  D(38,41,42,55)        -62.4778                                         !
 ! D121  D(52,41,42,43)       -175.7271                                         !
 ! D122  D(52,41,42,54)        -55.7787                                         !
 ! D123  D(52,41,42,55)         58.4239                                         !
 ! D124  D(53,41,42,43)        -59.45                                           !
 ! D125  D(53,41,42,54)         60.4985                                         !
 ! D126  D(53,41,42,55)        174.701                                          !
 ! D127  D(41,42,43,44)        -82.8878                                         !
 ! D128  D(41,42,43,56)        158.0304                                         !
 ! D129  D(41,42,43,57)         38.7662                                         !
 ! D130  D(54,42,43,44)        157.0803                                         !
 ! D131  D(54,42,43,56)         37.9985                                         !
 ! D132  D(54,42,43,57)        -81.2657                                         !
 ! D133  D(55,42,43,44)         43.632                                          !
 ! D134  D(55,42,43,56)        -75.4498                                         !
 ! D135  D(55,42,43,57)        165.2859                                         !
 ! D136  D(42,43,44,45)        155.616                                          !
 ! D137  D(42,43,44,58)        -43.4329                                         !
 ! D138  D(56,43,44,45)        -84.1073                                         !
 ! D139  D(56,43,44,58)         76.8438                                         !
 ! D140  D(57,43,44,45)         33.3335                                         !
 ! D141  D(57,43,44,58)       -165.7154                                         !
 ! D142  D(43,44,45,46)        -29.3278                                         !
 ! D143  D(43,44,45,47)        149.8671                                         !
 ! D144  D(58,44,45,46)        169.4292                                         !
 ! D145  D(58,44,45,47)        -11.3759                                         !
 ! D146  D(44,45,46,59)        -34.0623                                         !
 ! D147  D(44,45,46,60)        176.29                                           !
 ! D148  D(47,45,46,59)        146.7604                                         !
 ! D149  D(47,45,46,60)         -2.8873                                         !
 ! D150  D(44,45,47,61)        156.9695                                         !
 ! D151  D(44,45,47,62)         -9.9985                                         !
 ! D152  D(46,45,47,61)        -23.8309                                         !
 ! D153  D(46,45,47,62)        169.2011                                         !
 --------------------------------------------------------------------------------
 Symmetry turned off by external request.
 Stoichiometry    C17H33N6O6(1+)
 Framework group  C1[X(C17H33N6O6)]
 Deg. of freedom   180
 Full point group                 C1      NOp   1
                          Input orientation:                          
 ---------------------------------------------------------------------
 Center     Atomic      Atomic             Coordinates (Angstroms)
 Number     Number       Type             X           Y           Z
 ---------------------------------------------------------------------
      1          7           0        8.433442   16.719921   15.949473
      2          6           0        9.148049   16.262662   14.761339
      3          6           0        8.195552   15.937672   13.585864
      4          8           0        7.010069   15.726696   13.795246
      5          6           0        9.968034   15.003858   15.128688
      6          6           0       10.996300   15.274886   16.231624
      7          6           0       12.160268   16.124214   15.790476
      8          8           0       12.238397   16.737988   14.735151
      9          8           0       13.199661   16.254808   16.642867
     10          1           0       13.058989   15.750012   17.464252
     11          1           0        9.831969   17.060499   14.458807
     12          1           0       10.459687   14.577317   14.248995
     13          1           0        9.268180   14.243662   15.493762
     14          1           0       10.491260   15.817427   17.045602
     15          1           0       11.384619   14.339009   16.654529
     16          1           0        8.065211   17.655328   15.781649
     17          1           0        7.600652   16.135414   16.048659
     18          7           0        8.736401   15.856245   12.328245
     19          6           0       10.092569   16.191191   11.920868
     20          6           0       10.230667   17.683598   11.581233
     21          8           0        9.538975   18.235523   10.745733
     22          6           0       10.493462   15.366900   10.682122
     23          6           0       11.920816   15.624279   10.160447
     24          6           0       13.001477   15.302946   11.207445
     25          6           0       12.159966   14.813344    8.878714
     26          1           0        8.049588   15.737899   11.590720
     27          1           0       10.768998   15.943200   12.738416
     28          1           0        9.776674   15.593927    9.883144
     29          1           0       10.378381   14.305148   10.935434
     30          1           0       11.995224   16.689735    9.889806
     31          1           0       12.910256   15.904401   12.120961
     32          1           0       12.944231   14.248544   11.505600
     33          1           0       14.002526   15.473309   10.794647
     34          1           0       11.418813   15.057577    8.110205
     35          1           0       13.154030   15.014790    8.464996
     36          1           0       12.093321   13.737319    9.081756
     37          7           0       11.277679   18.318098   12.233075
     38          6           0       11.558377   19.730657   12.009296
     39          6           0       13.062290   19.931281   11.795350
     40          8           0       13.627082   20.989400   12.003335
     41          6           0       10.979989   20.687407   13.066746
     42          6           0       11.338422   20.424954   14.539616
     43          6           0       12.820785   20.538566   14.928835
     44          7           0       13.543422   19.287876   14.621268
     45          6           0       14.853947   19.143446   14.390893
     46          7           0       15.575850   20.136186   13.853804
     47          7           0       15.437066   17.978835   14.727479
     48          8           0       13.747990   18.862019   11.366856
     49          1           0       13.119631   18.114523   11.282741
     50          1           0       11.622735   17.884265   13.081954
     51          1           0       11.075764   19.969469   11.052092
     52          1           0        9.890086   20.644227   12.968682
     53          1           0       11.287450   21.701627   12.793071
     54          1           0       10.793381   21.161739   15.139970
     55          1           0       10.953726   19.446171   14.862232
     56          1           0       12.909469   20.721320   16.006595
     57          1           0       13.291703   21.368939   14.404143
     58          1           0       13.065072   18.422296   14.870164
     59          1           0       15.109927   20.737941   13.168014
     60          1           0       16.573431   20.014022   13.745612
     61          1           0       16.295097   17.681567   14.284816
     62          1           0       14.929786   17.296250   15.278537
 ---------------------------------------------------------------------
 Rotational constants (GHZ):           0.1886592           0.1369784           0.1147855
 Standard basis: 6-31G(d) (6D, 7F)
   501 basis functions,   944 primitive gaussians,   501 cartesian basis functions
   112 alpha electrons      112 beta electrons
       nuclear repulsion energy      3296.8074747587 Hartrees.
 NAtoms=   62 NActive=   62 NUniq=   62 SFac= 1.00D+00 NAtFMM=   60 NAOKFM=T Big=T
 Integral buffers will be    131072 words long.
 Raffenetti 2 integral format.
 Two-electron integral symmetry is turned off.
 Nuclear repulsion after empirical dispersion term =     3296.7169092073 Hartrees.
 One-electron integrals computed using PRISM.
 NBasis=   501 RedAO= T EigKep=  1.68D-03  NBF=   501
 NBsUse=   501 1.00D-06 EigRej= -1.00D+00 NBFU=   501
 Initial guess from the checkpoint file:  "conf-367.chk"
 B after Tr=     0.000000    0.000000    0.000000
         Rot=    1.000000    0.000000    0.000000    0.000000 Ang=   0.00 deg.
 Requested convergence on RMS density matrix=1.00D-08 within 128 cycles.
 Requested convergence on MAX density matrix=1.00D-06.
 Requested convergence on             energy=1.00D-06.
 No special actions if energy rises.
 SCF Done:  E(RB3LYP) =  -1447.50724091     A.U. after    2 cycles
            NFock=  2  Conv=0.93D-08     -V/T= 2.0093

 **********************************************************************

            Population analysis using the SCF Density.

 **********************************************************************

 Alpha  occ. eigenvalues --  -19.35511 -19.31593 -19.30161 -19.26102 -19.23087
 Alpha  occ. eigenvalues --  -19.20378 -14.52096 -14.51162 -14.50640 -14.48227
 Alpha  occ. eigenvalues --  -14.45288 -14.41223 -10.48065 -10.47923 -10.44376
 Alpha  occ. eigenvalues --  -10.39834 -10.37570 -10.35623 -10.35601 -10.33919
 Alpha  occ. eigenvalues --  -10.33341 -10.32615 -10.31534 -10.30864 -10.30488
 Alpha  occ. eigenvalues --  -10.29283 -10.28710 -10.27868 -10.25973  -1.26149
 Alpha  occ. eigenvalues --   -1.22658  -1.17572  -1.16345  -1.15176  -1.14185
 Alpha  occ. eigenvalues --   -1.12397  -1.05657  -1.04533  -1.04434  -1.01952
 Alpha  occ. eigenvalues --   -0.98916  -0.92287  -0.91556  -0.91078  -0.87640
 Alpha  occ. eigenvalues --   -0.84371  -0.82656  -0.81170  -0.78154  -0.77866
 Alpha  occ. eigenvalues --   -0.77522  -0.75228  -0.74479  -0.73930  -0.73139
 Alpha  occ. eigenvalues --   -0.71766  -0.71081  -0.69530  -0.68222  -0.66718
 Alpha  occ. eigenvalues --   -0.66062  -0.65503  -0.65129  -0.63889  -0.62275
 Alpha  occ. eigenvalues --   -0.62021  -0.61548  -0.60940  -0.60150  -0.59856
 Alpha  occ. eigenvalues --   -0.59300  -0.58899  -0.57352  -0.57131  -0.56407
 Alpha  occ. eigenvalues --   -0.55916  -0.55168  -0.55053  -0.53853  -0.53527
 Alpha  occ. eigenvalues --   -0.52999  -0.52760  -0.52522  -0.51919  -0.51415
 Alpha  occ. eigenvalues --   -0.50977  -0.50638  -0.49902  -0.49061  -0.48432
 Alpha  occ. eigenvalues --   -0.48065  -0.47702  -0.47198  -0.46994  -0.46891
 Alpha  occ. eigenvalues --   -0.46325  -0.46043  -0.45689  -0.44781  -0.44003
 Alpha  occ. eigenvalues --   -0.43293  -0.42957  -0.42815  -0.42422  -0.42356
 Alpha  occ. eigenvalues --   -0.40740  -0.40304  -0.37709  -0.37270  -0.35341
 Alpha  occ. eigenvalues --   -0.34120  -0.33338
 Alpha virt. eigenvalues --   -0.15118  -0.13240  -0.11678  -0.09542  -0.08546
 Alpha virt. eigenvalues --   -0.07154  -0.06413  -0.05143  -0.03463  -0.02345
 Alpha virt. eigenvalues --   -0.01792  -0.00805  -0.00699   0.00138   0.00482
 Alpha virt. eigenvalues --    0.01416   0.01790   0.02661   0.03111   0.03620
 Alpha virt. eigenvalues --    0.03830   0.04280   0.04401   0.04829   0.05178
 Alpha virt. eigenvalues --    0.05625   0.05829   0.06189   0.06368   0.07188
 Alpha virt. eigenvalues --    0.07361   0.07948   0.08388   0.08842   0.09216
 Alpha virt. eigenvalues --    0.09486   0.09701   0.10429   0.10502   0.11214
 Alpha virt. eigenvalues --    0.11373   0.11859   0.12042   0.12881   0.13154
 Alpha virt. eigenvalues --    0.13532   0.14087   0.14187   0.15115   0.15312
 Alpha virt. eigenvalues --    0.15571   0.16178   0.17843   0.18023   0.18771
 Alpha virt. eigenvalues --    0.19546   0.19996   0.21713   0.24156   0.24520
 Alpha virt. eigenvalues --    0.25183   0.26682   0.28156   0.29800   0.30444
 Alpha virt. eigenvalues --    0.31389   0.34614   0.36412   0.38420   0.38668
 Alpha virt. eigenvalues --    0.39477   0.40275   0.40449   0.40585   0.41356
 Alpha virt. eigenvalues --    0.42069   0.42314   0.42707   0.43427   0.43506
 Alpha virt. eigenvalues --    0.44119   0.45315   0.46389   0.46732   0.48151
 Alpha virt. eigenvalues --    0.48902   0.49683   0.50218   0.50770   0.50862
 Alpha virt. eigenvalues --    0.51069   0.51875   0.52856   0.53358   0.53858
 Alpha virt. eigenvalues --    0.54473   0.54574   0.55052   0.55606   0.56484
 Alpha virt. eigenvalues --    0.56794   0.57883   0.58392   0.58821   0.59666
 Alpha virt. eigenvalues --    0.60080   0.60983   0.61642   0.62339   0.62525
 Alpha virt. eigenvalues --    0.62797   0.63400   0.64019   0.64423   0.65072
 Alpha virt. eigenvalues --    0.66005   0.66467   0.68469   0.69332   0.69703
 Alpha virt. eigenvalues --    0.70709   0.71306   0.71404   0.72182   0.72414
 Alpha virt. eigenvalues --    0.72524   0.72981   0.73092   0.74189   0.74337
 Alpha virt. eigenvalues --    0.75211   0.76212   0.76302   0.76922   0.77355
 Alpha virt. eigenvalues --    0.77719   0.78311   0.78832   0.79132   0.79666
 Alpha virt. eigenvalues --    0.79738   0.80281   0.81002   0.81574   0.82030
 Alpha virt. eigenvalues --    0.82195   0.82448   0.82865   0.83547   0.83975
 Alpha virt. eigenvalues --    0.84580   0.85304   0.85590   0.85722   0.86495
 Alpha virt. eigenvalues --    0.87162   0.87302   0.88649   0.89307   0.89970
 Alpha virt. eigenvalues --    0.90296   0.90845   0.91698   0.92250   0.93489
 Alpha virt. eigenvalues --    0.94108   0.94637   0.94869   0.96197   0.97135
 Alpha virt. eigenvalues --    0.97905   0.98982   1.00154   1.01015   1.02041
 Alpha virt. eigenvalues --    1.03032   1.03810   1.04093   1.06138   1.06671
 Alpha virt. eigenvalues --    1.07403   1.07704   1.09864   1.10270   1.11015
 Alpha virt. eigenvalues --    1.13498   1.14649   1.15686   1.16551   1.17107
 Alpha virt. eigenvalues --    1.17844   1.19026   1.21335   1.23159   1.23387
 Alpha virt. eigenvalues --    1.25610   1.25910   1.26317   1.27177   1.29229
 Alpha virt. eigenvalues --    1.29820   1.30372   1.31770   1.33707   1.34315
 Alpha virt. eigenvalues --    1.35477   1.36236   1.36677   1.39079   1.40551
 Alpha virt. eigenvalues --    1.41160   1.41928   1.43346   1.44789   1.46025
 Alpha virt. eigenvalues --    1.47193   1.47763   1.49061   1.49676   1.50779
 Alpha virt. eigenvalues --    1.52354   1.54044   1.54232   1.55174   1.55860
 Alpha virt. eigenvalues --    1.56568   1.57369   1.57425   1.59314   1.59990
 Alpha virt. eigenvalues --    1.60661   1.61819   1.62389   1.63506   1.64487
 Alpha virt. eigenvalues --    1.64957   1.65966   1.66989   1.67199   1.67980
 Alpha virt. eigenvalues --    1.69101   1.69945   1.70767   1.71113   1.71764
 Alpha virt. eigenvalues --    1.72405   1.73515   1.74363   1.74822   1.75727
 Alpha virt. eigenvalues --    1.76084   1.76722   1.76845   1.77445   1.78212
 Alpha virt. eigenvalues --    1.78886   1.80028   1.81203   1.81441   1.82705
 Alpha virt. eigenvalues --    1.82866   1.84179   1.84485   1.85475   1.86249
 Alpha virt. eigenvalues --    1.87153   1.87904   1.88724   1.89779   1.90343
 Alpha virt. eigenvalues --    1.90988   1.91377   1.92190   1.92501   1.93687
 Alpha virt. eigenvalues --    1.94020   1.94932   1.96874   1.98263   1.98566
 Alpha virt. eigenvalues --    1.99591   2.00105   2.02046   2.03244   2.03984
 Alpha virt. eigenvalues --    2.05296   2.06067   2.06528   2.08221   2.09147
 Alpha virt. eigenvalues --    2.10118   2.10337   2.12155   2.13723   2.14981
 Alpha virt. eigenvalues --    2.15599   2.15971   2.16591   2.16738   2.17390
 Alpha virt. eigenvalues --    2.17964   2.20721   2.22228   2.24674   2.25204
 Alpha virt. eigenvalues --    2.26576   2.26957   2.28183   2.28740   2.29760
 Alpha virt. eigenvalues --    2.32092   2.32552   2.32758   2.33585   2.35376
 Alpha virt. eigenvalues --    2.35462   2.36744   2.37988   2.38691   2.39505
 Alpha virt. eigenvalues --    2.40806   2.42999   2.43589   2.44295   2.45436
 Alpha virt. eigenvalues --    2.46011   2.46795   2.48952   2.49120   2.51657
 Alpha virt. eigenvalues --    2.52145   2.54666   2.55573   2.55880   2.57792
 Alpha virt. eigenvalues --    2.58366   2.59288   2.60023   2.60650   2.61575
 Alpha virt. eigenvalues --    2.64353   2.65457   2.68137   2.69173   2.72400
 Alpha virt. eigenvalues --    2.73963   2.75260   2.78868   2.81075   2.87389
 Alpha virt. eigenvalues --    2.89565   2.90334   2.91961   2.92441   2.94626
 Alpha virt. eigenvalues --    2.95078   2.95301   3.00238   3.03542   3.08101
 Alpha virt. eigenvalues --    3.66635   3.71974   3.73819   3.80550   3.87360
 Alpha virt. eigenvalues --    3.90485   3.94957   3.98505   4.00674   4.05523
 Alpha virt. eigenvalues --    4.07417   4.08816   4.10017   4.15154   4.15986
 Alpha virt. eigenvalues --    4.20105   4.20912   4.23072   4.25530   4.29441
 Alpha virt. eigenvalues --    4.35221   4.37839   4.40693   4.43576   4.46817
 Alpha virt. eigenvalues --    4.50235   4.54560   4.57747   4.71868
          Condensed to atoms (all electrons):
 Mulliken charges:
               1
     1  N   -0.714020
     2  C   -0.097729
     3  C    0.583488
     4  O   -0.487824
     5  C   -0.265619
     6  C   -0.403468
     7  C    0.636075
     8  O   -0.501894
     9  O   -0.574458
    10  H    0.447474
    11  H    0.137991
    12  H    0.167553
    13  H    0.182829
    14  H    0.239530
    15  H    0.189450
    16  H    0.314339
    17  H    0.330803
    18  N   -0.593560
    19  C   -0.079761
    20  C    0.629358
    21  O   -0.487920
    22  C   -0.275392
    23  C   -0.102915
    24  C   -0.471345
    25  C   -0.446113
    26  H    0.350875
    27  H    0.158759
    28  H    0.172369
    29  H    0.159397
    30  H    0.130877
    31  H    0.121294
    32  H    0.158887
    33  H    0.159410
    34  H    0.164527
    35  H    0.156121
    36  H    0.154616
    37  N   -0.713273
    38  C   -0.079941
    39  C    0.641066
    40  O   -0.501808
    41  C   -0.270358
    42  C   -0.315446
    43  C   -0.145150
    44  N   -0.652012
    45  C    0.776922
    46  N   -0.747853
    47  N   -0.770009
    48  O   -0.587228
    49  H    0.458796
    50  H    0.388756
    51  H    0.239446
    52  H    0.180509
    53  H    0.188469
    54  H    0.186215
    55  H    0.145021
    56  H    0.185300
    57  H    0.206389
    58  H    0.392613
    59  H    0.419261
    60  H    0.367892
    61  H    0.374279
    62  H    0.388140
 Sum of Mulliken charges =   1.00000
 Mulliken charges with hydrogens summed into heavy atoms:
               1
     1  N   -0.068879
     2  C    0.040262
     3  C    0.583488
     4  O   -0.487824
     5  C    0.084763
     6  C    0.025512
     7  C    0.636075
     8  O   -0.501894
     9  O   -0.126985
    18  N   -0.242685
    19  C    0.078998
    20  C    0.629358
    21  O   -0.487920
    22  C    0.056374
    23  C    0.027962
    24  C   -0.031755
    25  C    0.029152
    37  N   -0.324517
    38  C    0.159505
    39  C    0.641066
    40  O   -0.501808
    41  C    0.098620
    42  C    0.015790
    43  C    0.246540
    44  N   -0.259399
    45  C    0.776922
    46  N    0.039300
    47  N   -0.007589
    48  O   -0.128432
 Electronic spatial extent (au):  <R**2>=         504647.5143
 Charge=              1.0000 electrons
 Dipole moment (field-independent basis, Debye):
    X=             66.3648    Y=             83.5564    Z=             71.2324  Tot=            128.2966
 Quadrupole moment (field-independent basis, Debye-Ang):
   XX=            750.7841   YY=           1309.7156   ZZ=            905.7651
   XY=           1158.3185   XZ=            978.1025   YZ=           1240.5235
 Traceless Quadrupole moment (field-independent basis, Debye-Ang):
   XX=           -237.9708   YY=            320.9607   ZZ=            -82.9899
   XY=           1158.3185   XZ=            978.1025   YZ=           1240.5235
 Octapole moment (field-independent basis, Debye-Ang**2):
  XXX=           7131.0685  YYY=          17729.8869  ZZZ=           9766.8655  XYY=          18569.3949
  XXY=          13201.1522  XXZ=          11269.1591  XZZ=          12686.8274  YZZ=          15697.4925
  YYZ=          19753.1175  XYZ=          17071.8429
 Hexadecapole moment (field-independent basis, Debye-Ang**3):
 XXXX=          47930.5511 YYYY=         170975.3761 ZZZZ=          74311.5932 XXXY=         126548.0808
 XXXZ=         112552.6907 YYYX=         265320.4986 YYYZ=         278856.6549 ZZZX=         144848.1917
 ZZZY=         166529.1707 XXYY=         211767.1203 XXZZ=         147275.1659 YYZZ=         246948.6771
 XXYZ=         197868.1990 YYXZ=         276824.3236 ZZXY=         220071.7184
 N-N= 3.296716909207D+03 E-N=-9.941489089003D+03  KE= 1.434115189035D+03
 Unable to Open any file for archive entry.
 1\1\GINC-VIM-000\SP\RB3LYP\6-31G(d)\C17H33N6O6(1+)\KENGMITH\24-May-202
 2\0\\# B3LYP/6-31G* empiricaldispersion=gd3 guess=read geom=check nosy
 mm integral(ultrafinegrid)\\Candidate Structure: Conf:367 Charge calc 
 in gas phase\\1,1\N,0,8.4334416155,16.7199205298,15.9494730668\C,0,9.1
 480494926,16.2626620896,14.7613394023\C,0,8.1955517711,15.937672304,13
 .5858641946\O,0,7.0100693592,15.7266960126,13.7952464633\C,0,9.9680340
 743,15.0038576362,15.1286880738\C,0,10.9963002216,15.2748861047,16.231
 6240924\C,0,12.1602684157,16.1242137729,15.7904758398\O,0,12.238397443
 7,16.7379876106,14.7351513722\O,0,13.1996614227,16.2548083715,16.64286
 7313\H,0,13.0589885431,15.750012149,17.464252318\H,0,9.8319693544,17.0
 604994118,14.4588069732\H,0,10.4596865933,14.5773173263,14.248994785\H
 ,0,9.2681796165,14.2436617081,15.4937616254\H,0,10.4912604459,15.81742
 70954,17.0456024559\H,0,11.3846188127,14.3390089831,16.6545286211\H,0,
 8.0652107553,17.6553275748,15.781648699\H,0,7.6006522894,16.1354144879
 ,16.0486587751\N,0,8.7364006689,15.8562445206,12.3282449371\C,0,10.092
 5690773,16.1911908966,11.9208683767\C,0,10.2306672256,17.6835976116,11
 .5812333155\O,0,9.5389747588,18.235522574,10.7457333008\C,0,10.4934616
 063,15.3669003229,10.682122406\C,0,11.9208156846,15.6242789127,10.1604
 466976\C,0,13.0014768702,15.302946094,11.2074446397\C,0,12.1599657121,
 14.8133438684,8.8787144511\H,0,8.0495878781,15.7378992695,11.590719851
 6\H,0,10.7689975971,15.9431998952,12.7384161602\H,0,9.7766744061,15.59
 39273805,9.8831438763\H,0,10.3783812419,14.305147732,10.9354337814\H,0
 ,11.9952240296,16.6897348192,9.8898057019\H,0,12.9102562295,15.9044005
 841,12.1209607711\H,0,12.9442308601,14.2485439705,11.5056001068\H,0,14
 .0025260158,15.4733091344,10.7946474649\H,0,11.4188134266,15.057577426
 5,8.110204988\H,0,13.1540303886,15.0147897261,8.4649964309\H,0,12.0933
 207007,13.7373189993,9.0817558952\N,0,11.2776791967,18.3180977863,12.2
 330747796\C,0,11.5583774148,19.7306568211,12.0092956677\C,0,13.0622897
 289,19.9312806945,11.7953503846\O,0,13.6270823596,20.989399739,12.0033
 349235\C,0,10.9799886922,20.6874073191,13.0667460115\C,0,11.3384222889
 ,20.42495438,14.5396164328\C,0,12.8207850503,20.5385656712,14.92883468
 22\N,0,13.5434222366,19.287876004,14.6212679568\C,0,14.8539466917,19.1
 434461467,14.3908928498\N,0,15.5758504964,20.1361860996,13.8538044898\
 N,0,15.4370661653,17.9788353182,14.7274787997\O,0,13.7479904318,18.862
 0186703,11.3668563577\H,0,13.119631044,18.1145232736,11.2827411399\H,0
 ,11.6227347995,17.8842652739,13.0819543752\H,0,11.075763638,19.9694691
 977,11.0520918845\H,0,9.8900856532,20.6442268726,12.9686823306\H,0,11.
 2874495393,21.7016268771,12.7930712086\H,0,10.7933807806,21.1617393528
 ,15.1399698482\H,0,10.9537256746,19.4461707701,14.8622317978\H,0,12.90
 9468981,20.721320398,16.0065947047\H,0,13.291703473,21.368938897,14.40
 41433903\H,0,13.0650718076,18.4222962448,14.8701644345\H,0,15.10992729
 74,20.7379407788,13.1680142959\H,0,16.5734312094,20.0140223449,13.7456
 120535\H,0,16.2950967827,17.681566983,14.2848160578\H,0,14.9297863516,
 17.2962497695,15.2785373387\\Version=ES64L-G16RevC.01\HF=-1447.5072409
 \RMSD=9.252e-09\Dipole=4.1691099,-0.2615088,3.0006827\Quadrupole=-176.
 9254868,238.6264214,-61.7009346,861.1814074,727.1951992,922.2988242\PG
 =C01 [X(C17H33N6O6)]\\@
 The archive entry for this job was punched.


 CHRISTMAS IS ON TOP OF A STEEP HILL.
 THE CLOSER YOU GET, THE STEEPER THE HILL IS.
          -- LINUS, OF PEANUTS
 Job cpu time:       0 days  0 hours  2 minutes 49.2 seconds.
 Elapsed time:       0 days  0 hours  0 minutes 42.8 seconds.
 File lengths (MBytes):  RWF=    248 Int=      0 D2E=      0 Chk=     32 Scr=     16
 Normal termination of Gaussian 16 at Tue May 24 03:34:21 2022.
