 Entering Gaussian System, Link 0=/opt/software/Gaussian/g16-AVX2-C.01/g16/g16
 Input=charge-conf-586.com
 Output=charge-conf-586.log
 Initial command:
 /opt/software/Gaussian/g16-AVX2-C.01/g16/l1.exe "/mnt/gs18/scratch/users/kengmith/Gau-734.inp" -scrdir="/mnt/gs18/scratch/users/kengmith/"
 Entering Link 1 = /opt/software/Gaussian/g16-AVX2-C.01/g16/l1.exe PID=       745.
  
 Copyright (c) 1988-2019, Gaussian, Inc.  All Rights Reserved.
  
 This is part of the Gaussian(R) 16 program.  It is based on
 the Gaussian(R) 09 system (copyright 2009, Gaussian, Inc.),
 the Gaussian(R) 03 system (copyright 2003, Gaussian, Inc.),
 the Gaussian(R) 98 system (copyright 1998, Gaussian, Inc.),
 the Gaussian(R) 94 system (copyright 1995, Gaussian, Inc.),
 the Gaussian 92(TM) system (copyright 1992, Gaussian, Inc.),
 the Gaussian 90(TM) system (copyright 1990, Gaussian, Inc.),
 the Gaussian 88(TM) system (copyright 1988, Gaussian, Inc.),
 the Gaussian 86(TM) system (copyright 1986, Carnegie Mellon
 University), and the Gaussian 82(TM) system (copyright 1983,
 Carnegie Mellon University). Gaussian is a federally registered
 trademark of Gaussian, Inc.
  
 This software contains proprietary and confidential information,
 including trade secrets, belonging to Gaussian, Inc.
  
 This software is provided under written license and may be
 used, copied, transmitted, or stored only in accord with that
 written license.
  
 The following legend is applicable only to US Government
 contracts under FAR:
  
                    RESTRICTED RIGHTS LEGEND
  
 Use, reproduction and disclosure by the US Government is
 subject to restrictions as set forth in subparagraphs (a)
 and (c) of the Commercial Computer Software - Restricted
 Rights clause in FAR 52.227-19.
  
 Gaussian, Inc.
 340 Quinnipiac St., Bldg. 40, Wallingford CT 06492
  
  
 ---------------------------------------------------------------
 Warning -- This program may not be used in any manner that
 competes with the business of Gaussian, Inc. or will provide
 assistance to any competitor of Gaussian, Inc.  The licensee
 of this program is prohibited from giving any competitor of
 Gaussian, Inc. access to this program.  By using this program,
 the user acknowledges that Gaussian, Inc. is engaged in the
 business of creating and licensing software in the field of
 computational chemistry and represents and warrants to the
 licensee that it is not a competitor of Gaussian, Inc. and that
 it will not use this program in any manner prohibited above.
 ---------------------------------------------------------------
  

 Cite this work as:
 Gaussian 16, Revision C.01,
 M. J. Frisch, G. W. Trucks, H. B. Schlegel, G. E. Scuseria, 
 M. A. Robb, J. R. Cheeseman, G. Scalmani, V. Barone, 
 G. A. Petersson, H. Nakatsuji, X. Li, M. Caricato, A. V. Marenich, 
 J. Bloino, B. G. Janesko, R. Gomperts, B. Mennucci, H. P. Hratchian, 
 J. V. Ortiz, A. F. Izmaylov, J. L. Sonnenberg, D. Williams-Young, 
 F. Ding, F. Lipparini, F. Egidi, J. Goings, B. Peng, A. Petrone, 
 T. Henderson, D. Ranasinghe, V. G. Zakrzewski, J. Gao, N. Rega, 
 G. Zheng, W. Liang, M. Hada, M. Ehara, K. Toyota, R. Fukuda, 
 J. Hasegawa, M. Ishida, T. Nakajima, Y. Honda, O. Kitao, H. Nakai, 
 T. Vreven, K. Throssell, J. A. Montgomery, Jr., J. E. Peralta, 
 F. Ogliaro, M. J. Bearpark, J. J. Heyd, E. N. Brothers, K. N. Kudin, 
 V. N. Staroverov, T. A. Keith, R. Kobayashi, J. Normand, 
 K. Raghavachari, A. P. Rendell, J. C. Burant, S. S. Iyengar, 
 J. Tomasi, M. Cossi, J. M. Millam, M. Klene, C. Adamo, R. Cammi, 
 J. W. Ochterski, R. L. Martin, K. Morokuma, O. Farkas, 
 J. B. Foresman, and D. J. Fox, Gaussian, Inc., Wallingford CT, 2019.
 
 ******************************************
 Gaussian 16:  ES64L-G16RevC.01  3-Jul-2019
                24-May-2022 
 ******************************************
 %mem=8gb
 %nproc=4
 Will use up to    4 processors via shared memory.
 %chk=conf-586.chk
 ----------------------------------------------------------------------
 # B3LYP/6-31G* empiricaldispersion=gd3 guess=read geom=check nosymm in
 tegral(ultrafinegrid)
 ----------------------------------------------------------------------
 1/29=2,38=1,172=1/1;
 2/12=2,15=1,40=1/2;
 3/5=1,6=6,7=1,11=2,14=-4,25=1,30=1,74=-5,75=-5,116=-2,124=31/1,2,3;
 4/5=1/1;
 5/5=2,38=6/2;
 6/7=2,8=2,9=2,10=2,28=1/1;
 99/5=1,9=1/99;
 ------------------------------------------------------
 Candidate Structure: Conf:586 Charge calc in gas phase
 ------------------------------------------------------
 Structure from the checkpoint file:  "conf-586.chk"
 Charge =  1 Multiplicity = 1
 Redundant internal coordinates found in file.  (old form).
 N,0,12.3211235739,18.1853255459,11.1667089324
 C,0,11.0719151909,18.296552867,11.9352070695
 C,0,10.3663582817,16.9313088082,11.8556075659
 O,0,10.5207532998,16.2326690426,10.8591907481
 C,0,10.0892663814,19.3772837649,11.4338727941
 C,0,10.6685520644,20.8131002628,11.4522639556
 C,0,11.2172686217,21.1537450731,12.8150639782
 O,0,12.3182822299,20.8137367517,13.2277451542
 O,0,10.339693995,21.8160362025,13.5775003321
 H,0,10.7463661103,21.9734278324,14.4520576053
 H,0,11.3400090501,18.5291569174,12.9675765967
 H,0,9.185812242,19.3452070647,12.0523519358
 H,0,9.7868884199,19.1365890986,10.4086554118
 H,0,11.4865693368,20.9137677987,10.7320269198
 H,0,9.8859364259,21.5227578875,11.1743075562
 H,0,12.1509365879,17.5144635703,10.4122141353
 H,0,12.5711847014,19.0734524768,10.7381360303
 N,0,9.5007599012,16.599719597,12.8586773817
 C,0,9.6267679359,16.9654446019,14.2816831624
 C,0,10.6498361656,15.9797132119,14.8787203335
 O,0,10.3360108559,14.8441834845,15.2055558761
 C,0,8.273246368,16.8758742309,14.9886575322
 C,0,7.2166712086,17.8683002268,14.4691779363
 C,0,5.8441155613,17.528929454,15.0678839593
 C,0,7.5885893973,19.3274913104,14.7793673933
 H,0,9.0804394216,15.6847138759,12.7096408985
 H,0,10.0008116613,17.9893249093,14.3424634617
 H,0,8.4399077722,17.0415265122,16.0614379115
 H,0,7.9138232742,15.843796191,14.8989330534
 H,0,7.1515614337,17.7520819521,13.3777808012
 H,0,5.8623189257,17.6171113076,16.1615276824
 H,0,5.071967627,18.2085870142,14.6914000105
 H,0,5.5425508257,16.505190019,14.8196245718
 H,0,6.8196901748,20.0118508977,14.4049653877
 H,0,7.6710210962,19.4832083334,15.8629173507
 H,0,8.5396517386,19.6360349339,14.3264788826
 N,0,11.9451908249,16.4163209768,14.8827848483
 C,0,13.0258490108,15.5217714243,15.2771863598
 C,0,14.2405318588,16.3036628405,15.7462202015
 O,0,15.387650092,15.9073883611,15.6756046618
 C,0,13.3699093051,14.4585937739,14.2145059103
 C,0,13.6185313047,14.9437153959,12.7783339603
 C,0,14.79432678,15.9074451782,12.5710892425
 N,0,14.4098432598,17.2991453494,12.894937678
 C,0,15.2413554316,18.253651938,13.3144801783
 N,0,16.4329780602,17.9574842553,13.8729272073
 N,0,14.8975415364,19.5465921233,13.1587755248
 O,0,13.920186025,17.4943515725,16.2999052635
 H,0,14.7445122733,17.8707172505,16.6627428853
 H,0,12.1577295323,17.388302947,14.7160414437
 H,0,12.6797920889,14.9757494528,16.1683154783
 H,0,12.5254392518,13.763941638,14.1953606463
 H,0,14.2403809767,13.9021594114,14.5775656034
 H,0,13.8235195583,14.0546581232,12.1710692243
 H,0,12.7078491615,15.3821090771,12.3536568279
 H,0,15.1136848368,15.8885705,11.5220230599
 H,0,15.6425927817,15.596796106,13.1812833653
 H,0,13.6107919034,17.636937267,12.3022381166
 H,0,16.5528996946,17.0579220899,14.3256980044
 H,0,17.0317261138,18.7031082112,14.1978682257
 H,0,15.3816849684,20.2533721467,13.6945313789
 H,0,13.9542351115,19.8124009314,12.8772008755
 Recover connectivity data from disk.
                           ----------------------------
                           !    Current Parameters    !
                           ! (Angstroms and Degrees)  !
 --------------------------                            --------------------------
 ! Name  Definition              Value                                          !
 --------------------------------------------------------------------------------
 ! R1    R(1,2)                  1.4709                                         !
 ! R2    R(1,16)                 1.0239                                         !
 ! R3    R(1,17)                 1.0173                                         !
 ! R4    R(2,3)                  1.5388                                         !
 ! R5    R(2,5)                  1.5443                                         !
 ! R6    R(2,11)                 1.0917                                         !
 ! R7    R(3,4)                  1.2267                                         !
 ! R8    R(3,18)                 1.3658                                         !
 ! R9    R(5,6)                  1.5484                                         !
 ! R10   R(5,12)                 1.0953                                         !
 ! R11   R(5,13)                 1.0956                                         !
 ! R12   R(6,7)                  1.5081                                         !
 ! R13   R(6,14)                 1.0945                                         !
 ! R14   R(6,15)                 1.0924                                         !
 ! R15   R(7,8)                  1.224                                          !
 ! R16   R(7,9)                  1.3379                                         !
 ! R17   R(9,10)                 0.9772                                         !
 ! R18   R(18,19)                1.4746                                         !
 ! R19   R(18,26)                1.0179                                         !
 ! R20   R(19,20)                1.541                                          !
 ! R21   R(19,22)                1.5297                                         !
 ! R22   R(19,27)                1.0918                                         !
 ! R23   R(20,21)                1.2226                                         !
 ! R24   R(20,37)                1.367                                          !
 ! R25   R(22,23)                1.5398                                         !
 ! R26   R(22,28)                1.0982                                         !
 ! R27   R(22,29)                1.0965                                         !
 ! R28   R(23,24)                1.5354                                         !
 ! R29   R(23,25)                1.5375                                         !
 ! R30   R(23,30)                1.0995                                         !
 ! R31   R(24,31)                1.0973                                         !
 ! R32   R(24,32)                1.0954                                         !
 ! R33   R(24,33)                1.0957                                         !
 ! R34   R(25,34)                1.0953                                         !
 ! R35   R(25,35)                1.0978                                         !
 ! R36   R(25,36)                1.0976                                         !
 ! R37   R(37,38)                1.4573                                         !
 ! R38   R(37,50)                1.0088                                         !
 ! R39   R(38,39)                1.5188                                         !
 ! R40   R(38,41)                1.5421                                         !
 ! R41   R(38,51)                1.1009                                         !
 ! R42   R(39,40)                1.2157                                         !
 ! R43   R(39,48)                1.3516                                         !
 ! R44   R(41,42)                1.5361                                         !
 ! R45   R(41,52)                1.0936                                         !
 ! R46   R(41,53)                1.0951                                         !
 ! R47   R(42,43)                1.5343                                         !
 ! R48   R(42,54)                1.096                                          !
 ! R49   R(42,55)                1.0963                                         !
 ! R50   R(43,44)                1.4797                                         !
 ! R51   R(43,56)                1.0968                                         !
 ! R52   R(43,57)                1.0901                                         !
 ! R53   R(44,45)                1.3336                                         !
 ! R54   R(44,58)                1.0507                                         !
 ! R55   R(45,46)                1.3489                                         !
 ! R56   R(45,47)                1.3469                                         !
 ! R57   R(46,59)                1.0142                                         !
 ! R58   R(46,60)                1.01                                           !
 ! R59   R(47,61)                1.0104                                         !
 ! R60   R(47,62)                1.0197                                         !
 ! R61   R(48,49)                0.9761                                         !
 ! A1    A(2,1,16)             107.0615                                         !
 ! A2    A(2,1,17)             111.275                                          !
 ! A3    A(16,1,17)            107.6035                                         !
 ! A4    A(1,2,3)              107.1746                                         !
 ! A5    A(1,2,5)              115.0692                                         !
 ! A6    A(1,2,11)             107.5557                                         !
 ! A7    A(3,2,5)              108.1997                                         !
 ! A8    A(3,2,11)             110.5208                                         !
 ! A9    A(5,2,11)             108.3094                                         !
 ! A10   A(2,3,4)              119.3136                                         !
 ! A11   A(2,3,18)             117.9039                                         !
 ! A12   A(4,3,18)             122.5514                                         !
 ! A13   A(2,5,6)              114.0182                                         !
 ! A14   A(2,5,12)             108.7255                                         !
 ! A15   A(2,5,13)             109.0041                                         !
 ! A16   A(6,5,12)             109.21                                           !
 ! A17   A(6,5,13)             108.5468                                         !
 ! A18   A(12,5,13)            107.1145                                         !
 ! A19   A(5,6,7)              110.874                                          !
 ! A20   A(5,6,14)             110.9207                                         !
 ! A21   A(5,6,15)             109.3508                                         !
 ! A22   A(7,6,14)             107.5735                                         !
 ! A23   A(7,6,15)             110.1121                                         !
 ! A24   A(14,6,15)            107.9531                                         !
 ! A25   A(6,7,8)              124.6961                                         !
 ! A26   A(6,7,9)              112.8373                                         !
 ! A27   A(8,7,9)              122.3703                                         !
 ! A28   A(7,9,10)             108.4665                                         !
 ! A29   A(3,18,19)            126.4658                                         !
 ! A30   A(3,18,26)            111.8646                                         !
 ! A31   A(19,18,26)           113.5477                                         !
 ! A32   A(18,19,20)           105.7802                                         !
 ! A33   A(18,19,22)           110.8462                                         !
 ! A34   A(18,19,27)           108.3963                                         !
 ! A35   A(20,19,22)           111.7726                                         !
 ! A36   A(20,19,27)           110.5403                                         !
 ! A37   A(22,19,27)           109.4109                                         !
 ! A38   A(19,20,21)           121.8207                                         !
 ! A39   A(19,20,37)           115.211                                          !
 ! A40   A(21,20,37)           122.6225                                         !
 ! A41   A(19,22,23)           114.4242                                         !
 ! A42   A(19,22,28)           107.9604                                         !
 ! A43   A(19,22,29)           107.8984                                         !
 ! A44   A(23,22,28)           109.6613                                         !
 ! A45   A(23,22,29)           110.7379                                         !
 ! A46   A(28,22,29)           105.7619                                         !
 ! A47   A(22,23,24)           109.8389                                         !
 ! A48   A(22,23,25)           112.1876                                         !
 ! A49   A(22,23,30)           107.9015                                         !
 ! A50   A(24,23,25)           110.3253                                         !
 ! A51   A(24,23,30)           108.1048                                         !
 ! A52   A(25,23,30)           108.3556                                         !
 ! A53   A(23,24,31)           110.8562                                         !
 ! A54   A(23,24,32)           111.0372                                         !
 ! A55   A(23,24,33)           111.3574                                         !
 ! A56   A(31,24,32)           107.7203                                         !
 ! A57   A(31,24,33)           107.7854                                         !
 ! A58   A(32,24,33)           107.9285                                         !
 ! A59   A(23,25,34)           110.7455                                         !
 ! A60   A(23,25,35)           110.6054                                         !
 ! A61   A(23,25,36)           113.1501                                         !
 ! A62   A(34,25,35)           107.5461                                         !
 ! A63   A(34,25,36)           106.9523                                         !
 ! A64   A(35,25,36)           107.5968                                         !
 ! A65   A(20,37,38)           120.4949                                         !
 ! A66   A(20,37,50)           120.4567                                         !
 ! A67   A(38,37,50)           118.6816                                         !
 ! A68   A(37,38,39)           111.1395                                         !
 ! A69   A(37,38,41)           113.7138                                         !
 ! A70   A(37,38,51)           106.8836                                         !
 ! A71   A(39,38,41)           112.9111                                         !
 ! A72   A(39,38,51)           104.8774                                         !
 ! A73   A(41,38,51)           106.6183                                         !
 ! A74   A(38,39,40)           124.6735                                         !
 ! A75   A(38,39,48)           112.983                                          !
 ! A76   A(40,39,48)           122.3157                                         !
 ! A77   A(38,41,42)           117.5585                                         !
 ! A78   A(38,41,52)           106.123                                          !
 ! A79   A(38,41,53)           107.4102                                         !
 ! A80   A(42,41,52)           108.0109                                         !
 ! A81   A(42,41,53)           109.9855                                         !
 ! A82   A(52,41,53)           107.2687                                         !
 ! A83   A(41,42,43)           116.658                                          !
 ! A84   A(41,42,54)           106.9843                                         !
 ! A85   A(41,42,55)           110.7323                                         !
 ! A86   A(43,42,54)           106.9384                                         !
 ! A87   A(43,42,55)           109.4556                                         !
 ! A88   A(54,42,55)           105.3736                                         !
 ! A89   A(42,43,44)           111.2272                                         !
 ! A90   A(42,43,56)           109.9698                                         !
 ! A91   A(42,43,57)           109.9806                                         !
 ! A92   A(44,43,56)           107.529                                          !
 ! A93   A(44,43,57)           110.3465                                         !
 ! A94   A(56,43,57)           107.6931                                         !
 ! A95   A(43,44,45)           125.4509                                         !
 ! A96   A(43,44,58)           112.1191                                         !
 ! A97   A(45,44,58)           114.9324                                         !
 ! A98   A(44,45,46)           121.5941                                         !
 ! A99   A(44,45,47)           119.4413                                         !
 ! A100  A(46,45,47)           118.9551                                         !
 ! A101  A(45,46,59)           118.9485                                         !
 ! A102  A(45,46,60)           119.6576                                         !
 ! A103  A(59,46,60)           116.1732                                         !
 ! A104  A(45,47,61)           119.1999                                         !
 ! A105  A(45,47,62)           121.218                                          !
 ! A106  A(61,47,62)           114.0373                                         !
 ! A107  A(39,48,49)           106.9645                                         !
 ! D1    D(16,1,2,3)            31.076                                          !
 ! D2    D(16,1,2,5)           -89.2873                                         !
 ! D3    D(16,1,2,11)          149.932                                          !
 ! D4    D(17,1,2,3)           148.3979                                         !
 ! D5    D(17,1,2,5)            28.0346                                         !
 ! D6    D(17,1,2,11)          -92.746                                          !
 ! D7    D(1,2,3,4)            -30.347                                          !
 ! D8    D(1,2,3,18)           155.0341                                         !
 ! D9    D(5,2,3,4)             94.2957                                         !
 ! D10   D(5,2,3,18)           -80.3231                                         !
 ! D11   D(11,2,3,4)          -147.2695                                         !
 ! D12   D(11,2,3,18)           38.1116                                         !
 ! D13   D(1,2,5,6)            -59.9847                                         !
 ! D14   D(1,2,5,12)           177.9148                                         !
 ! D15   D(1,2,5,13)            61.4666                                         !
 ! D16   D(3,2,5,6)           -179.7837                                         !
 ! D17   D(3,2,5,12)            58.1159                                         !
 ! D18   D(3,2,5,13)           -58.3323                                         !
 ! D19   D(11,2,5,6)            60.3831                                         !
 ! D20   D(11,2,5,12)          -61.7174                                         !
 ! D21   D(11,2,5,13)         -178.1656                                         !
 ! D22   D(2,3,18,19)          -34.2779                                         !
 ! D23   D(2,3,18,26)          179.4339                                         !
 ! D24   D(4,3,18,19)          151.2893                                         !
 ! D25   D(4,3,18,26)            5.001                                          !
 ! D26   D(2,5,6,7)            -53.1511                                         !
 ! D27   D(2,5,6,14)            66.3027                                         !
 ! D28   D(2,5,6,15)          -174.75                                           !
 ! D29   D(12,5,6,7)            68.6825                                         !
 ! D30   D(12,5,6,14)         -171.8637                                         !
 ! D31   D(12,5,6,15)          -52.9164                                         !
 ! D32   D(13,5,6,7)          -174.8553                                         !
 ! D33   D(13,5,6,14)          -55.4015                                         !
 ! D34   D(13,5,6,15)           63.5457                                         !
 ! D35   D(5,6,7,8)             81.0227                                         !
 ! D36   D(5,6,7,9)            -95.4714                                         !
 ! D37   D(14,6,7,8)           -40.4196                                         !
 ! D38   D(14,6,7,9)           143.0862                                         !
 ! D39   D(15,6,7,8)          -157.8261                                         !
 ! D40   D(15,6,7,9)            25.6797                                         !
 ! D41   D(6,7,9,10)           177.8803                                         !
 ! D42   D(8,7,9,10)             1.293                                          !
 ! D43   D(3,18,19,20)         -79.3859                                         !
 ! D44   D(3,18,19,22)         159.2779                                         !
 ! D45   D(3,18,19,27)          39.1841                                         !
 ! D46   D(26,18,19,20)         66.4282                                         !
 ! D47   D(26,18,19,22)        -54.908                                          !
 ! D48   D(26,18,19,27)       -175.0018                                         !
 ! D49   D(18,19,20,21)        -80.3049                                         !
 ! D50   D(18,19,20,37)         93.109                                          !
 ! D51   D(22,19,20,21)         40.4308                                         !
 ! D52   D(22,19,20,37)       -146.1553                                         !
 ! D53   D(27,19,20,21)        162.5595                                         !
 ! D54   D(27,19,20,37)        -24.0266                                         !
 ! D55   D(18,19,22,23)        -64.1148                                         !
 ! D56   D(18,19,22,28)        173.496                                          !
 ! D57   D(18,19,22,29)         59.6194                                         !
 ! D58   D(20,19,22,23)        178.1464                                         !
 ! D59   D(20,19,22,28)         55.7572                                         !
 ! D60   D(20,19,22,29)        -58.1194                                         !
 ! D61   D(27,19,22,23)         55.372                                          !
 ! D62   D(27,19,22,28)        -67.0172                                         !
 ! D63   D(27,19,22,29)        179.1062                                         !
 ! D64   D(19,20,37,38)       -172.9348                                         !
 ! D65   D(19,20,37,50)         14.1091                                         !
 ! D66   D(21,20,37,38)          0.4205                                         !
 ! D67   D(21,20,37,50)       -172.5356                                         !
 ! D68   D(19,22,23,24)        170.1407                                         !
 ! D69   D(19,22,23,25)        -66.7704                                         !
 ! D70   D(19,22,23,30)         52.5137                                         !
 ! D71   D(28,22,23,24)        -68.4001                                         !
 ! D72   D(28,22,23,25)         54.6888                                         !
 ! D73   D(28,22,23,30)        173.9729                                         !
 ! D74   D(29,22,23,24)         47.9415                                         !
 ! D75   D(29,22,23,25)        171.0304                                         !
 ! D76   D(29,22,23,30)        -69.6855                                         !
 ! D77   D(22,23,24,31)         61.7069                                         !
 ! D78   D(22,23,24,32)       -178.5901                                         !
 ! D79   D(22,23,24,33)        -58.2899                                         !
 ! D80   D(25,23,24,31)        -62.471                                          !
 ! D81   D(25,23,24,32)         57.232                                          !
 ! D82   D(25,23,24,33)        177.5322                                         !
 ! D83   D(30,23,24,31)        179.2073                                         !
 ! D84   D(30,23,24,32)        -61.0897                                         !
 ! D85   D(30,23,24,33)         59.2105                                         !
 ! D86   D(22,23,25,34)       -179.6927                                         !
 ! D87   D(22,23,25,35)        -60.5608                                         !
 ! D88   D(22,23,25,36)         60.2379                                         !
 ! D89   D(24,23,25,34)        -56.8781                                         !
 ! D90   D(24,23,25,35)         62.2538                                         !
 ! D91   D(24,23,25,36)       -176.9476                                         !
 ! D92   D(30,23,25,34)         61.2898                                         !
 ! D93   D(30,23,25,35)       -179.5783                                         !
 ! D94   D(30,23,25,36)        -58.7797                                         !
 ! D95   D(20,37,38,39)       -157.0728                                         !
 ! D96   D(20,37,38,41)         74.1918                                         !
 ! D97   D(20,37,38,51)        -43.1797                                         !
 ! D98   D(50,37,38,39)         16.0067                                         !
 ! D99   D(50,37,38,41)       -112.7287                                         !
 ! D100  D(50,37,38,51)        129.8997                                         !
 ! D101  D(37,38,39,40)       -152.2677                                         !
 ! D102  D(37,38,39,48)         29.6192                                         !
 ! D103  D(41,38,39,40)        -23.1043                                         !
 ! D104  D(41,38,39,48)        158.7825                                         !
 ! D105  D(51,38,39,40)         92.5879                                         !
 ! D106  D(51,38,39,48)        -85.5253                                         !
 ! D107  D(37,38,41,42)         50.8067                                         !
 ! D108  D(37,38,41,52)        -70.1176                                         !
 ! D109  D(37,38,41,53)        175.3952                                         !
 ! D110  D(39,38,41,42)        -77.0205                                         !
 ! D111  D(39,38,41,52)        162.0552                                         !
 ! D112  D(39,38,41,53)         47.568                                          !
 ! D113  D(51,38,41,42)        168.332                                          !
 ! D114  D(51,38,41,52)         47.4077                                         !
 ! D115  D(51,38,41,53)        -67.0795                                         !
 ! D116  D(38,39,48,49)        173.4106                                         !
 ! D117  D(40,39,48,49)         -4.7533                                         !
 ! D118  D(38,41,42,43)         61.6226                                         !
 ! D119  D(38,41,42,54)       -178.7605                                         !
 ! D120  D(38,41,42,55)        -64.4297                                         !
 ! D121  D(52,41,42,43)       -178.4398                                         !
 ! D122  D(52,41,42,54)        -58.8229                                         !
 ! D123  D(52,41,42,55)         55.5079                                         !
 ! D124  D(53,41,42,43)        -61.6707                                         !
 ! D125  D(53,41,42,54)         57.9462                                         !
 ! D126  D(53,41,42,55)        172.2771                                         !
 ! D127  D(41,42,43,44)        -82.2669                                         !
 ! D128  D(41,42,43,56)        158.7256                                         !
 ! D129  D(41,42,43,57)         40.2888                                         !
 ! D130  D(54,42,43,44)        158.0915                                         !
 ! D131  D(54,42,43,56)         39.0841                                         !
 ! D132  D(54,42,43,57)        -79.3527                                         !
 ! D133  D(55,42,43,44)         44.4195                                         !
 ! D134  D(55,42,43,56)        -74.5879                                         !
 ! D135  D(55,42,43,57)        166.9753                                         !
 ! D136  D(42,43,44,45)        152.7162                                         !
 ! D137  D(42,43,44,58)        -59.2907                                         !
 ! D138  D(56,43,44,45)        -86.8255                                         !
 ! D139  D(56,43,44,58)         61.1675                                         !
 ! D140  D(57,43,44,45)         30.3719                                         !
 ! D141  D(57,43,44,58)        178.3649                                         !
 ! D142  D(43,44,45,46)        -20.6483                                         !
 ! D143  D(43,44,45,47)        158.2212                                         !
 ! D144  D(58,44,45,46)       -167.864                                          !
 ! D145  D(58,44,45,47)         11.0055                                         !
 ! D146  D(44,45,46,59)        -25.2313                                         !
 ! D147  D(44,45,46,60)       -178.7418                                         !
 ! D148  D(47,45,46,59)        155.8939                                         !
 ! D149  D(47,45,46,60)          2.3834                                         !
 ! D150  D(44,45,47,61)        162.8524                                         !
 ! D151  D(44,45,47,62)         10.6814                                         !
 ! D152  D(46,45,47,61)        -18.2482                                         !
 ! D153  D(46,45,47,62)       -170.4192                                         !
 --------------------------------------------------------------------------------
 Symmetry turned off by external request.
 Stoichiometry    C17H33N6O6(1+)
 Framework group  C1[X(C17H33N6O6)]
 Deg. of freedom   180
 Full point group                 C1      NOp   1
                          Input orientation:                          
 ---------------------------------------------------------------------
 Center     Atomic      Atomic             Coordinates (Angstroms)
 Number     Number       Type             X           Y           Z
 ---------------------------------------------------------------------
      1          7           0       12.321124   18.185326   11.166709
      2          6           0       11.071915   18.296553   11.935207
      3          6           0       10.366358   16.931309   11.855608
      4          8           0       10.520753   16.232669   10.859191
      5          6           0       10.089266   19.377284   11.433873
      6          6           0       10.668552   20.813100   11.452264
      7          6           0       11.217269   21.153745   12.815064
      8          8           0       12.318282   20.813737   13.227745
      9          8           0       10.339694   21.816036   13.577500
     10          1           0       10.746366   21.973428   14.452058
     11          1           0       11.340009   18.529157   12.967577
     12          1           0        9.185812   19.345207   12.052352
     13          1           0        9.786888   19.136589   10.408655
     14          1           0       11.486569   20.913768   10.732027
     15          1           0        9.885936   21.522758   11.174308
     16          1           0       12.150937   17.514464   10.412214
     17          1           0       12.571185   19.073452   10.738136
     18          7           0        9.500760   16.599720   12.858677
     19          6           0        9.626768   16.965445   14.281683
     20          6           0       10.649836   15.979713   14.878720
     21          8           0       10.336011   14.844183   15.205556
     22          6           0        8.273246   16.875874   14.988658
     23          6           0        7.216671   17.868300   14.469178
     24          6           0        5.844116   17.528929   15.067884
     25          6           0        7.588589   19.327491   14.779367
     26          1           0        9.080439   15.684714   12.709641
     27          1           0       10.000812   17.989325   14.342463
     28          1           0        8.439908   17.041527   16.061438
     29          1           0        7.913823   15.843796   14.898933
     30          1           0        7.151561   17.752082   13.377781
     31          1           0        5.862319   17.617111   16.161528
     32          1           0        5.071968   18.208587   14.691400
     33          1           0        5.542551   16.505190   14.819625
     34          1           0        6.819690   20.011851   14.404965
     35          1           0        7.671021   19.483208   15.862917
     36          1           0        8.539652   19.636035   14.326479
     37          7           0       11.945191   16.416321   14.882785
     38          6           0       13.025849   15.521771   15.277186
     39          6           0       14.240532   16.303663   15.746220
     40          8           0       15.387650   15.907388   15.675605
     41          6           0       13.369909   14.458594   14.214506
     42          6           0       13.618531   14.943715   12.778334
     43          6           0       14.794327   15.907445   12.571089
     44          7           0       14.409843   17.299145   12.894938
     45          6           0       15.241355   18.253652   13.314480
     46          7           0       16.432978   17.957484   13.872927
     47          7           0       14.897542   19.546592   13.158776
     48          8           0       13.920186   17.494352   16.299905
     49          1           0       14.744512   17.870717   16.662743
     50          1           0       12.157730   17.388303   14.716041
     51          1           0       12.679792   14.975749   16.168315
     52          1           0       12.525439   13.763942   14.195361
     53          1           0       14.240381   13.902159   14.577566
     54          1           0       13.823520   14.054658   12.171069
     55          1           0       12.707849   15.382109   12.353657
     56          1           0       15.113685   15.888570   11.522023
     57          1           0       15.642593   15.596796   13.181283
     58          1           0       13.610792   17.636937   12.302238
     59          1           0       16.552900   17.057922   14.325698
     60          1           0       17.031726   18.703108   14.197868
     61          1           0       15.381685   20.253372   13.694531
     62          1           0       13.954235   19.812401   12.877201
 ---------------------------------------------------------------------
 Rotational constants (GHZ):           0.2022328           0.1318294           0.1061979
 Standard basis: 6-31G(d) (6D, 7F)
   501 basis functions,   944 primitive gaussians,   501 cartesian basis functions
   112 alpha electrons      112 beta electrons
       nuclear repulsion energy      3281.1226808641 Hartrees.
 NAtoms=   62 NActive=   62 NUniq=   62 SFac= 1.00D+00 NAtFMM=   60 NAOKFM=T Big=T
 Integral buffers will be    131072 words long.
 Raffenetti 2 integral format.
 Two-electron integral symmetry is turned off.
 Nuclear repulsion after empirical dispersion term =     3281.0328612486 Hartrees.
 One-electron integrals computed using PRISM.
 NBasis=   501 RedAO= T EigKep=  1.99D-03  NBF=   501
 NBsUse=   501 1.00D-06 EigRej= -1.00D+00 NBFU=   501
 Initial guess from the checkpoint file:  "conf-586.chk"
 B after Tr=     0.000000    0.000000    0.000000
         Rot=    1.000000    0.000000    0.000000    0.000000 Ang=   0.00 deg.
 Requested convergence on RMS density matrix=1.00D-08 within 128 cycles.
 Requested convergence on MAX density matrix=1.00D-06.
 Requested convergence on             energy=1.00D-06.
 No special actions if energy rises.
 SCF Done:  E(RB3LYP) =  -1447.51341927     A.U. after    2 cycles
            NFock=  2  Conv=0.75D-08     -V/T= 2.0093

 **********************************************************************

            Population analysis using the SCF Density.

 **********************************************************************

 Alpha  occ. eigenvalues --  -19.32897 -19.32887 -19.27817 -19.27085 -19.23195
 Alpha  occ. eigenvalues --  -19.22212 -14.50921 -14.50511 -14.49515 -14.47576
 Alpha  occ. eigenvalues --  -14.47110 -14.45769 -10.47147 -10.45726 -10.45260
 Alpha  occ. eigenvalues --  -10.40236 -10.39336 -10.35436 -10.35113 -10.34515
 Alpha  occ. eigenvalues --  -10.34478 -10.32654 -10.32069 -10.29582 -10.29043
 Alpha  occ. eigenvalues --  -10.27815 -10.27661 -10.26272 -10.24860  -1.24009
 Alpha  occ. eigenvalues --   -1.23811  -1.15520  -1.15257  -1.14835  -1.14607
 Alpha  occ. eigenvalues --   -1.14303  -1.04665  -1.04048  -1.03791  -1.03422
 Alpha  occ. eigenvalues --   -1.02286  -0.92014  -0.91207  -0.90110  -0.87339
 Alpha  occ. eigenvalues --   -0.84943  -0.83555  -0.81152  -0.77521  -0.77225
 Alpha  occ. eigenvalues --   -0.76715  -0.75069  -0.74353  -0.72752  -0.72163
 Alpha  occ. eigenvalues --   -0.70475  -0.69789  -0.68555  -0.67986  -0.66051
 Alpha  occ. eigenvalues --   -0.65351  -0.64929  -0.64650  -0.63750  -0.61877
 Alpha  occ. eigenvalues --   -0.61623  -0.61225  -0.61031  -0.59920  -0.59655
 Alpha  occ. eigenvalues --   -0.58774  -0.58251  -0.57619  -0.57179  -0.56673
 Alpha  occ. eigenvalues --   -0.56022  -0.55506  -0.54752  -0.54207  -0.54031
 Alpha  occ. eigenvalues --   -0.53157  -0.52818  -0.52394  -0.51740  -0.51544
 Alpha  occ. eigenvalues --   -0.50951  -0.50272  -0.49681  -0.49251  -0.48713
 Alpha  occ. eigenvalues --   -0.48207  -0.47726  -0.47063  -0.46279  -0.46036
 Alpha  occ. eigenvalues --   -0.45615  -0.45164  -0.44993  -0.44824  -0.44706
 Alpha  occ. eigenvalues --   -0.42206  -0.41462  -0.41406  -0.41238  -0.41075
 Alpha  occ. eigenvalues --   -0.40557  -0.39809  -0.38579  -0.38496  -0.36715
 Alpha  occ. eigenvalues --   -0.36579  -0.34488
 Alpha virt. eigenvalues --   -0.12996  -0.12560  -0.11842  -0.10744  -0.07893
 Alpha virt. eigenvalues --   -0.07549  -0.06000  -0.04899  -0.03773  -0.03640
 Alpha virt. eigenvalues --   -0.02385  -0.01750  -0.00343   0.00127   0.00719
 Alpha virt. eigenvalues --    0.01423   0.02181   0.03058   0.03233   0.03531
 Alpha virt. eigenvalues --    0.03658   0.04365   0.05017   0.05165   0.05828
 Alpha virt. eigenvalues --    0.06489   0.06685   0.06944   0.07113   0.07467
 Alpha virt. eigenvalues --    0.08198   0.08874   0.09248   0.09477   0.09705
 Alpha virt. eigenvalues --    0.10207   0.10447   0.10615   0.10872   0.11385
 Alpha virt. eigenvalues --    0.11455   0.11661   0.12137   0.12300   0.12915
 Alpha virt. eigenvalues --    0.13140   0.13747   0.14209   0.14988   0.15352
 Alpha virt. eigenvalues --    0.16284   0.17148   0.17389   0.18520   0.18994
 Alpha virt. eigenvalues --    0.19533   0.20403   0.21149   0.24077   0.25132
 Alpha virt. eigenvalues --    0.25784   0.27136   0.27837   0.27937   0.30205
 Alpha virt. eigenvalues --    0.32101   0.35240   0.36589   0.37835   0.38805
 Alpha virt. eigenvalues --    0.39283   0.40367   0.40814   0.41851   0.42671
 Alpha virt. eigenvalues --    0.43042   0.43375   0.43847   0.43938   0.44214
 Alpha virt. eigenvalues --    0.44530   0.45891   0.46523   0.47083   0.47590
 Alpha virt. eigenvalues --    0.48750   0.49542   0.49740   0.50098   0.50562
 Alpha virt. eigenvalues --    0.51002   0.51925   0.52266   0.53144   0.53521
 Alpha virt. eigenvalues --    0.54430   0.55007   0.55511   0.56409   0.56665
 Alpha virt. eigenvalues --    0.57213   0.58014   0.58334   0.58588   0.59303
 Alpha virt. eigenvalues --    0.60294   0.61560   0.61689   0.62260   0.63055
 Alpha virt. eigenvalues --    0.63589   0.64475   0.64572   0.65198   0.65973
 Alpha virt. eigenvalues --    0.67476   0.67636   0.68695   0.69736   0.70574
 Alpha virt. eigenvalues --    0.70604   0.71245   0.71762   0.72358   0.72910
 Alpha virt. eigenvalues --    0.73839   0.74118   0.74323   0.74650   0.75379
 Alpha virt. eigenvalues --    0.75994   0.76167   0.76821   0.78012   0.78252
 Alpha virt. eigenvalues --    0.78363   0.78818   0.79366   0.79767   0.79898
 Alpha virt. eigenvalues --    0.80417   0.80523   0.81030   0.82350   0.82467
 Alpha virt. eigenvalues --    0.82824   0.83353   0.83468   0.83650   0.83915
 Alpha virt. eigenvalues --    0.84678   0.85166   0.85546   0.86556   0.86902
 Alpha virt. eigenvalues --    0.87342   0.88254   0.88790   0.89587   0.89848
 Alpha virt. eigenvalues --    0.90234   0.90969   0.91455   0.91790   0.92832
 Alpha virt. eigenvalues --    0.93187   0.95046   0.95531   0.96099   0.96321
 Alpha virt. eigenvalues --    0.97938   0.98510   0.99195   1.00459   1.01683
 Alpha virt. eigenvalues --    1.02029   1.02965   1.03998   1.04471   1.05512
 Alpha virt. eigenvalues --    1.05737   1.06494   1.07245   1.09131   1.10166
 Alpha virt. eigenvalues --    1.10967   1.12940   1.14189   1.15058   1.16727
 Alpha virt. eigenvalues --    1.17102   1.18043   1.19774   1.19971   1.21457
 Alpha virt. eigenvalues --    1.23041   1.26157   1.26478   1.27371   1.27731
 Alpha virt. eigenvalues --    1.28751   1.30332   1.31181   1.32069   1.32892
 Alpha virt. eigenvalues --    1.33876   1.34254   1.34910   1.37424   1.38473
 Alpha virt. eigenvalues --    1.39567   1.41228   1.42235   1.43151   1.44117
 Alpha virt. eigenvalues --    1.45471   1.46596   1.48971   1.51431   1.52451
 Alpha virt. eigenvalues --    1.53222   1.53855   1.54539   1.55208   1.56275
 Alpha virt. eigenvalues --    1.57468   1.58880   1.59198   1.59984   1.60979
 Alpha virt. eigenvalues --    1.61599   1.62996   1.63200   1.63787   1.64728
 Alpha virt. eigenvalues --    1.65726   1.66340   1.67207   1.68065   1.68803
 Alpha virt. eigenvalues --    1.69364   1.69648   1.69823   1.70458   1.71186
 Alpha virt. eigenvalues --    1.71749   1.71945   1.72584   1.73341   1.74518
 Alpha virt. eigenvalues --    1.75795   1.76596   1.77320   1.77491   1.78279
 Alpha virt. eigenvalues --    1.80319   1.80739   1.81380   1.82139   1.82924
 Alpha virt. eigenvalues --    1.83724   1.84014   1.85532   1.86254   1.87570
 Alpha virt. eigenvalues --    1.87882   1.88781   1.89970   1.90555   1.90998
 Alpha virt. eigenvalues --    1.91724   1.92210   1.93146   1.93351   1.94319
 Alpha virt. eigenvalues --    1.95266   1.96639   1.97956   1.98168   1.98854
 Alpha virt. eigenvalues --    1.99541   2.01197   2.01740   2.02308   2.03208
 Alpha virt. eigenvalues --    2.04166   2.05156   2.06133   2.08680   2.08833
 Alpha virt. eigenvalues --    2.10237   2.12039   2.12965   2.13834   2.15279
 Alpha virt. eigenvalues --    2.16160   2.16936   2.18054   2.18726   2.18857
 Alpha virt. eigenvalues --    2.19335   2.21202   2.21580   2.22603   2.24283
 Alpha virt. eigenvalues --    2.25737   2.25943   2.27305   2.28027   2.28879
 Alpha virt. eigenvalues --    2.29884   2.31098   2.32759   2.34385   2.35680
 Alpha virt. eigenvalues --    2.36306   2.36874   2.36952   2.38577   2.41191
 Alpha virt. eigenvalues --    2.42374   2.43783   2.44651   2.45865   2.47102
 Alpha virt. eigenvalues --    2.47730   2.49674   2.51692   2.52363   2.52728
 Alpha virt. eigenvalues --    2.53184   2.53860   2.55644   2.56997   2.58447
 Alpha virt. eigenvalues --    2.59634   2.60352   2.61079   2.61534   2.62643
 Alpha virt. eigenvalues --    2.65181   2.66265   2.66432   2.69053   2.70312
 Alpha virt. eigenvalues --    2.72213   2.75057   2.78512   2.82100   2.86307
 Alpha virt. eigenvalues --    2.87277   2.89060   2.89847   2.90540   2.92489
 Alpha virt. eigenvalues --    2.93794   2.96621   3.00174   3.01560   3.07180
 Alpha virt. eigenvalues --    3.68175   3.73162   3.77372   3.79566   3.83832
 Alpha virt. eigenvalues --    3.88203   3.95215   4.00008   4.01341   4.03118
 Alpha virt. eigenvalues --    4.08508   4.09670   4.12039   4.14919   4.17281
 Alpha virt. eigenvalues --    4.17917   4.21426   4.23190   4.24351   4.26207
 Alpha virt. eigenvalues --    4.31705   4.36580   4.39050   4.42556   4.49210
 Alpha virt. eigenvalues --    4.50664   4.53851   4.57185   4.62397
          Condensed to atoms (all electrons):
 Mulliken charges:
               1
     1  N   -0.801592
     2  C   -0.051139
     3  C    0.609637
     4  O   -0.505842
     5  C   -0.305724
     6  C   -0.354218
     7  C    0.588408
     8  O   -0.498553
     9  O   -0.524527
    10  H    0.427560
    11  H    0.130037
    12  H    0.194806
    13  H    0.192925
    14  H    0.178189
    15  H    0.209708
    16  H    0.360632
    17  H    0.327575
    18  N   -0.576514
    19  C   -0.097596
    20  C    0.645666
    21  O   -0.503446
    22  C   -0.267160
    23  C   -0.081400
    24  C   -0.446829
    25  C   -0.459817
    26  H    0.355803
    27  H    0.144550
    28  H    0.154522
    29  H    0.172509
    30  H    0.138409
    31  H    0.151289
    32  H    0.156601
    33  H    0.155242
    34  H    0.164164
    35  H    0.150207
    36  H    0.117763
    37  N   -0.639859
    38  C   -0.017713
    39  C    0.594550
    40  O   -0.491629
    41  C   -0.285188
    42  C   -0.299472
    43  C   -0.165060
    44  N   -0.653846
    45  C    0.755532
    46  N   -0.756687
    47  N   -0.782096
    48  O   -0.564571
    49  H    0.420142
    50  H    0.344140
    51  H    0.227332
    52  H    0.195446
    53  H    0.175872
    54  H    0.178901
    55  H    0.170050
    56  H    0.185615
    57  H    0.183662
    58  H    0.438667
    59  H    0.404197
    60  H    0.364892
    61  H    0.358673
    62  H    0.406600
 Sum of Mulliken charges =   1.00000
 Mulliken charges with hydrogens summed into heavy atoms:
               1
     1  N   -0.113385
     2  C    0.078898
     3  C    0.609637
     4  O   -0.505842
     5  C    0.082008
     6  C    0.033679
     7  C    0.588408
     8  O   -0.498553
     9  O   -0.096967
    18  N   -0.220711
    19  C    0.046955
    20  C    0.645666
    21  O   -0.503446
    22  C    0.059872
    23  C    0.057009
    24  C    0.016304
    25  C   -0.027683
    37  N   -0.295719
    38  C    0.209619
    39  C    0.594550
    40  O   -0.491629
    41  C    0.086129
    42  C    0.049480
    43  C    0.204217
    44  N   -0.215178
    45  C    0.755532
    46  N    0.012402
    47  N   -0.016823
    48  O   -0.144429
 Electronic spatial extent (au):  <R**2>=         517385.4901
 Charge=              1.0000 electrons
 Dipole moment (field-independent basis, Debye):
    X=             63.9237    Y=             92.2857    Z=             65.6950  Tot=            130.0720
 Quadrupole moment (field-independent basis, Debye-Ang):
   XX=            725.0545   YY=           1613.1539   ZZ=            741.9655
   XY=           1217.7980   XZ=            879.4407   YZ=           1261.2739
 Traceless Quadrupole moment (field-independent basis, Debye-Ang):
   XX=           -301.6702   YY=            586.4293   ZZ=           -284.7591
   XY=           1217.7980   XZ=            879.4407   YZ=           1261.2739
 Octapole moment (field-independent basis, Debye-Ang**2):
  XXX=           7069.3167  YYY=          25685.5053  ZZZ=           5892.4239  XYY=          21390.4998
  XXY=          13926.9428  XXZ=          10082.0828  XZZ=          10307.1345  YZZ=          14537.5269
  YYZ=          22024.1171  XYZ=          16758.5792
 Hexadecapole moment (field-independent basis, Debye-Ang**3):
 XXXX=          48299.1090 YYYY=         358038.6631 ZZZZ=          -8548.4001 XXXY=         140449.2584
 XXXZ=         100595.0230 YYYX=         347659.9471 YYYZ=         350639.4523 ZZZX=          93352.0481
 ZZZY=         125638.4102 XXYY=         244801.0101 XXZZ=         118024.3403 YYZZ=         253114.6605
 XXYZ=         194072.9076 YYXZ=         294557.1192 ZZXY=         199840.5494
 N-N= 3.281032861249D+03 E-N=-9.910528193923D+03  KE= 1.434120775458D+03
 Unable to Open any file for archive entry.
 1\1\GINC-SKL-133\SP\RB3LYP\6-31G(d)\C17H33N6O6(1+)\KENGMITH\24-May-202
 2\0\\# B3LYP/6-31G* empiricaldispersion=gd3 guess=read geom=check nosy
 mm integral(ultrafinegrid)\\Candidate Structure: Conf:586 Charge calc 
 in gas phase\\1,1\N,0,12.3211235739,18.1853255459,11.1667089324\C,0,11
 .0719151909,18.296552867,11.9352070695\C,0,10.3663582817,16.9313088082
 ,11.8556075659\O,0,10.5207532998,16.2326690426,10.8591907481\C,0,10.08
 92663814,19.3772837649,11.4338727941\C,0,10.6685520644,20.8131002628,1
 1.4522639556\C,0,11.2172686217,21.1537450731,12.8150639782\O,0,12.3182
 822299,20.8137367517,13.2277451542\O,0,10.339693995,21.8160362025,13.5
 775003321\H,0,10.7463661103,21.9734278324,14.4520576053\H,0,11.3400090
 501,18.5291569174,12.9675765967\H,0,9.185812242,19.3452070647,12.05235
 19358\H,0,9.7868884199,19.1365890986,10.4086554118\H,0,11.4865693368,2
 0.9137677987,10.7320269198\H,0,9.8859364259,21.5227578875,11.174307556
 2\H,0,12.1509365879,17.5144635703,10.4122141353\H,0,12.5711847014,19.0
 734524768,10.7381360303\N,0,9.5007599012,16.599719597,12.8586773817\C,
 0,9.6267679359,16.9654446019,14.2816831624\C,0,10.6498361656,15.979713
 2119,14.8787203335\O,0,10.3360108559,14.8441834845,15.2055558761\C,0,8
 .273246368,16.8758742309,14.9886575322\C,0,7.2166712086,17.8683002268,
 14.4691779363\C,0,5.8441155613,17.528929454,15.0678839593\C,0,7.588589
 3973,19.3274913104,14.7793673933\H,0,9.0804394216,15.6847138759,12.709
 6408985\H,0,10.0008116613,17.9893249093,14.3424634617\H,0,8.4399077722
 ,17.0415265122,16.0614379115\H,0,7.9138232742,15.843796191,14.89893305
 34\H,0,7.1515614337,17.7520819521,13.3777808012\H,0,5.8623189257,17.61
 71113076,16.1615276824\H,0,5.071967627,18.2085870142,14.6914000105\H,0
 ,5.5425508257,16.505190019,14.8196245718\H,0,6.8196901748,20.011850897
 7,14.4049653877\H,0,7.6710210962,19.4832083334,15.8629173507\H,0,8.539
 6517386,19.6360349339,14.3264788826\N,0,11.9451908249,16.4163209768,14
 .8827848483\C,0,13.0258490108,15.5217714243,15.2771863598\C,0,14.24053
 18588,16.3036628405,15.7462202015\O,0,15.387650092,15.9073883611,15.67
 56046618\C,0,13.3699093051,14.4585937739,14.2145059103\C,0,13.61853130
 47,14.9437153959,12.7783339603\C,0,14.79432678,15.9074451782,12.571089
 2425\N,0,14.4098432598,17.2991453494,12.894937678\C,0,15.2413554316,18
 .253651938,13.3144801783\N,0,16.4329780602,17.9574842553,13.8729272073
 \N,0,14.8975415364,19.5465921233,13.1587755248\O,0,13.920186025,17.494
 3515725,16.2999052635\H,0,14.7445122733,17.8707172505,16.6627428853\H,
 0,12.1577295323,17.388302947,14.7160414437\H,0,12.6797920889,14.975749
 4528,16.1683154783\H,0,12.5254392518,13.763941638,14.1953606463\H,0,14
 .2403809767,13.9021594114,14.5775656034\H,0,13.8235195583,14.054658123
 2,12.1710692243\H,0,12.7078491615,15.3821090771,12.3536568279\H,0,15.1
 136848368,15.8885705,11.5220230599\H,0,15.6425927817,15.596796106,13.1
 812833653\H,0,13.6107919034,17.636937267,12.3022381166\H,0,16.55289969
 46,17.0579220899,14.3256980044\H,0,17.0317261138,18.7031082112,14.1978
 682257\H,0,15.3816849684,20.2533721467,13.6945313789\H,0,13.9542351115
 ,19.8124009314,12.8772008755\\Version=ES64L-G16RevC.01\HF=-1447.513419
 3\RMSD=7.510e-09\Dipole=3.0610277,3.0151392,0.0679982\Quadrupole=-224.
 2843637,435.9957874,-211.7114237,905.4029643,653.8425798,937.7262233\P
 G=C01 [X(C17H33N6O6)]\\@
 The archive entry for this job was punched.



 IN THIS SHORT LIFE

 THAT ONLY LASTS AN HOUR

 HOW MUCH, HOW LITTLE, IS WITHIN OUR POWER....


 EMILY DICKINSON BOLTS OF MELODY NO. 521
 Job cpu time:       0 days  0 hours  2 minutes  0.9 seconds.
 Elapsed time:       0 days  0 hours  0 minutes 30.8 seconds.
 File lengths (MBytes):  RWF=    248 Int=      0 D2E=      0 Chk=     32 Scr=     16
 Normal termination of Gaussian 16 at Tue May 24 03:34:24 2022.
