 Entering Gaussian System, Link 0=/opt/software/Gaussian/g16-AVX2-C.01/g16/g16
 Input=charge-conf-472.com
 Output=charge-conf-472.log
 Initial command:
 /opt/software/Gaussian/g16-AVX2-C.01/g16/l1.exe "/mnt/gs18/scratch/users/kengmith/Gau-34380.inp" -scrdir="/mnt/gs18/scratch/users/kengmith/"
 Entering Link 1 = /opt/software/Gaussian/g16-AVX2-C.01/g16/l1.exe PID=     34391.
  
 Copyright (c) 1988-2019, Gaussian, Inc.  All Rights Reserved.
  
 This is part of the Gaussian(R) 16 program.  It is based on
 the Gaussian(R) 09 system (copyright 2009, Gaussian, Inc.),
 the Gaussian(R) 03 system (copyright 2003, Gaussian, Inc.),
 the Gaussian(R) 98 system (copyright 1998, Gaussian, Inc.),
 the Gaussian(R) 94 system (copyright 1995, Gaussian, Inc.),
 the Gaussian 92(TM) system (copyright 1992, Gaussian, Inc.),
 the Gaussian 90(TM) system (copyright 1990, Gaussian, Inc.),
 the Gaussian 88(TM) system (copyright 1988, Gaussian, Inc.),
 the Gaussian 86(TM) system (copyright 1986, Carnegie Mellon
 University), and the Gaussian 82(TM) system (copyright 1983,
 Carnegie Mellon University). Gaussian is a federally registered
 trademark of Gaussian, Inc.
  
 This software contains proprietary and confidential information,
 including trade secrets, belonging to Gaussian, Inc.
  
 This software is provided under written license and may be
 used, copied, transmitted, or stored only in accord with that
 written license.
  
 The following legend is applicable only to US Government
 contracts under FAR:
  
                    RESTRICTED RIGHTS LEGEND
  
 Use, reproduction and disclosure by the US Government is
 subject to restrictions as set forth in subparagraphs (a)
 and (c) of the Commercial Computer Software - Restricted
 Rights clause in FAR 52.227-19.
  
 Gaussian, Inc.
 340 Quinnipiac St., Bldg. 40, Wallingford CT 06492
  
  
 ---------------------------------------------------------------
 Warning -- This program may not be used in any manner that
 competes with the business of Gaussian, Inc. or will provide
 assistance to any competitor of Gaussian, Inc.  The licensee
 of this program is prohibited from giving any competitor of
 Gaussian, Inc. access to this program.  By using this program,
 the user acknowledges that Gaussian, Inc. is engaged in the
 business of creating and licensing software in the field of
 computational chemistry and represents and warrants to the
 licensee that it is not a competitor of Gaussian, Inc. and that
 it will not use this program in any manner prohibited above.
 ---------------------------------------------------------------
  

 Cite this work as:
 Gaussian 16, Revision C.01,
 M. J. Frisch, G. W. Trucks, H. B. Schlegel, G. E. Scuseria, 
 M. A. Robb, J. R. Cheeseman, G. Scalmani, V. Barone, 
 G. A. Petersson, H. Nakatsuji, X. Li, M. Caricato, A. V. Marenich, 
 J. Bloino, B. G. Janesko, R. Gomperts, B. Mennucci, H. P. Hratchian, 
 J. V. Ortiz, A. F. Izmaylov, J. L. Sonnenberg, D. Williams-Young, 
 F. Ding, F. Lipparini, F. Egidi, J. Goings, B. Peng, A. Petrone, 
 T. Henderson, D. Ranasinghe, V. G. Zakrzewski, J. Gao, N. Rega, 
 G. Zheng, W. Liang, M. Hada, M. Ehara, K. Toyota, R. Fukuda, 
 J. Hasegawa, M. Ishida, T. Nakajima, Y. Honda, O. Kitao, H. Nakai, 
 T. Vreven, K. Throssell, J. A. Montgomery, Jr., J. E. Peralta, 
 F. Ogliaro, M. J. Bearpark, J. J. Heyd, E. N. Brothers, K. N. Kudin, 
 V. N. Staroverov, T. A. Keith, R. Kobayashi, J. Normand, 
 K. Raghavachari, A. P. Rendell, J. C. Burant, S. S. Iyengar, 
 J. Tomasi, M. Cossi, J. M. Millam, M. Klene, C. Adamo, R. Cammi, 
 J. W. Ochterski, R. L. Martin, K. Morokuma, O. Farkas, 
 J. B. Foresman, and D. J. Fox, Gaussian, Inc., Wallingford CT, 2019.
 
 ******************************************
 Gaussian 16:  ES64L-G16RevC.01  3-Jul-2019
                24-May-2022 
 ******************************************
 %mem=8gb
 %nproc=4
 Will use up to    4 processors via shared memory.
 %chk=conf-472.chk
 ----------------------------------------------------------------------
 # B3LYP/6-31G* empiricaldispersion=gd3 guess=read geom=check nosymm in
 tegral(ultrafinegrid)
 ----------------------------------------------------------------------
 1/29=2,38=1,172=1/1;
 2/12=2,15=1,40=1/2;
 3/5=1,6=6,7=1,11=2,14=-4,25=1,30=1,74=-5,75=-5,116=-2,124=31/1,2,3;
 4/5=1/1;
 5/5=2,38=6/2;
 6/7=2,8=2,9=2,10=2,28=1/1;
 99/5=1,9=1/99;
 ------------------------------------------------------
 Candidate Structure: Conf:472 Charge calc in gas phase
 ------------------------------------------------------
 Structure from the checkpoint file:  "conf-472.chk"
 Charge =  1 Multiplicity = 1
 Redundant internal coordinates found in file.  (old form).
 N,0,10.8922579838,16.4791161424,11.1433707577
 C,0,11.8971601222,16.1692985217,12.1661650597
 C,0,13.1180254353,17.0693183774,11.8961212332
 O,0,13.3766558279,17.4086152467,10.7468376155
 C,0,12.3930954057,14.7035982248,12.2243645571
 C,0,11.2598129046,13.6658868628,12.4329621186
 C,0,10.3129465381,14.1516089335,13.5132832034
 O,0,9.3659971866,14.8749613502,13.2720798994
 O,0,10.6119924922,13.8692839683,14.7939534665
 H,0,11.3608995616,13.25217709,14.8590437872
 H,0,11.4462180059,16.4045360408,13.1351243858
 H,0,13.1205379162,14.621375212,13.0413058109
 H,0,12.9250701505,14.4633269019,11.2976969497
 H,0,10.6734388648,13.5439717397,11.5189895064
 H,0,11.6957910315,12.6896460957,12.6717850261
 H,0,11.3740206099,16.6359913382,10.2562761364
 H,0,10.2350854406,15.7108174684,11.0344031978
 N,0,13.9176956659,17.3956209608,12.9512699496
 C,0,13.6089943356,17.3418052207,14.3850942617
 C,0,13.1025012179,18.7447552917,14.8018282949
 O,0,13.7629620692,19.5266700956,15.4569404184
 C,0,14.8172544626,16.8987204473,15.211551839
 C,0,14.4589662044,16.4897928759,16.6548337615
 C,0,13.6234879165,15.1983657086,16.6969307311
 C,0,15.7406755795,16.325323897,17.4829886102
 H,0,14.7271981121,17.950418638,12.6870996104
 H,0,12.798612134,16.625043828,14.5251412539
 H,0,15.5420423308,17.7199937682,15.230898884
 H,0,15.2892345936,16.0519390861,14.6968367624
 H,0,13.8715319434,17.3038330868,17.1016191745
 H,0,14.1871129737,14.3642248968,16.25660987
 H,0,13.3852902538,14.9255519173,17.7303485942
 H,0,12.6676243529,15.2839629691,16.1622397735
 H,0,15.5076135673,16.0469036977,18.5162251252
 H,0,16.3806719666,15.5397522651,17.0612324466
 H,0,16.3183381241,17.2555849406,17.5063400334
 N,0,11.8293142345,19.0472591208,14.3321997977
 C,0,11.383079752,20.4390887322,14.2296594301
 C,0,9.8967581555,20.5178207371,14.5886919235
 O,0,9.1519367567,21.3742629655,14.1541874343
 C,0,11.6954711658,21.1124091713,12.8796866982
 C,0,11.2880498363,20.3770355166,11.5868970211
 C,0,9.8010443215,20.0389185303,11.3994423635
 N,0,9.4274152863,18.8010869866,12.1237801539
 C,0,8.2163048977,18.5514862399,12.6509686009
 N,0,7.3508935219,19.5436713413,12.932106065
 N,0,7.8500138774,17.2795285765,12.8739863453
 O,0,9.4397378134,19.5608438774,15.4101037631
 H,0,10.1883277142,18.9595926419,15.606385502
 H,0,11.4627581058,18.448912776,13.6018990481
 H,0,11.9242570086,20.9805756333,15.0157541338
 H,0,12.7781627063,21.2756375292,12.8444846441
 H,0,11.2245476338,22.1000257225,12.9012295931
 H,0,11.5711448821,21.0319187123,10.7549068691
 H,0,11.8860840125,19.4691503357,11.4417047137
 H,0,9.5949959249,19.8747069088,10.3352056182
 H,0,9.1795420977,20.8688255553,11.7323146024
 H,0,9.9293593183,17.9596758943,11.7603869819
 H,0,7.7354603589,20.4455818784,13.2161023463
 H,0,6.4925096241,19.2964510203,13.40687866
 H,0,7.0796581661,17.0864089961,13.4989196411
 H,0,8.4891845565,16.5002773045,12.7393370339
 Recover connectivity data from disk.
                           ----------------------------
                           !    Current Parameters    !
                           ! (Angstroms and Degrees)  !
 --------------------------                            --------------------------
 ! Name  Definition              Value                                          !
 --------------------------------------------------------------------------------
 ! R1    R(1,2)                  1.4669                                         !
 ! R2    R(1,16)                 1.0216                                         !
 ! R3    R(1,17)                 1.0169                                         !
 ! R4    R(2,3)                  1.5406                                         !
 ! R5    R(2,5)                  1.5484                                         !
 ! R6    R(2,11)                 1.0943                                         !
 ! R7    R(3,4)                  1.2259                                         !
 ! R8    R(3,18)                 1.3636                                         !
 ! R9    R(5,6)                  1.5507                                         !
 ! R10   R(5,12)                 1.097                                          !
 ! R11   R(5,13)                 1.0952                                         !
 ! R12   R(6,7)                  1.5164                                         !
 ! R13   R(6,14)                 1.0927                                         !
 ! R14   R(6,15)                 1.0955                                         !
 ! R15   R(7,8)                  1.2158                                         !
 ! R16   R(7,9)                  1.3451                                         !
 ! R17   R(9,10)                 0.9726                                         !
 ! R18   R(18,19)                1.4677                                         !
 ! R19   R(18,26)                1.0163                                         !
 ! R20   R(19,20)                1.5487                                         !
 ! R21   R(19,22)                1.5295                                         !
 ! R22   R(19,27)                1.0909                                         !
 ! R23   R(20,21)                1.2152                                         !
 ! R24   R(20,37)                1.3903                                         !
 ! R25   R(22,23)                1.5423                                         !
 ! R26   R(22,28)                1.0955                                         !
 ! R27   R(22,29)                1.0976                                         !
 ! R28   R(23,24)                1.5387                                         !
 ! R29   R(23,25)                1.5348                                         !
 ! R30   R(23,30)                1.0988                                         !
 ! R31   R(24,31)                1.0988                                         !
 ! R32   R(24,32)                1.095                                          !
 ! R33   R(24,33)                1.0986                                         !
 ! R34   R(25,34)                1.0952                                         !
 ! R35   R(25,35)                1.0975                                         !
 ! R36   R(25,36)                1.0953                                         !
 ! R37   R(37,38)                1.4652                                         !
 ! R38   R(37,50)                1.0128                                         !
 ! R39   R(38,39)                1.5311                                         !
 ! R40   R(38,41)                1.5406                                         !
 ! R41   R(38,51)                1.0973                                         !
 ! R42   R(39,40)                1.2153                                         !
 ! R43   R(39,48)                1.3414                                         !
 ! R44   R(41,42)                1.5421                                         !
 ! R45   R(41,52)                1.0955                                         !
 ! R46   R(41,53)                1.0944                                         !
 ! R47   R(42,43)                1.5364                                         !
 ! R48   R(42,54)                1.096                                          !
 ! R49   R(42,55)                1.0968                                         !
 ! R50   R(43,44)                1.4821                                         !
 ! R51   R(43,56)                1.0964                                         !
 ! R52   R(43,57)                1.089                                          !
 ! R53   R(44,45)                1.3443                                         !
 ! R54   R(44,58)                1.045                                          !
 ! R55   R(45,46)                1.3463                                         !
 ! R56   R(45,47)                1.3423                                         !
 ! R57   R(46,59)                1.0208                                         !
 ! R58   R(46,60)                1.0116                                         !
 ! R59   R(47,61)                1.0106                                         !
 ! R60   R(47,62)                1.0168                                         !
 ! R61   R(48,49)                0.98                                           !
 ! A1    A(2,1,16)             108.35                                           !
 ! A2    A(2,1,17)             110.9686                                         !
 ! A3    A(16,1,17)            109.1316                                         !
 ! A4    A(1,2,3)              107.2933                                         !
 ! A5    A(1,2,5)              116.4571                                         !
 ! A6    A(1,2,11)             106.8381                                         !
 ! A7    A(3,2,5)              107.8042                                         !
 ! A8    A(3,2,11)             110.8652                                         !
 ! A9    A(5,2,11)             107.5883                                         !
 ! A10   A(2,3,4)              119.5511                                         !
 ! A11   A(2,3,18)             117.9633                                         !
 ! A12   A(4,3,18)             122.3774                                         !
 ! A13   A(2,5,6)              113.855                                          !
 ! A14   A(2,5,12)             108.1398                                         !
 ! A15   A(2,5,13)             109.3561                                         !
 ! A16   A(6,5,12)             109.5298                                         !
 ! A17   A(6,5,13)             108.7835                                         !
 ! A18   A(12,5,13)            106.9524                                         !
 ! A19   A(5,6,7)              109.7436                                         !
 ! A20   A(5,6,14)             110.7516                                         !
 ! A21   A(5,6,15)             109.5611                                         !
 ! A22   A(7,6,14)             107.25                                           !
 ! A23   A(7,6,15)             112.248                                          !
 ! A24   A(14,6,15)            107.2458                                         !
 ! A25   A(6,7,8)              122.3825                                         !
 ! A26   A(6,7,9)              118.1799                                         !
 ! A27   A(8,7,9)              119.1395                                         !
 ! A28   A(7,9,10)             111.598                                          !
 ! A29   A(3,18,19)            128.5979                                         !
 ! A30   A(3,18,26)            113.3668                                         !
 ! A31   A(19,18,26)           116.1989                                         !
 ! A32   A(18,19,20)           107.3648                                         !
 ! A33   A(18,19,22)           111.8612                                         !
 ! A34   A(18,19,27)           107.8036                                         !
 ! A35   A(20,19,22)           112.0487                                         !
 ! A36   A(20,19,27)           108.5244                                         !
 ! A37   A(22,19,27)           109.0949                                         !
 ! A38   A(19,20,21)           123.3804                                         !
 ! A39   A(19,20,37)           113.9345                                         !
 ! A40   A(21,20,37)           122.6692                                         !
 ! A41   A(19,22,23)           113.5132                                         !
 ! A42   A(19,22,28)           108.3617                                         !
 ! A43   A(19,22,29)           108.0474                                         !
 ! A44   A(23,22,28)           109.6293                                         !
 ! A45   A(23,22,29)           109.5228                                         !
 ! A46   A(28,22,29)           107.5863                                         !
 ! A47   A(22,23,24)           111.9796                                         !
 ! A48   A(22,23,25)           109.8375                                         !
 ! A49   A(22,23,30)           107.9554                                         !
 ! A50   A(24,23,25)           110.4099                                         !
 ! A51   A(24,23,30)           108.6861                                         !
 ! A52   A(25,23,30)           107.8448                                         !
 ! A53   A(23,24,31)           110.3446                                         !
 ! A54   A(23,24,32)           110.6727                                         !
 ! A55   A(23,24,33)           113.1866                                         !
 ! A56   A(31,24,32)           107.4954                                         !
 ! A57   A(31,24,33)           108.0845                                         !
 ! A58   A(32,24,33)           106.8259                                         !
 ! A59   A(23,25,34)           111.0136                                         !
 ! A60   A(23,25,35)           110.8737                                         !
 ! A61   A(23,25,36)           111.1571                                         !
 ! A62   A(34,25,35)           107.7383                                         !
 ! A63   A(34,25,36)           107.9415                                         !
 ! A64   A(35,25,36)           107.973                                          !
 ! A65   A(20,37,38)           120.6111                                         !
 ! A66   A(20,37,50)           116.5166                                         !
 ! A67   A(38,37,50)           113.6106                                         !
 ! A68   A(37,38,39)           109.1525                                         !
 ! A69   A(37,38,41)           114.5029                                         !
 ! A70   A(37,38,51)           105.5706                                         !
 ! A71   A(39,38,41)           112.3246                                         !
 ! A72   A(39,38,51)           106.5832                                         !
 ! A73   A(41,38,51)           108.1846                                         !
 ! A74   A(38,39,40)           123.1841                                         !
 ! A75   A(38,39,48)           115.9537                                         !
 ! A76   A(40,39,48)           120.8547                                         !
 ! A77   A(38,41,42)           118.2045                                         !
 ! A78   A(38,41,52)           107.0787                                         !
 ! A79   A(38,41,53)           106.8531                                         !
 ! A80   A(42,41,52)           107.7718                                         !
 ! A81   A(42,41,53)           109.461                                          !
 ! A82   A(52,41,53)           106.9452                                         !
 ! A83   A(41,42,43)           117.5758                                         !
 ! A84   A(41,42,54)           106.4519                                         !
 ! A85   A(41,42,55)           111.2015                                         !
 ! A86   A(43,42,54)           106.79                                           !
 ! A87   A(43,42,55)           109.2322                                         !
 ! A88   A(54,42,55)           104.6713                                         !
 ! A89   A(42,43,44)           111.6024                                         !
 ! A90   A(42,43,56)           109.4681                                         !
 ! A91   A(42,43,57)           110.326                                          !
 ! A92   A(44,43,56)           107.5741                                         !
 ! A93   A(44,43,57)           110.0748                                         !
 ! A94   A(56,43,57)           107.6745                                         !
 ! A95   A(43,44,45)           125.0218                                         !
 ! A96   A(43,44,58)           112.4239                                         !
 ! A97   A(45,44,58)           114.8117                                         !
 ! A98   A(44,45,46)           121.6152                                         !
 ! A99   A(44,45,47)           119.1411                                         !
 ! A100  A(46,45,47)           119.2262                                         !
 ! A101  A(45,46,59)           117.8459                                         !
 ! A102  A(45,46,60)           117.6042                                         !
 ! A103  A(59,46,60)           113.8929                                         !
 ! A104  A(45,47,61)           119.4615                                         !
 ! A105  A(45,47,62)           122.186                                          !
 ! A106  A(61,47,62)           114.495                                          !
 ! A107  A(39,48,49)           107.4627                                         !
 ! D1    D(16,1,2,3)            38.5025                                         !
 ! D2    D(16,1,2,5)           -82.3372                                         !
 ! D3    D(16,1,2,11)          157.4474                                         !
 ! D4    D(17,1,2,3)           158.2976                                         !
 ! D5    D(17,1,2,5)            37.4578                                         !
 ! D6    D(17,1,2,11)          -82.7576                                         !
 ! D7    D(1,2,3,4)            -30.6997                                         !
 ! D8    D(1,2,3,18)           152.9909                                         !
 ! D9    D(5,2,3,4)             95.4627                                         !
 ! D10   D(5,2,3,18)           -80.8467                                         !
 ! D11   D(11,2,3,4)          -147.0173                                         !
 ! D12   D(11,2,3,18)           36.6733                                         !
 ! D13   D(1,2,5,6)            -57.021                                          !
 ! D14   D(1,2,5,12)          -178.9935                                         !
 ! D15   D(1,2,5,13)            64.8835                                         !
 ! D16   D(3,2,5,6)           -177.5887                                         !
 ! D17   D(3,2,5,12)            60.4388                                         !
 ! D18   D(3,2,5,13)           -55.6842                                         !
 ! D19   D(11,2,5,6)            62.7922                                         !
 ! D20   D(11,2,5,12)          -59.1804                                         !
 ! D21   D(11,2,5,13)         -175.3034                                         !
 ! D22   D(2,3,18,19)          -19.2072                                         !
 ! D23   D(2,3,18,26)          177.004                                          !
 ! D24   D(4,3,18,19)          164.5945                                         !
 ! D25   D(4,3,18,26)            0.8057                                         !
 ! D26   D(2,5,6,7)            -44.5901                                         !
 ! D27   D(2,5,6,14)            73.6333                                         !
 ! D28   D(2,5,6,15)          -168.2617                                         !
 ! D29   D(12,5,6,7)            76.6113                                         !
 ! D30   D(12,5,6,14)         -165.1653                                         !
 ! D31   D(12,5,6,15)          -47.0603                                         !
 ! D32   D(13,5,6,7)          -166.8106                                         !
 ! D33   D(13,5,6,14)          -48.5871                                         !
 ! D34   D(13,5,6,15)           69.5178                                         !
 ! D35   D(5,6,7,8)             87.3655                                         !
 ! D36   D(5,6,7,9)            -86.3045                                         !
 ! D37   D(14,6,7,8)           -33.0072                                         !
 ! D38   D(14,6,7,9)           153.3228                                         !
 ! D39   D(15,6,7,8)          -150.5509                                         !
 ! D40   D(15,6,7,9)            35.7791                                         !
 ! D41   D(6,7,9,10)            -8.6832                                         !
 ! D42   D(8,7,9,10)           177.4362                                         !
 ! D43   D(3,18,19,20)         -93.6139                                         !
 ! D44   D(3,18,19,22)         143.07                                           !
 ! D45   D(3,18,19,27)          23.1326                                         !
 ! D46   D(26,18,19,20)         69.7899                                         !
 ! D47   D(26,18,19,22)        -53.5262                                         !
 ! D48   D(26,18,19,27)       -173.4636                                         !
 ! D49   D(18,19,20,21)       -106.3641                                         !
 ! D50   D(18,19,20,37)         72.2164                                         !
 ! D51   D(22,19,20,21)         16.8367                                         !
 ! D52   D(22,19,20,37)       -164.5828                                         !
 ! D53   D(27,19,20,21)        137.3635                                         !
 ! D54   D(27,19,20,37)        -44.056                                          !
 ! D55   D(18,19,22,23)       -165.5903                                         !
 ! D56   D(18,19,22,28)         72.3761                                         !
 ! D57   D(18,19,22,29)        -43.9175                                         !
 ! D58   D(20,19,22,23)         73.7825                                         !
 ! D59   D(20,19,22,28)        -48.2511                                         !
 ! D60   D(20,19,22,29)       -164.5447                                         !
 ! D61   D(27,19,22,23)        -46.4125                                         !
 ! D62   D(27,19,22,28)       -168.4461                                         !
 ! D63   D(27,19,22,29)         75.2602                                         !
 ! D64   D(19,20,37,38)       -159.0658                                         !
 ! D65   D(19,20,37,50)        -14.4503                                         !
 ! D66   D(21,20,37,38)         19.5261                                         !
 ! D67   D(21,20,37,50)        164.1416                                         !
 ! D68   D(19,22,23,24)         67.8687                                         !
 ! D69   D(19,22,23,25)       -169.0792                                         !
 ! D70   D(19,22,23,30)        -51.7336                                         !
 ! D71   D(28,22,23,24)       -170.8048                                         !
 ! D72   D(28,22,23,25)        -47.7527                                         !
 ! D73   D(28,22,23,30)         69.5929                                         !
 ! D74   D(29,22,23,24)        -52.9773                                         !
 ! D75   D(29,22,23,25)         70.0748                                         !
 ! D76   D(29,22,23,30)       -172.5796                                         !
 ! D77   D(22,23,24,31)         60.8882                                         !
 ! D78   D(22,23,24,32)        179.7439                                         !
 ! D79   D(22,23,24,33)        -60.3759                                         !
 ! D80   D(25,23,24,31)        -61.8395                                         !
 ! D81   D(25,23,24,32)         57.0163                                         !
 ! D82   D(25,23,24,33)        176.8965                                         !
 ! D83   D(30,23,24,31)       -179.9391                                         !
 ! D84   D(30,23,24,32)        -61.0834                                         !
 ! D85   D(30,23,24,33)         58.7968                                         !
 ! D86   D(22,23,25,34)        179.2856                                         !
 ! D87   D(22,23,25,35)        -60.9928                                         !
 ! D88   D(22,23,25,36)         59.1194                                         !
 ! D89   D(24,23,25,34)        -56.7432                                         !
 ! D90   D(24,23,25,35)         62.9784                                         !
 ! D91   D(24,23,25,36)       -176.9093                                         !
 ! D92   D(30,23,25,34)         61.871                                          !
 ! D93   D(30,23,25,35)       -178.4074                                         !
 ! D94   D(30,23,25,36)        -58.2952                                         !
 ! D95   D(20,37,38,39)       -143.5394                                         !
 ! D96   D(20,37,38,41)         89.5759                                         !
 ! D97   D(20,37,38,51)        -29.3082                                         !
 ! D98   D(50,37,38,39)         70.8965                                         !
 ! D99   D(50,37,38,41)        -55.9882                                         !
 ! D100  D(50,37,38,51)       -174.8723                                         !
 ! D101  D(37,38,39,40)       -152.5372                                         !
 ! D102  D(37,38,39,48)         26.4667                                         !
 ! D103  D(41,38,39,40)        -24.4231                                         !
 ! D104  D(41,38,39,48)        154.5808                                         !
 ! D105  D(51,38,39,40)         93.8901                                         !
 ! D106  D(51,38,39,48)        -87.106                                          !
 ! D107  D(37,38,41,42)         50.519                                          !
 ! D108  D(37,38,41,52)        -71.2904                                         !
 ! D109  D(37,38,41,53)        174.4007                                         !
 ! D110  D(39,38,41,42)        -74.7159                                         !
 ! D111  D(39,38,41,52)        163.4746                                         !
 ! D112  D(39,38,41,53)         49.1658                                         !
 ! D113  D(51,38,41,42)        167.9203                                         !
 ! D114  D(51,38,41,52)         46.1108                                         !
 ! D115  D(51,38,41,53)        -68.1981                                         !
 ! D116  D(38,39,48,49)         -1.445                                          !
 ! D117  D(40,39,48,49)        177.5839                                         !
 ! D118  D(38,41,42,43)         58.8301                                         !
 ! D119  D(38,41,42,54)        178.4351                                         !
 ! D120  D(38,41,42,55)        -68.1239                                         !
 ! D121  D(52,41,42,43)       -179.7135                                         !
 ! D122  D(52,41,42,54)        -60.1086                                         !
 ! D123  D(52,41,42,55)         53.3325                                         !
 ! D124  D(53,41,42,43)        -63.7458                                         !
 ! D125  D(53,41,42,54)         55.8591                                         !
 ! D126  D(53,41,42,55)        169.3002                                         !
 ! D127  D(41,42,43,44)        -81.9601                                         !
 ! D128  D(41,42,43,56)        159.0656                                         !
 ! D129  D(41,42,43,57)         40.7489                                         !
 ! D130  D(54,42,43,44)        158.6132                                         !
 ! D131  D(54,42,43,56)         39.639                                          !
 ! D132  D(54,42,43,57)        -78.6778                                         !
 ! D133  D(55,42,43,44)         45.9415                                         !
 ! D134  D(55,42,43,56)        -73.0327                                         !
 ! D135  D(55,42,43,57)        168.6505                                         !
 ! D136  D(42,43,44,45)        149.1519                                         !
 ! D137  D(42,43,44,58)        -63.3352                                         !
 ! D138  D(56,43,44,45)        -90.754                                          !
 ! D139  D(56,43,44,58)         56.759                                          !
 ! D140  D(57,43,44,45)         26.2993                                         !
 ! D141  D(57,43,44,58)        173.8123                                         !
 ! D142  D(43,44,45,46)        -20.7251                                         !
 ! D143  D(43,44,45,47)        157.7411                                         !
 ! D144  D(58,44,45,46)       -167.5645                                         !
 ! D145  D(58,44,45,47)         10.9018                                         !
 ! D146  D(44,45,46,59)        -31.9044                                         !
 ! D147  D(44,45,46,60)       -174.3832                                         !
 ! D148  D(47,45,46,59)        149.6307                                         !
 ! D149  D(47,45,46,60)          7.1519                                         !
 ! D150  D(44,45,47,61)        162.4997                                         !
 ! D151  D(44,45,47,62)          5.8363                                         !
 ! D152  D(46,45,47,61)        -18.9969                                         !
 ! D153  D(46,45,47,62)       -175.6603                                         !
 --------------------------------------------------------------------------------
 Symmetry turned off by external request.
 Stoichiometry    C17H33N6O6(1+)
 Framework group  C1[X(C17H33N6O6)]
 Deg. of freedom   180
 Full point group                 C1      NOp   1
                          Input orientation:                          
 ---------------------------------------------------------------------
 Center     Atomic      Atomic             Coordinates (Angstroms)
 Number     Number       Type             X           Y           Z
 ---------------------------------------------------------------------
      1          7           0       10.892258   16.479116   11.143371
      2          6           0       11.897160   16.169299   12.166165
      3          6           0       13.118025   17.069318   11.896121
      4          8           0       13.376656   17.408615   10.746838
      5          6           0       12.393095   14.703598   12.224365
      6          6           0       11.259813   13.665887   12.432962
      7          6           0       10.312947   14.151609   13.513283
      8          8           0        9.365997   14.874961   13.272080
      9          8           0       10.611992   13.869284   14.793953
     10          1           0       11.360900   13.252177   14.859044
     11          1           0       11.446218   16.404536   13.135124
     12          1           0       13.120538   14.621375   13.041306
     13          1           0       12.925070   14.463327   11.297697
     14          1           0       10.673439   13.543972   11.518990
     15          1           0       11.695791   12.689646   12.671785
     16          1           0       11.374021   16.635991   10.256276
     17          1           0       10.235085   15.710817   11.034403
     18          7           0       13.917696   17.395621   12.951270
     19          6           0       13.608994   17.341805   14.385094
     20          6           0       13.102501   18.744755   14.801828
     21          8           0       13.762962   19.526670   15.456940
     22          6           0       14.817254   16.898720   15.211552
     23          6           0       14.458966   16.489793   16.654834
     24          6           0       13.623488   15.198366   16.696931
     25          6           0       15.740676   16.325324   17.482989
     26          1           0       14.727198   17.950419   12.687100
     27          1           0       12.798612   16.625044   14.525141
     28          1           0       15.542042   17.719994   15.230899
     29          1           0       15.289235   16.051939   14.696837
     30          1           0       13.871532   17.303833   17.101619
     31          1           0       14.187113   14.364225   16.256610
     32          1           0       13.385290   14.925552   17.730349
     33          1           0       12.667624   15.283963   16.162240
     34          1           0       15.507614   16.046904   18.516225
     35          1           0       16.380672   15.539752   17.061232
     36          1           0       16.318338   17.255585   17.506340
     37          7           0       11.829314   19.047259   14.332200
     38          6           0       11.383080   20.439089   14.229659
     39          6           0        9.896758   20.517821   14.588692
     40          8           0        9.151937   21.374263   14.154187
     41          6           0       11.695471   21.112409   12.879687
     42          6           0       11.288050   20.377036   11.586897
     43          6           0        9.801044   20.038919   11.399442
     44          7           0        9.427415   18.801087   12.123780
     45          6           0        8.216305   18.551486   12.650969
     46          7           0        7.350894   19.543671   12.932106
     47          7           0        7.850014   17.279529   12.873986
     48          8           0        9.439738   19.560844   15.410104
     49          1           0       10.188328   18.959593   15.606386
     50          1           0       11.462758   18.448913   13.601899
     51          1           0       11.924257   20.980576   15.015754
     52          1           0       12.778163   21.275638   12.844485
     53          1           0       11.224548   22.100026   12.901230
     54          1           0       11.571145   21.031919   10.754907
     55          1           0       11.886084   19.469150   11.441705
     56          1           0        9.594996   19.874707   10.335206
     57          1           0        9.179542   20.868826   11.732315
     58          1           0        9.929359   17.959676   11.760387
     59          1           0        7.735460   20.445582   13.216102
     60          1           0        6.492510   19.296451   13.406879
     61          1           0        7.079658   17.086409   13.498920
     62          1           0        8.489185   16.500277   12.739337
 ---------------------------------------------------------------------
 Rotational constants (GHZ):           0.1891692           0.1385107           0.1115071
 Standard basis: 6-31G(d) (6D, 7F)
   501 basis functions,   944 primitive gaussians,   501 cartesian basis functions
   112 alpha electrons      112 beta electrons
       nuclear repulsion energy      3294.4324143059 Hartrees.
 NAtoms=   62 NActive=   62 NUniq=   62 SFac= 1.00D+00 NAtFMM=   60 NAOKFM=T Big=T
 Integral buffers will be    131072 words long.
 Raffenetti 2 integral format.
 Two-electron integral symmetry is turned off.
 Nuclear repulsion after empirical dispersion term =     3294.3410931364 Hartrees.
 One-electron integrals computed using PRISM.
 NBasis=   501 RedAO= T EigKep=  1.88D-03  NBF=   501
 NBsUse=   501 1.00D-06 EigRej= -1.00D+00 NBFU=   501
 Initial guess from the checkpoint file:  "conf-472.chk"
 B after Tr=     0.000000    0.000000    0.000000
         Rot=    1.000000    0.000000    0.000000    0.000000 Ang=   0.00 deg.
 Requested convergence on RMS density matrix=1.00D-08 within 128 cycles.
 Requested convergence on MAX density matrix=1.00D-06.
 Requested convergence on             energy=1.00D-06.
 No special actions if energy rises.
 SCF Done:  E(RB3LYP) =  -1447.50636027     A.U. after    3 cycles
            NFock=  3  Conv=0.13D-08     -V/T= 2.0093

 **********************************************************************

            Population analysis using the SCF Density.

 **********************************************************************

 Alpha  occ. eigenvalues --  -19.33335 -19.31490 -19.27642 -19.25885 -19.24796
 Alpha  occ. eigenvalues --  -19.24131 -14.50158 -14.49689 -14.49601 -14.49152
 Alpha  occ. eigenvalues --  -14.48806 -14.46328 -10.46712 -10.46094 -10.44179
 Alpha  occ. eigenvalues --  -10.41529 -10.41453 -10.36469 -10.35936 -10.35819
 Alpha  occ. eigenvalues --  -10.34623 -10.33930 -10.33501 -10.30389 -10.30212
 Alpha  occ. eigenvalues --  -10.28881 -10.28638 -10.27402 -10.25545  -1.23977
 Alpha  occ. eigenvalues --   -1.22533  -1.16789  -1.16144  -1.15659  -1.14964
 Alpha  occ. eigenvalues --   -1.14054  -1.06023  -1.04723  -1.04188  -1.03150
 Alpha  occ. eigenvalues --   -1.02919  -0.92857  -0.91840  -0.91113  -0.87426
 Alpha  occ. eigenvalues --   -0.85674  -0.84373  -0.80672  -0.77727  -0.77354
 Alpha  occ. eigenvalues --   -0.76664  -0.75815  -0.74932  -0.73598  -0.72397
 Alpha  occ. eigenvalues --   -0.71792  -0.70588  -0.70260  -0.68261  -0.67865
 Alpha  occ. eigenvalues --   -0.66613  -0.65293  -0.64872  -0.63767  -0.63172
 Alpha  occ. eigenvalues --   -0.62286  -0.61398  -0.60666  -0.60460  -0.59650
 Alpha  occ. eigenvalues --   -0.59083  -0.58235  -0.57957  -0.57322  -0.57087
 Alpha  occ. eigenvalues --   -0.56673  -0.55876  -0.55338  -0.54942  -0.54358
 Alpha  occ. eigenvalues --   -0.53784  -0.53344  -0.52922  -0.52567  -0.51959
 Alpha  occ. eigenvalues --   -0.51812  -0.51309  -0.50779  -0.50418  -0.49387
 Alpha  occ. eigenvalues --   -0.49010  -0.48415  -0.48315  -0.47225  -0.46629
 Alpha  occ. eigenvalues --   -0.46194  -0.45836  -0.45463  -0.45261  -0.43771
 Alpha  occ. eigenvalues --   -0.42958  -0.42206  -0.41964  -0.41728  -0.41356
 Alpha  occ. eigenvalues --   -0.40777  -0.40187  -0.39766  -0.39078  -0.38134
 Alpha  occ. eigenvalues --   -0.37644  -0.36180
 Alpha virt. eigenvalues --   -0.13700  -0.12666  -0.11828  -0.11522  -0.09399
 Alpha virt. eigenvalues --   -0.08174  -0.06133  -0.04940  -0.03644  -0.02713
 Alpha virt. eigenvalues --   -0.01861  -0.01749  -0.00904  -0.00158   0.00321
 Alpha virt. eigenvalues --    0.01438   0.02002   0.02089   0.02634   0.02885
 Alpha virt. eigenvalues --    0.03298   0.03599   0.04099   0.04534   0.05232
 Alpha virt. eigenvalues --    0.05417   0.05707   0.06074   0.06570   0.06805
 Alpha virt. eigenvalues --    0.07383   0.07610   0.07914   0.08511   0.08716
 Alpha virt. eigenvalues --    0.09028   0.09427   0.09625   0.10164   0.10480
 Alpha virt. eigenvalues --    0.11009   0.11041   0.11576   0.12041   0.12160
 Alpha virt. eigenvalues --    0.12778   0.13413   0.13722   0.14055   0.14818
 Alpha virt. eigenvalues --    0.15185   0.15510   0.15924   0.18068   0.18457
 Alpha virt. eigenvalues --    0.20297   0.20928   0.22925   0.23346   0.24248
 Alpha virt. eigenvalues --    0.26228   0.26508   0.27791   0.29000   0.29237
 Alpha virt. eigenvalues --    0.30412   0.34895   0.36905   0.38157   0.38731
 Alpha virt. eigenvalues --    0.39240   0.39979   0.40403   0.41387   0.41618
 Alpha virt. eigenvalues --    0.42030   0.42450   0.43019   0.43317   0.43575
 Alpha virt. eigenvalues --    0.44302   0.44708   0.46017   0.46948   0.47174
 Alpha virt. eigenvalues --    0.47821   0.48277   0.48820   0.50421   0.50503
 Alpha virt. eigenvalues --    0.51552   0.51784   0.52365   0.53427   0.53636
 Alpha virt. eigenvalues --    0.54228   0.54895   0.55051   0.55521   0.56017
 Alpha virt. eigenvalues --    0.56518   0.57026   0.57596   0.58398   0.59093
 Alpha virt. eigenvalues --    0.60168   0.60847   0.61000   0.61331   0.61774
 Alpha virt. eigenvalues --    0.62297   0.62987   0.63542   0.64497   0.65736
 Alpha virt. eigenvalues --    0.65835   0.66070   0.67185   0.68795   0.69404
 Alpha virt. eigenvalues --    0.70137   0.70737   0.71074   0.71583   0.71921
 Alpha virt. eigenvalues --    0.72878   0.73057   0.73962   0.74126   0.75020
 Alpha virt. eigenvalues --    0.75374   0.76018   0.76394   0.76775   0.77162
 Alpha virt. eigenvalues --    0.77477   0.77899   0.78771   0.79289   0.79518
 Alpha virt. eigenvalues --    0.80042   0.80951   0.82298   0.82563   0.82681
 Alpha virt. eigenvalues --    0.82948   0.83205   0.83888   0.84096   0.84752
 Alpha virt. eigenvalues --    0.85362   0.85496   0.85662   0.86594   0.87248
 Alpha virt. eigenvalues --    0.88019   0.88270   0.88810   0.89416   0.89727
 Alpha virt. eigenvalues --    0.90316   0.90614   0.91697   0.92392   0.93042
 Alpha virt. eigenvalues --    0.94070   0.94409   0.94797   0.96024   0.96842
 Alpha virt. eigenvalues --    0.97434   0.98450   0.99601   1.00626   1.01635
 Alpha virt. eigenvalues --    1.02293   1.02767   1.04164   1.05509   1.06063
 Alpha virt. eigenvalues --    1.06714   1.07502   1.09785   1.10353   1.11491
 Alpha virt. eigenvalues --    1.11730   1.13545   1.13848   1.15148   1.15892
 Alpha virt. eigenvalues --    1.17465   1.18505   1.19787   1.22333   1.22781
 Alpha virt. eigenvalues --    1.23461   1.24534   1.25011   1.26731   1.26781
 Alpha virt. eigenvalues --    1.28138   1.28637   1.30026   1.30969   1.31598
 Alpha virt. eigenvalues --    1.33140   1.33900   1.35304   1.36773   1.38359
 Alpha virt. eigenvalues --    1.38934   1.40116   1.41716   1.42796   1.43663
 Alpha virt. eigenvalues --    1.46224   1.47800   1.49215   1.51000   1.51107
 Alpha virt. eigenvalues --    1.52380   1.54125   1.54720   1.55110   1.55508
 Alpha virt. eigenvalues --    1.56688   1.56875   1.58390   1.59305   1.61280
 Alpha virt. eigenvalues --    1.61845   1.62403   1.62661   1.63945   1.64158
 Alpha virt. eigenvalues --    1.64439   1.65733   1.66600   1.67108   1.67893
 Alpha virt. eigenvalues --    1.68743   1.69441   1.70193   1.70965   1.71664
 Alpha virt. eigenvalues --    1.71817   1.72108   1.72661   1.73140   1.74530
 Alpha virt. eigenvalues --    1.75514   1.76727   1.76839   1.77341   1.77798
 Alpha virt. eigenvalues --    1.78429   1.79461   1.80261   1.80519   1.82409
 Alpha virt. eigenvalues --    1.83052   1.83541   1.84554   1.85136   1.85631
 Alpha virt. eigenvalues --    1.86920   1.87189   1.88020   1.89064   1.89521
 Alpha virt. eigenvalues --    1.90214   1.91049   1.91661   1.92035   1.93332
 Alpha virt. eigenvalues --    1.94022   1.95078   1.95548   1.96966   1.97228
 Alpha virt. eigenvalues --    1.98791   2.01128   2.01562   2.01889   2.03056
 Alpha virt. eigenvalues --    2.04945   2.05455   2.06031   2.06750   2.08164
 Alpha virt. eigenvalues --    2.10803   2.11449   2.13124   2.13468   2.14981
 Alpha virt. eigenvalues --    2.15492   2.16305   2.16980   2.18008   2.18558
 Alpha virt. eigenvalues --    2.19342   2.19852   2.21372   2.22218   2.24176
 Alpha virt. eigenvalues --    2.24439   2.26799   2.27531   2.28799   2.29772
 Alpha virt. eigenvalues --    2.30662   2.31210   2.32091   2.34041   2.35272
 Alpha virt. eigenvalues --    2.36098   2.37728   2.37942   2.38983   2.40336
 Alpha virt. eigenvalues --    2.41455   2.43665   2.44251   2.45101   2.47205
 Alpha virt. eigenvalues --    2.47612   2.49007   2.49718   2.50247   2.51042
 Alpha virt. eigenvalues --    2.52690   2.52908   2.54386   2.56027   2.57147
 Alpha virt. eigenvalues --    2.58206   2.59130   2.59235   2.60550   2.61488
 Alpha virt. eigenvalues --    2.62949   2.64324   2.66582   2.67555   2.70792
 Alpha virt. eigenvalues --    2.72894   2.73799   2.77600   2.80945   2.87886
 Alpha virt. eigenvalues --    2.88058   2.88827   2.89414   2.90453   2.91988
 Alpha virt. eigenvalues --    2.93079   2.95751   3.00117   3.02126   3.04435
 Alpha virt. eigenvalues --    3.71188   3.75296   3.79342   3.79904   3.82622
 Alpha virt. eigenvalues --    3.90236   3.95200   3.99300   4.00672   4.03041
 Alpha virt. eigenvalues --    4.06206   4.07406   4.09719   4.10858   4.16638
 Alpha virt. eigenvalues --    4.18360   4.20581   4.22717   4.23732   4.28414
 Alpha virt. eigenvalues --    4.32574   4.36899   4.39298   4.40675   4.46928
 Alpha virt. eigenvalues --    4.52844   4.52876   4.58706   4.60182
          Condensed to atoms (all electrons):
 Mulliken charges:
               1
     1  N   -0.788035
     2  C   -0.077374
     3  C    0.610289
     4  O   -0.506286
     5  C   -0.293719
     6  C   -0.390375
     7  C    0.607847
     8  O   -0.478076
     9  O   -0.534804
    10  H    0.434741
    11  H    0.141142
    12  H    0.169778
    13  H    0.200681
    14  H    0.197570
    15  H    0.186185
    16  H    0.357532
    17  H    0.335495
    18  N   -0.593906
    19  C   -0.100784
    20  C    0.633981
    21  O   -0.467023
    22  C   -0.264219
    23  C   -0.084798
    24  C   -0.470456
    25  C   -0.449195
    26  H    0.356587
    27  H    0.164287
    28  H    0.175033
    29  H    0.147658
    30  H    0.147552
    31  H    0.141342
    32  H    0.172613
    33  H    0.124752
    34  H    0.159618
    35  H    0.148465
    36  H    0.164109
    37  N   -0.689554
    38  C   -0.086981
    39  C    0.641754
    40  O   -0.492734
    41  C   -0.277165
    42  C   -0.320576
    43  C   -0.159297
    44  N   -0.675833
    45  C    0.761844
    46  N   -0.745477
    47  N   -0.784684
    48  O   -0.567980
    49  H    0.434511
    50  H    0.361604
    51  H    0.238189
    52  H    0.174333
    53  H    0.191221
    54  H    0.185115
    55  H    0.165458
    56  H    0.186546
    57  H    0.197348
    58  H    0.426226
    59  H    0.411028
    60  H    0.364060
    61  H    0.367916
    62  H    0.414916
 Sum of Mulliken charges =   1.00000
 Mulliken charges with hydrogens summed into heavy atoms:
               1
     1  N   -0.095008
     2  C    0.063769
     3  C    0.610289
     4  O   -0.506286
     5  C    0.076740
     6  C   -0.006620
     7  C    0.607847
     8  O   -0.478076
     9  O   -0.100063
    18  N   -0.237318
    19  C    0.063503
    20  C    0.633981
    21  O   -0.467023
    22  C    0.058473
    23  C    0.062754
    24  C   -0.031750
    25  C    0.022998
    37  N   -0.327950
    38  C    0.151207
    39  C    0.641754
    40  O   -0.492734
    41  C    0.088390
    42  C    0.029997
    43  C    0.224597
    44  N   -0.249607
    45  C    0.761844
    46  N    0.029611
    47  N   -0.001852
    48  O   -0.133468
 Electronic spatial extent (au):  <R**2>=         514884.9853
 Charge=              1.0000 electrons
 Dipole moment (field-independent basis, Debye):
    X=             51.0316    Y=             79.4572    Z=             63.3027  Tot=            113.6877
 Quadrupole moment (field-independent basis, Debye-Ang):
   XX=            402.8334   YY=           1177.1755   ZZ=            670.4329
   XY=            828.6332   XZ=            682.1524   YZ=           1039.9613
 Traceless Quadrupole moment (field-independent basis, Debye-Ang):
   XX=           -347.3138   YY=            427.0282   ZZ=            -79.7144
   XY=            828.6332   XZ=            682.1524   YZ=           1039.9613
 Octapole moment (field-independent basis, Debye-Ang**2):
  XXX=            796.3710  YYY=          14348.6595  ZZZ=           4296.6174  XYY=          11853.3962
  XXY=           6166.1139  XXZ=           5475.5386  XZZ=           7220.4852  YZZ=          10693.9504
  YYZ=          15157.0190  XYZ=          10988.8640
 Hexadecapole moment (field-independent basis, Debye-Ang**3):
 XXXX=         -60764.6356 YYYY=          89459.8613 ZZZZ=         -41002.9553 XXXY=           2513.2551
 XXXZ=          11464.5347 YYYX=         132936.4091 YYYZ=         177013.3571 ZZZX=          43540.3958
 ZZZY=          59049.6940 XXYY=          73256.6304 XXZZ=          50907.1861 YYZZ=         141704.5852
 XXYZ=          82835.7932 YYXZ=         154211.0468 ZZXY=         112136.5430
 N-N= 3.294341093136D+03 E-N=-9.935840425047D+03  KE= 1.434129930169D+03
 Unable to Open any file for archive entry.
 1\1\GINC-SKL-132\SP\RB3LYP\6-31G(d)\C17H33N6O6(1+)\KENGMITH\24-May-202
 2\0\\# B3LYP/6-31G* empiricaldispersion=gd3 guess=read geom=check nosy
 mm integral(ultrafinegrid)\\Candidate Structure: Conf:472 Charge calc 
 in gas phase\\1,1\N,0,10.8922579838,16.4791161424,11.1433707577\C,0,11
 .8971601222,16.1692985217,12.1661650597\C,0,13.1180254353,17.069318377
 4,11.8961212332\O,0,13.3766558279,17.4086152467,10.7468376155\C,0,12.3
 930954057,14.7035982248,12.2243645571\C,0,11.2598129046,13.6658868628,
 12.4329621186\C,0,10.3129465381,14.1516089335,13.5132832034\O,0,9.3659
 971866,14.8749613502,13.2720798994\O,0,10.6119924922,13.8692839683,14.
 7939534665\H,0,11.3608995616,13.25217709,14.8590437872\H,0,11.44621800
 59,16.4045360408,13.1351243858\H,0,13.1205379162,14.621375212,13.04130
 58109\H,0,12.9250701505,14.4633269019,11.2976969497\H,0,10.6734388648,
 13.5439717397,11.5189895064\H,0,11.6957910315,12.6896460957,12.6717850
 261\H,0,11.3740206099,16.6359913382,10.2562761364\H,0,10.2350854406,15
 .7108174684,11.0344031978\N,0,13.9176956659,17.3956209608,12.951269949
 6\C,0,13.6089943356,17.3418052207,14.3850942617\C,0,13.1025012179,18.7
 447552917,14.8018282949\O,0,13.7629620692,19.5266700956,15.4569404184\
 C,0,14.8172544626,16.8987204473,15.211551839\C,0,14.4589662044,16.4897
 928759,16.6548337615\C,0,13.6234879165,15.1983657086,16.6969307311\C,0
 ,15.7406755795,16.325323897,17.4829886102\H,0,14.7271981121,17.9504186
 38,12.6870996104\H,0,12.798612134,16.625043828,14.5251412539\H,0,15.54
 20423308,17.7199937682,15.230898884\H,0,15.2892345936,16.0519390861,14
 .6968367624\H,0,13.8715319434,17.3038330868,17.1016191745\H,0,14.18711
 29737,14.3642248968,16.25660987\H,0,13.3852902538,14.9255519173,17.730
 3485942\H,0,12.6676243529,15.2839629691,16.1622397735\H,0,15.507613567
 3,16.0469036977,18.5162251252\H,0,16.3806719666,15.5397522651,17.06123
 24466\H,0,16.3183381241,17.2555849406,17.5063400334\N,0,11.8293142345,
 19.0472591208,14.3321997977\C,0,11.383079752,20.4390887322,14.22965943
 01\C,0,9.8967581555,20.5178207371,14.5886919235\O,0,9.1519367567,21.37
 42629655,14.1541874343\C,0,11.6954711658,21.1124091713,12.8796866982\C
 ,0,11.2880498363,20.3770355166,11.5868970211\C,0,9.8010443215,20.03891
 85303,11.3994423635\N,0,9.4274152863,18.8010869866,12.1237801539\C,0,8
 .2163048977,18.5514862399,12.6509686009\N,0,7.3508935219,19.5436713413
 ,12.932106065\N,0,7.8500138774,17.2795285765,12.8739863453\O,0,9.43973
 78134,19.5608438774,15.4101037631\H,0,10.1883277142,18.9595926419,15.6
 06385502\H,0,11.4627581058,18.448912776,13.6018990481\H,0,11.924257008
 6,20.9805756333,15.0157541338\H,0,12.7781627063,21.2756375292,12.84448
 46441\H,0,11.2245476338,22.1000257225,12.9012295931\H,0,11.5711448821,
 21.0319187123,10.7549068691\H,0,11.8860840125,19.4691503357,11.4417047
 137\H,0,9.5949959249,19.8747069088,10.3352056182\H,0,9.1795420977,20.8
 688255553,11.7323146024\H,0,9.9293593183,17.9596758943,11.7603869819\H
 ,0,7.7354603589,20.4455818784,13.2161023463\H,0,6.4925096241,19.296451
 0203,13.40687866\H,0,7.0796581661,17.0864089961,13.4989196411\H,0,8.48
 91845565,16.5002773045,12.7393370339\\Version=ES64L-G16RevC.01\HF=-144
 7.5063603\RMSD=1.279e-09\Dipole=-1.6525617,-2.0839911,-0.86332\Quadrup
 ole=-258.2193327,317.4850099,-59.2656772,616.0684656,507.1636133,773.1
 857394\PG=C01 [X(C17H33N6O6)]\\@
 The archive entry for this job was punched.


 Sacred cows make the best hamburger.
                               -- Mark Twain
 Job cpu time:       0 days  0 hours  2 minutes 45.3 seconds.
 Elapsed time:       0 days  0 hours  0 minutes 42.1 seconds.
 File lengths (MBytes):  RWF=    248 Int=      0 D2E=      0 Chk=     32 Scr=     16
 Normal termination of Gaussian 16 at Tue May 24 03:34:17 2022.
