 Entering Gaussian System, Link 0=/opt/software/Gaussian/g16-AVX2-C.01/g16/g16
 Input=charge-conf-841.com
 Output=charge-conf-841.log
 Initial command:
 /opt/software/Gaussian/g16-AVX2-C.01/g16/l1.exe "/mnt/gs18/scratch/users/kengmith/Gau-722.inp" -scrdir="/mnt/gs18/scratch/users/kengmith/"
 Entering Link 1 = /opt/software/Gaussian/g16-AVX2-C.01/g16/l1.exe PID=       735.
  
 Copyright (c) 1988-2019, Gaussian, Inc.  All Rights Reserved.
  
 This is part of the Gaussian(R) 16 program.  It is based on
 the Gaussian(R) 09 system (copyright 2009, Gaussian, Inc.),
 the Gaussian(R) 03 system (copyright 2003, Gaussian, Inc.),
 the Gaussian(R) 98 system (copyright 1998, Gaussian, Inc.),
 the Gaussian(R) 94 system (copyright 1995, Gaussian, Inc.),
 the Gaussian 92(TM) system (copyright 1992, Gaussian, Inc.),
 the Gaussian 90(TM) system (copyright 1990, Gaussian, Inc.),
 the Gaussian 88(TM) system (copyright 1988, Gaussian, Inc.),
 the Gaussian 86(TM) system (copyright 1986, Carnegie Mellon
 University), and the Gaussian 82(TM) system (copyright 1983,
 Carnegie Mellon University). Gaussian is a federally registered
 trademark of Gaussian, Inc.
  
 This software contains proprietary and confidential information,
 including trade secrets, belonging to Gaussian, Inc.
  
 This software is provided under written license and may be
 used, copied, transmitted, or stored only in accord with that
 written license.
  
 The following legend is applicable only to US Government
 contracts under FAR:
  
                    RESTRICTED RIGHTS LEGEND
  
 Use, reproduction and disclosure by the US Government is
 subject to restrictions as set forth in subparagraphs (a)
 and (c) of the Commercial Computer Software - Restricted
 Rights clause in FAR 52.227-19.
  
 Gaussian, Inc.
 340 Quinnipiac St., Bldg. 40, Wallingford CT 06492
  
  
 ---------------------------------------------------------------
 Warning -- This program may not be used in any manner that
 competes with the business of Gaussian, Inc. or will provide
 assistance to any competitor of Gaussian, Inc.  The licensee
 of this program is prohibited from giving any competitor of
 Gaussian, Inc. access to this program.  By using this program,
 the user acknowledges that Gaussian, Inc. is engaged in the
 business of creating and licensing software in the field of
 computational chemistry and represents and warrants to the
 licensee that it is not a competitor of Gaussian, Inc. and that
 it will not use this program in any manner prohibited above.
 ---------------------------------------------------------------
  

 Cite this work as:
 Gaussian 16, Revision C.01,
 M. J. Frisch, G. W. Trucks, H. B. Schlegel, G. E. Scuseria, 
 M. A. Robb, J. R. Cheeseman, G. Scalmani, V. Barone, 
 G. A. Petersson, H. Nakatsuji, X. Li, M. Caricato, A. V. Marenich, 
 J. Bloino, B. G. Janesko, R. Gomperts, B. Mennucci, H. P. Hratchian, 
 J. V. Ortiz, A. F. Izmaylov, J. L. Sonnenberg, D. Williams-Young, 
 F. Ding, F. Lipparini, F. Egidi, J. Goings, B. Peng, A. Petrone, 
 T. Henderson, D. Ranasinghe, V. G. Zakrzewski, J. Gao, N. Rega, 
 G. Zheng, W. Liang, M. Hada, M. Ehara, K. Toyota, R. Fukuda, 
 J. Hasegawa, M. Ishida, T. Nakajima, Y. Honda, O. Kitao, H. Nakai, 
 T. Vreven, K. Throssell, J. A. Montgomery, Jr., J. E. Peralta, 
 F. Ogliaro, M. J. Bearpark, J. J. Heyd, E. N. Brothers, K. N. Kudin, 
 V. N. Staroverov, T. A. Keith, R. Kobayashi, J. Normand, 
 K. Raghavachari, A. P. Rendell, J. C. Burant, S. S. Iyengar, 
 J. Tomasi, M. Cossi, J. M. Millam, M. Klene, C. Adamo, R. Cammi, 
 J. W. Ochterski, R. L. Martin, K. Morokuma, O. Farkas, 
 J. B. Foresman, and D. J. Fox, Gaussian, Inc., Wallingford CT, 2019.
 
 ******************************************
 Gaussian 16:  ES64L-G16RevC.01  3-Jul-2019
                24-May-2022 
 ******************************************
 %mem=8gb
 %nproc=4
 Will use up to    4 processors via shared memory.
 %chk=conf-841.chk
 ----------------------------------------------------------------------
 # B3LYP/6-31G* empiricaldispersion=gd3 guess=read geom=check nosymm in
 tegral(ultrafinegrid)
 ----------------------------------------------------------------------
 1/29=2,38=1,172=1/1;
 2/12=2,15=1,40=1/2;
 3/5=1,6=6,7=1,11=2,14=-4,25=1,30=1,74=-5,75=-5,116=-2,124=31/1,2,3;
 4/5=1/1;
 5/5=2,38=6/2;
 6/7=2,8=2,9=2,10=2,28=1/1;
 99/5=1,9=1/99;
 ------------------------------------------------------
 Candidate Structure: Conf:841 Charge calc in gas phase
 ------------------------------------------------------
 Structure from the checkpoint file:  "conf-841.chk"
 Charge =  1 Multiplicity = 1
 Redundant internal coordinates found in file.  (old form).
 N,0,9.2176250792,19.3434878283,14.4721214144
 C,0,10.5738755118,19.9052238579,14.4654268642
 C,0,10.9861835,20.0638266391,15.9403046887
 O,0,10.6967805166,21.0610842781,16.5790782712
 C,0,10.5602208717,21.287666164,13.8000160954
 C,0,10.4559078673,21.2231234926,12.2535255876
 C,0,11.7662592644,20.7994219261,11.6527782406
 O,0,12.087677605,19.6430208633,11.3726259018
 O,0,12.608974471,21.8202149386,11.4942509991
 H,0,13.4628148885,21.4853279611,11.1608065566
 H,0,11.3098692415,19.2688039406,13.9403805674
 H,0,11.4576123091,21.8505459396,14.0765182242
 H,0,9.7057852206,21.8396365819,14.197122639
 H,0,9.6845584543,20.5177372812,11.9318701283
 H,0,10.2025449523,22.2133446498,11.8653244293
 H,0,8.8739590587,19.17265224,13.5314788421
 H,0,9.1719732386,18.4688471759,14.990400773
 N,0,11.6460853064,19.0062827628,16.5191840452
 C,0,12.2862488419,17.8735729374,15.8752162346
 C,0,11.2660081305,16.8824310407,15.2848561246
 O,0,10.2394372654,16.5619639712,15.8655850744
 C,0,13.1278831198,17.1185716197,16.9298585417
 C,0,13.9503270088,15.9214553593,16.4149410806
 C,0,15.0248203491,16.337000426,15.3981593459
 C,0,14.5965595135,15.1966276736,17.6052085377
 H,0,11.8086667397,19.1329379058,17.5114547354
 H,0,12.9505847929,18.2307861849,15.0769575056
 H,0,12.4355319204,16.7757380579,17.7090735059
 H,0,13.8094597736,17.8451936781,17.3928446382
 H,0,13.2690900398,15.2113101634,15.9241556762
 H,0,15.7236173893,17.0548064408,15.845138026
 H,0,15.6032108173,15.4665328442,15.070525283
 H,0,14.6067618359,16.8051781997,14.497776709
 H,0,15.2887349144,15.8605740143,18.1377257813
 H,0,13.8412247467,14.8545427248,18.3211141813
 H,0,15.1649373338,14.3221520159,17.2702233353
 N,0,11.617023557,16.353185675,14.0666612153
 C,0,10.9807853312,15.1201670552,13.5987275445
 C,0,11.8625666122,14.4422832582,12.5599222574
 O,0,11.4604217356,13.7993046548,11.6093629107
 C,0,9.5252707902,15.2914754012,13.1275052528
 C,0,9.2313072568,16.4447312501,12.1608832336
 C,0,9.9186882772,16.3933528644,10.7934763949
 N,0,11.3030621518,16.9072177938,10.8831375165
 C,0,12.2963160825,16.6266162208,10.0309778364
 N,0,12.3441025361,15.4460641844,9.391574353
 N,0,13.2573668779,17.5407627682,9.8288891956
 O,0,13.178338698,14.5889789914,12.8281703909
 H,0,13.6751646434,14.0467263099,12.1862537724
 H,0,12.5610240765,16.5235558758,13.7474163001
 H,0,10.9530061914,14.4117811833,14.4435764581
 H,0,8.9289558748,15.4493493591,14.0288493586
 H,0,9.2092987447,14.3410859023,12.684636887
 H,0,8.1504404533,16.4525110388,11.980179573
 H,0,9.4651006491,17.3984842449,12.6489745035
 H,0,9.3767539808,17.0176941539,10.0723076737
 H,0,9.9294989945,15.3726278301,10.4124916835
 H,0,11.3836888629,17.8229421463,11.3297026678
 H,0,11.8757102601,14.6397371132,9.7951771241
 H,0,13.0290806057,15.2820528506,8.6682921457
 H,0,14.1435350715,17.2847514154,9.4186136819
 H,0,13.1468258651,18.4722173298,10.2267902637
 Recover connectivity data from disk.
                           ----------------------------
                           !    Current Parameters    !
                           ! (Angstroms and Degrees)  !
 --------------------------                            --------------------------
 ! Name  Definition              Value                                          !
 --------------------------------------------------------------------------------
 ! R1    R(1,2)                  1.468                                          !
 ! R2    R(1,16)                 1.0159                                         !
 ! R3    R(1,17)                 1.0177                                         !
 ! R4    R(2,3)                  1.5396                                         !
 ! R5    R(2,5)                  1.5343                                         !
 ! R6    R(2,11)                 1.1056                                         !
 ! R7    R(3,4)                  1.2191                                         !
 ! R8    R(3,18)                 1.3744                                         !
 ! R9    R(5,6)                  1.5513                                         !
 ! R10   R(5,12)                 1.0948                                         !
 ! R11   R(5,13)                 1.092                                          !
 ! R12   R(6,7)                  1.5025                                         !
 ! R13   R(6,14)                 1.0936                                         !
 ! R14   R(6,15)                 1.0934                                         !
 ! R15   R(7,8)                  1.2325                                         !
 ! R16   R(7,9)                  1.3332                                         !
 ! R17   R(9,10)                 0.9759                                         !
 ! R18   R(18,19)                1.4517                                         !
 ! R19   R(18,26)                1.0134                                         !
 ! R20   R(19,20)                1.5401                                         !
 ! R21   R(19,22)                1.5462                                         !
 ! R22   R(19,27)                1.0983                                         !
 ! R23   R(20,21)                1.2222                                         !
 ! R24   R(20,37)                1.3738                                         !
 ! R25   R(22,23)                1.541                                          !
 ! R26   R(22,28)                1.0973                                         !
 ! R27   R(22,29)                1.0986                                         !
 ! R28   R(23,24)                1.5366                                         !
 ! R29   R(23,25)                1.5361                                         !
 ! R30   R(23,30)                1.0997                                         !
 ! R31   R(24,31)                1.097                                          !
 ! R32   R(24,32)                1.0953                                         !
 ! R33   R(24,33)                1.0976                                         !
 ! R34   R(25,34)                1.097                                          !
 ! R35   R(25,35)                1.0955                                         !
 ! R36   R(25,36)                1.0954                                         !
 ! R37   R(37,38)                1.4643                                         !
 ! R38   R(37,50)                1.011                                          !
 ! R39   R(38,39)                1.5219                                         !
 ! R40   R(38,41)                1.5395                                         !
 ! R41   R(38,51)                1.1029                                         !
 ! R42   R(39,40)                1.216                                          !
 ! R43   R(39,48)                1.3508                                         !
 ! R44   R(41,42)                1.5332                                         !
 ! R45   R(41,52)                1.0922                                         !
 ! R46   R(41,53)                1.0951                                         !
 ! R47   R(42,43)                1.5313                                         !
 ! R48   R(42,54)                1.0959                                         !
 ! R49   R(42,55)                1.0966                                         !
 ! R50   R(43,44)                1.4794                                         !
 ! R51   R(43,56)                1.0971                                         !
 ! R52   R(43,57)                1.0896                                         !
 ! R53   R(44,45)                1.3385                                         !
 ! R54   R(44,58)                1.022                                          !
 ! R55   R(45,46)                1.3434                                         !
 ! R56   R(45,47)                1.3417                                         !
 ! R57   R(46,59)                1.0161                                         !
 ! R58   R(46,60)                1.0096                                         !
 ! R59   R(47,61)                1.0095                                         !
 ! R60   R(47,62)                1.0189                                         !
 ! R61   R(48,49)                0.9762                                         !
 ! A1    A(2,1,16)             111.8794                                         !
 ! A2    A(2,1,17)             111.8782                                         !
 ! A3    A(16,1,17)            108.17                                           !
 ! A4    A(1,2,3)              106.4074                                         !
 ! A5    A(1,2,5)              109.7877                                         !
 ! A6    A(1,2,11)             113.3854                                         !
 ! A7    A(3,2,5)              108.9666                                         !
 ! A8    A(3,2,11)             109.6302                                         !
 ! A9    A(5,2,11)             108.5794                                         !
 ! A10   A(2,3,4)              121.5079                                         !
 ! A11   A(2,3,18)             116.923                                          !
 ! A12   A(4,3,18)             121.5143                                         !
 ! A13   A(2,5,6)              113.2935                                         !
 ! A14   A(2,5,12)             110.2686                                         !
 ! A15   A(2,5,13)             107.7397                                         !
 ! A16   A(6,5,12)             109.164                                          !
 ! A17   A(6,5,13)             109.3255                                         !
 ! A18   A(12,5,13)            106.8365                                         !
 ! A19   A(5,6,7)              110.5899                                         !
 ! A20   A(5,6,14)             111.559                                          !
 ! A21   A(5,6,15)             109.3808                                         !
 ! A22   A(7,6,14)             108.3991                                         !
 ! A23   A(7,6,15)             108.393                                          !
 ! A24   A(14,6,15)            108.4385                                         !
 ! A25   A(6,7,8)              125.6556                                         !
 ! A26   A(6,7,9)              112.5137                                         !
 ! A27   A(8,7,9)              121.772                                          !
 ! A28   A(7,9,10)             109.3254                                         !
 ! A29   A(3,18,19)            128.7012                                         !
 ! A30   A(3,18,26)            113.1568                                         !
 ! A31   A(19,18,26)           117.4572                                         !
 ! A32   A(18,19,20)           112.3376                                         !
 ! A33   A(18,19,22)           108.5698                                         !
 ! A34   A(18,19,27)           109.5955                                         !
 ! A35   A(20,19,22)           107.9278                                         !
 ! A36   A(20,19,27)           109.3556                                         !
 ! A37   A(22,19,27)           108.9858                                         !
 ! A38   A(19,20,21)           122.8905                                         !
 ! A39   A(19,20,37)           114.7453                                         !
 ! A40   A(21,20,37)           122.339                                          !
 ! A41   A(19,22,23)           116.2274                                         !
 ! A42   A(19,22,28)           107.0666                                         !
 ! A43   A(19,22,29)           107.59                                           !
 ! A44   A(23,22,28)           109.3491                                         !
 ! A45   A(23,22,29)           108.8761                                         !
 ! A46   A(28,22,29)           107.3876                                         !
 ! A47   A(22,23,24)           112.5964                                         !
 ! A48   A(22,23,25)           109.4005                                         !
 ! A49   A(22,23,30)           108.6736                                         !
 ! A50   A(24,23,25)           110.2525                                         !
 ! A51   A(24,23,30)           108.2108                                         !
 ! A52   A(25,23,30)           107.5607                                         !
 ! A53   A(23,24,31)           110.658                                          !
 ! A54   A(23,24,32)           110.6276                                         !
 ! A55   A(23,24,33)           113.0692                                         !
 ! A56   A(31,24,32)           107.7905                                         !
 ! A57   A(31,24,33)           107.3244                                         !
 ! A58   A(32,24,33)           107.1432                                         !
 ! A59   A(23,25,34)           110.8533                                         !
 ! A60   A(23,25,35)           111.3244                                         !
 ! A61   A(23,25,36)           110.9776                                         !
 ! A62   A(34,25,35)           107.867                                          !
 ! A63   A(34,25,36)           107.7102                                         !
 ! A64   A(35,25,36)           107.9578                                         !
 ! A65   A(20,37,38)           119.7854                                         !
 ! A66   A(20,37,50)           116.9794                                         !
 ! A67   A(38,37,50)           116.5331                                         !
 ! A68   A(37,38,39)           109.9652                                         !
 ! A69   A(37,38,41)           114.5149                                         !
 ! A70   A(37,38,51)           107.879                                          !
 ! A71   A(39,38,41)           112.8572                                         !
 ! A72   A(39,38,51)           104.5588                                         !
 ! A73   A(41,38,51)           106.3881                                         !
 ! A74   A(38,39,40)           125.273                                          !
 ! A75   A(38,39,48)           112.3611                                         !
 ! A76   A(40,39,48)           122.3287                                         !
 ! A77   A(38,41,42)           117.2553                                         !
 ! A78   A(38,41,52)           106.241                                          !
 ! A79   A(38,41,53)           107.4587                                         !
 ! A80   A(42,41,52)           107.871                                          !
 ! A81   A(42,41,53)           110.0297                                         !
 ! A82   A(52,41,53)           107.557                                          !
 ! A83   A(41,42,43)           116.8507                                         !
 ! A84   A(41,42,54)           107.3613                                         !
 ! A85   A(41,42,55)           109.4333                                         !
 ! A86   A(43,42,54)           107.2009                                         !
 ! A87   A(43,42,55)           109.3254                                         !
 ! A88   A(54,42,55)           106.1106                                         !
 ! A89   A(42,43,44)           110.7493                                         !
 ! A90   A(42,43,56)           110.2526                                         !
 ! A91   A(42,43,57)           110.3727                                         !
 ! A92   A(44,43,56)           107.7232                                         !
 ! A93   A(44,43,57)           109.7132                                         !
 ! A94   A(56,43,57)           107.9499                                         !
 ! A95   A(43,44,45)           125.6633                                         !
 ! A96   A(43,44,58)           114.3015                                         !
 ! A97   A(45,44,58)           114.0478                                         !
 ! A98   A(44,45,46)           120.907                                          !
 ! A99   A(44,45,47)           118.9873                                         !
 ! A100  A(46,45,47)           120.1036                                         !
 ! A101  A(45,46,59)           119.4651                                         !
 ! A102  A(45,46,60)           120.5223                                         !
 ! A103  A(59,46,60)           117.9315                                         !
 ! A104  A(45,47,61)           121.1444                                         !
 ! A105  A(45,47,62)           119.0999                                         !
 ! A106  A(61,47,62)           119.063                                          !
 ! A107  A(39,48,49)           107.7482                                         !
 ! D1    D(16,1,2,3)          -177.9637                                         !
 ! D2    D(16,1,2,5)            64.2604                                         !
 ! D3    D(16,1,2,11)          -57.3741                                         !
 ! D4    D(17,1,2,3)           -56.4045                                         !
 ! D5    D(17,1,2,5)          -174.1804                                         !
 ! D6    D(17,1,2,11)           64.1851                                         !
 ! D7    D(1,2,3,4)            -86.0519                                         !
 ! D8    D(1,2,3,18)            91.2953                                         !
 ! D9    D(5,2,3,4)             32.266                                          !
 ! D10   D(5,2,3,18)          -150.3868                                         !
 ! D11   D(11,2,3,4)           150.9698                                         !
 ! D12   D(11,2,3,18)          -31.683                                          !
 ! D13   D(1,2,5,6)            -76.1172                                         !
 ! D14   D(1,2,5,12)           161.2                                            !
 ! D15   D(1,2,5,13)            44.9485                                         !
 ! D16   D(3,2,5,6)            167.7106                                         !
 ! D17   D(3,2,5,12)            45.0278                                         !
 ! D18   D(3,2,5,13)           -71.2237                                         !
 ! D19   D(11,2,5,6)            48.351                                          !
 ! D20   D(11,2,5,12)          -74.3318                                         !
 ! D21   D(11,2,5,13)          169.4167                                         !
 ! D22   D(2,3,18,19)           15.5594                                         !
 ! D23   D(2,3,18,26)         -174.2883                                         !
 ! D24   D(4,3,18,19)         -167.0936                                         !
 ! D25   D(4,3,18,26)            3.0587                                         !
 ! D26   D(2,5,6,7)            -74.6564                                         !
 ! D27   D(2,5,6,14)            46.0715                                         !
 ! D28   D(2,5,6,15)           166.0381                                         !
 ! D29   D(12,5,6,7)            48.6362                                         !
 ! D30   D(12,5,6,14)          169.3642                                         !
 ! D31   D(12,5,6,15)          -70.6693                                         !
 ! D32   D(13,5,6,7)           165.1762                                         !
 ! D33   D(13,5,6,14)          -74.0958                                         !
 ! D34   D(13,5,6,15)           45.8707                                         !
 ! D35   D(5,6,7,8)             93.248                                          !
 ! D36   D(5,6,7,9)            -83.9943                                         !
 ! D37   D(14,6,7,8)           -29.3433                                         !
 ! D38   D(14,6,7,9)           153.4144                                         !
 ! D39   D(15,6,7,8)          -146.8517                                         !
 ! D40   D(15,6,7,9)            35.906                                          !
 ! D41   D(6,7,9,10)           176.1014                                         !
 ! D42   D(8,7,9,10)            -1.263                                          !
 ! D43   D(3,18,19,20)         -72.0917                                         !
 ! D44   D(3,18,19,22)         168.6262                                         !
 ! D45   D(3,18,19,27)          49.6859                                         !
 ! D46   D(26,18,19,20)        118.1158                                         !
 ! D47   D(26,18,19,22)         -1.1663                                         !
 ! D48   D(26,18,19,27)       -120.1066                                         !
 ! D49   D(18,19,20,21)        -41.3619                                         !
 ! D50   D(18,19,20,37)        140.4274                                         !
 ! D51   D(22,19,20,21)         78.2948                                         !
 ! D52   D(22,19,20,37)        -99.9159                                         !
 ! D53   D(27,19,20,21)       -163.2761                                         !
 ! D54   D(27,19,20,37)         18.5132                                         !
 ! D55   D(18,19,22,23)       -176.7387                                         !
 ! D56   D(18,19,22,28)         60.7404                                         !
 ! D57   D(18,19,22,29)        -54.4267                                         !
 ! D58   D(20,19,22,23)         61.25                                           !
 ! D59   D(20,19,22,28)        -61.2709                                         !
 ! D60   D(20,19,22,29)       -176.4381                                         !
 ! D61   D(27,19,22,23)        -57.4154                                         !
 ! D62   D(27,19,22,28)       -179.9363                                         !
 ! D63   D(27,19,22,29)         64.8965                                         !
 ! D64   D(19,20,37,38)        160.7984                                         !
 ! D65   D(19,20,37,50)         10.462                                          !
 ! D66   D(21,20,37,38)        -17.4233                                         !
 ! D67   D(21,20,37,50)       -167.7598                                         !
 ! D68   D(19,22,23,24)         63.2643                                         !
 ! D69   D(19,22,23,25)       -173.7741                                         !
 ! D70   D(19,22,23,30)        -56.6013                                         !
 ! D71   D(28,22,23,24)       -175.4202                                         !
 ! D72   D(28,22,23,25)        -52.4586                                         !
 ! D73   D(28,22,23,30)         64.7142                                         !
 ! D74   D(29,22,23,24)        -58.3689                                         !
 ! D75   D(29,22,23,25)         64.5928                                         !
 ! D76   D(29,22,23,30)       -178.2345                                         !
 ! D77   D(22,23,24,31)         59.3764                                         !
 ! D78   D(22,23,24,32)        178.7712                                         !
 ! D79   D(22,23,24,33)        -61.0534                                         !
 ! D80   D(25,23,24,31)        -63.1073                                         !
 ! D81   D(25,23,24,32)         56.2875                                         !
 ! D82   D(25,23,24,33)        176.4629                                         !
 ! D83   D(30,23,24,31)        179.5093                                         !
 ! D84   D(30,23,24,32)        -61.0959                                         !
 ! D85   D(30,23,24,33)         59.0795                                         !
 ! D86   D(22,23,25,34)        -61.9961                                         !
 ! D87   D(22,23,25,35)         58.0799                                         !
 ! D88   D(22,23,25,36)        178.3546                                         !
 ! D89   D(24,23,25,34)         62.3472                                         !
 ! D90   D(24,23,25,35)       -177.5767                                         !
 ! D91   D(24,23,25,36)        -57.302                                          !
 ! D92   D(30,23,25,34)       -179.8677                                         !
 ! D93   D(30,23,25,35)        -59.7917                                         !
 ! D94   D(30,23,25,36)         60.4831                                         !
 ! D95   D(20,37,38,39)       -157.8034                                         !
 ! D96   D(20,37,38,41)         73.8884                                         !
 ! D97   D(20,37,38,51)        -44.3371                                         !
 ! D98   D(50,37,38,39)         -7.3391                                         !
 ! D99   D(50,37,38,41)       -135.6473                                         !
 ! D100  D(50,37,38,51)        106.1271                                         !
 ! D101  D(37,38,39,40)       -146.7298                                         !
 ! D102  D(37,38,39,48)         35.4556                                         !
 ! D103  D(41,38,39,40)        -17.5158                                         !
 ! D104  D(41,38,39,48)        164.6695                                         !
 ! D105  D(51,38,39,40)         97.6868                                         !
 ! D106  D(51,38,39,48)        -80.1278                                         !
 ! D107  D(37,38,41,42)         48.2466                                         !
 ! D108  D(37,38,41,52)        -72.3915                                         !
 ! D109  D(37,38,41,53)        172.7119                                         !
 ! D110  D(39,38,41,42)        -78.5873                                         !
 ! D111  D(39,38,41,52)        160.7746                                         !
 ! D112  D(39,38,41,53)         45.878                                          !
 ! D113  D(51,38,41,42)        167.3136                                         !
 ! D114  D(51,38,41,52)         46.6755                                         !
 ! D115  D(51,38,41,53)        -68.2211                                         !
 ! D116  D(38,39,48,49)        173.529                                          !
 ! D117  D(40,39,48,49)         -4.3596                                         !
 ! D118  D(38,41,42,43)         62.8721                                         !
 ! D119  D(38,41,42,54)       -176.7599                                         !
 ! D120  D(38,41,42,55)        -62.0135                                         !
 ! D121  D(52,41,42,43)       -177.3488                                         !
 ! D122  D(52,41,42,54)        -56.9807                                         !
 ! D123  D(52,41,42,55)         57.7657                                         !
 ! D124  D(53,41,42,43)        -60.2905                                         !
 ! D125  D(53,41,42,54)         60.0775                                         !
 ! D126  D(53,41,42,55)        174.8239                                         !
 ! D127  D(41,42,43,44)        -81.9821                                         !
 ! D128  D(41,42,43,56)        158.8894                                         !
 ! D129  D(41,42,43,57)         39.7174                                         !
 ! D130  D(54,42,43,44)        157.5648                                         !
 ! D131  D(54,42,43,56)         38.4363                                         !
 ! D132  D(54,42,43,57)        -80.7357                                         !
 ! D133  D(55,42,43,44)         42.9578                                         !
 ! D134  D(55,42,43,56)        -76.1707                                         !
 ! D135  D(55,42,43,57)        164.6573                                         !
 ! D136  D(42,43,44,45)        157.5373                                         !
 ! D137  D(42,43,44,58)        -51.4934                                         !
 ! D138  D(56,43,44,45)        -81.8196                                         !
 ! D139  D(56,43,44,58)         69.1496                                         !
 ! D140  D(57,43,44,45)         35.4511                                         !
 ! D141  D(57,43,44,58)       -173.5796                                         !
 ! D142  D(43,44,45,46)        -30.5602                                         !
 ! D143  D(43,44,45,47)        149.9717                                         !
 ! D144  D(58,44,45,46)        178.4074                                         !
 ! D145  D(58,44,45,47)         -1.0607                                         !
 ! D146  D(44,45,46,59)        -24.2202                                         !
 ! D147  D(44,45,46,60)        172.5175                                         !
 ! D148  D(47,45,46,59)        155.242                                          !
 ! D149  D(47,45,46,60)         -8.0204                                         !
 ! D150  D(44,45,47,61)        162.165                                          !
 ! D151  D(44,45,47,62)         -8.208                                          !
 ! D152  D(46,45,47,61)        -17.3075                                         !
 ! D153  D(46,45,47,62)        172.3196                                         !
 --------------------------------------------------------------------------------
 Symmetry turned off by external request.
 Stoichiometry    C17H33N6O6(1+)
 Framework group  C1[X(C17H33N6O6)]
 Deg. of freedom   180
 Full point group                 C1      NOp   1
                          Input orientation:                          
 ---------------------------------------------------------------------
 Center     Atomic      Atomic             Coordinates (Angstroms)
 Number     Number       Type             X           Y           Z
 ---------------------------------------------------------------------
      1          7           0        9.217625   19.343488   14.472121
      2          6           0       10.573876   19.905224   14.465427
      3          6           0       10.986183   20.063827   15.940305
      4          8           0       10.696781   21.061084   16.579078
      5          6           0       10.560221   21.287666   13.800016
      6          6           0       10.455908   21.223123   12.253526
      7          6           0       11.766259   20.799422   11.652778
      8          8           0       12.087678   19.643021   11.372626
      9          8           0       12.608974   21.820215   11.494251
     10          1           0       13.462815   21.485328   11.160807
     11          1           0       11.309869   19.268804   13.940381
     12          1           0       11.457612   21.850546   14.076518
     13          1           0        9.705785   21.839637   14.197123
     14          1           0        9.684558   20.517737   11.931870
     15          1           0       10.202545   22.213345   11.865324
     16          1           0        8.873959   19.172652   13.531479
     17          1           0        9.171973   18.468847   14.990401
     18          7           0       11.646085   19.006283   16.519184
     19          6           0       12.286249   17.873573   15.875216
     20          6           0       11.266008   16.882431   15.284856
     21          8           0       10.239437   16.561964   15.865585
     22          6           0       13.127883   17.118572   16.929859
     23          6           0       13.950327   15.921455   16.414941
     24          6           0       15.024820   16.337000   15.398159
     25          6           0       14.596560   15.196628   17.605209
     26          1           0       11.808667   19.132938   17.511455
     27          1           0       12.950585   18.230786   15.076958
     28          1           0       12.435532   16.775738   17.709074
     29          1           0       13.809460   17.845194   17.392845
     30          1           0       13.269090   15.211310   15.924156
     31          1           0       15.723617   17.054806   15.845138
     32          1           0       15.603211   15.466533   15.070525
     33          1           0       14.606762   16.805178   14.497777
     34          1           0       15.288735   15.860574   18.137726
     35          1           0       13.841225   14.854543   18.321114
     36          1           0       15.164937   14.322152   17.270223
     37          7           0       11.617024   16.353186   14.066661
     38          6           0       10.980785   15.120167   13.598728
     39          6           0       11.862567   14.442283   12.559922
     40          8           0       11.460422   13.799305   11.609363
     41          6           0        9.525271   15.291475   13.127505
     42          6           0        9.231307   16.444731   12.160883
     43          6           0        9.918688   16.393353   10.793476
     44          7           0       11.303062   16.907218   10.883138
     45          6           0       12.296316   16.626616   10.030978
     46          7           0       12.344103   15.446064    9.391574
     47          7           0       13.257367   17.540763    9.828889
     48          8           0       13.178339   14.588979   12.828170
     49          1           0       13.675165   14.046726   12.186254
     50          1           0       12.561024   16.523556   13.747416
     51          1           0       10.953006   14.411781   14.443576
     52          1           0        8.928956   15.449349   14.028849
     53          1           0        9.209299   14.341086   12.684637
     54          1           0        8.150440   16.452511   11.980180
     55          1           0        9.465101   17.398484   12.648975
     56          1           0        9.376754   17.017694   10.072308
     57          1           0        9.929499   15.372628   10.412492
     58          1           0       11.383689   17.822942   11.329703
     59          1           0       11.875710   14.639737    9.795177
     60          1           0       13.029081   15.282053    8.668292
     61          1           0       14.143535   17.284751    9.418614
     62          1           0       13.146826   18.472217   10.226790
 ---------------------------------------------------------------------
 Rotational constants (GHZ):           0.1632580           0.1513713           0.1059678
 Standard basis: 6-31G(d) (6D, 7F)
   501 basis functions,   944 primitive gaussians,   501 cartesian basis functions
   112 alpha electrons      112 beta electrons
       nuclear repulsion energy      3260.6736506729 Hartrees.
 NAtoms=   62 NActive=   62 NUniq=   62 SFac= 1.00D+00 NAtFMM=   60 NAOKFM=T Big=T
 Integral buffers will be    131072 words long.
 Raffenetti 2 integral format.
 Two-electron integral symmetry is turned off.
 Nuclear repulsion after empirical dispersion term =     3260.5859254372 Hartrees.
 One-electron integrals computed using PRISM.
 NBasis=   501 RedAO= T EigKep=  1.69D-03  NBF=   501
 NBsUse=   501 1.00D-06 EigRej= -1.00D+00 NBFU=   501
 Initial guess from the checkpoint file:  "conf-841.chk"
 B after Tr=     0.000000    0.000000    0.000000
         Rot=    1.000000    0.000000    0.000000    0.000000 Ang=   0.00 deg.
 Requested convergence on RMS density matrix=1.00D-08 within 128 cycles.
 Requested convergence on MAX density matrix=1.00D-06.
 Requested convergence on             energy=1.00D-06.
 No special actions if energy rises.
 SCF Done:  E(RB3LYP) =  -1447.49061883     A.U. after    2 cycles
            NFock=  2  Conv=0.84D-08     -V/T= 2.0093

 **********************************************************************

            Population analysis using the SCF Density.

 **********************************************************************

 Alpha  occ. eigenvalues --  -19.34092 -19.33270 -19.28900 -19.28394 -19.22757
 Alpha  occ. eigenvalues --  -19.19197 -14.52265 -14.52235 -14.51636 -14.47906
 Alpha  occ. eigenvalues --  -14.44391 -14.40629 -10.48715 -10.46483 -10.46275
 Alpha  occ. eigenvalues --  -10.39541 -10.36711 -10.36448 -10.35853 -10.33980
 Alpha  occ. eigenvalues --  -10.31678 -10.31450 -10.30950 -10.29915 -10.28842
 Alpha  occ. eigenvalues --  -10.28801 -10.28764 -10.27360 -10.25768  -1.25011
 Alpha  occ. eigenvalues --   -1.24618  -1.17174  -1.15864  -1.15359  -1.14890
 Alpha  occ. eigenvalues --   -1.11378  -1.06193  -1.05361  -1.04410  -1.01222
 Alpha  occ. eigenvalues --   -0.97920  -0.92409  -0.90720  -0.90324  -0.88275
 Alpha  occ. eigenvalues --   -0.83960  -0.82297  -0.81742  -0.79058  -0.77700
 Alpha  occ. eigenvalues --   -0.76147  -0.75891  -0.74896  -0.74083  -0.71811
 Alpha  occ. eigenvalues --   -0.71484  -0.70317  -0.68809  -0.67352  -0.66836
 Alpha  occ. eigenvalues --   -0.65782  -0.64807  -0.64429  -0.63121  -0.62747
 Alpha  occ. eigenvalues --   -0.62084  -0.61478  -0.60741  -0.60020  -0.59606
 Alpha  occ. eigenvalues --   -0.59049  -0.58630  -0.57705  -0.56942  -0.56508
 Alpha  occ. eigenvalues --   -0.56179  -0.55373  -0.54700  -0.54411  -0.53513
 Alpha  occ. eigenvalues --   -0.53044  -0.52637  -0.52401  -0.52232  -0.51734
 Alpha  occ. eigenvalues --   -0.50615  -0.49798  -0.49069  -0.47904  -0.47228
 Alpha  occ. eigenvalues --   -0.47123  -0.46775  -0.46604  -0.46470  -0.46278
 Alpha  occ. eigenvalues --   -0.45755  -0.45508  -0.45420  -0.45206  -0.44301
 Alpha  occ. eigenvalues --   -0.43674  -0.42518  -0.42173  -0.42042  -0.41873
 Alpha  occ. eigenvalues --   -0.41776  -0.40817  -0.37695  -0.36376  -0.33960
 Alpha  occ. eigenvalues --   -0.33116  -0.31855
 Alpha virt. eigenvalues --   -0.13974  -0.13428  -0.13043  -0.09518  -0.08225
 Alpha virt. eigenvalues --   -0.07080  -0.06345  -0.05803  -0.04364  -0.03568
 Alpha virt. eigenvalues --   -0.02197  -0.01490  -0.00221   0.00595   0.00717
 Alpha virt. eigenvalues --    0.01342   0.01419   0.02503   0.02838   0.03041
 Alpha virt. eigenvalues --    0.03130   0.04625   0.05007   0.05454   0.05652
 Alpha virt. eigenvalues --    0.06018   0.06294   0.06687   0.07373   0.07480
 Alpha virt. eigenvalues --    0.08157   0.08268   0.08958   0.09119   0.09346
 Alpha virt. eigenvalues --    0.09959   0.10042   0.10495   0.10876   0.10986
 Alpha virt. eigenvalues --    0.11618   0.11811   0.12612   0.12836   0.13089
 Alpha virt. eigenvalues --    0.14214   0.14463   0.14600   0.15614   0.16347
 Alpha virt. eigenvalues --    0.16884   0.17149   0.17462   0.18274   0.18745
 Alpha virt. eigenvalues --    0.19313   0.20322   0.20842   0.23175   0.24343
 Alpha virt. eigenvalues --    0.25487   0.27121   0.27913   0.28568   0.30363
 Alpha virt. eigenvalues --    0.32294   0.34587   0.35981   0.38465   0.38677
 Alpha virt. eigenvalues --    0.39607   0.39805   0.40844   0.41830   0.42235
 Alpha virt. eigenvalues --    0.42511   0.42833   0.42951   0.43568   0.44219
 Alpha virt. eigenvalues --    0.44575   0.45542   0.45979   0.47108   0.48320
 Alpha virt. eigenvalues --    0.48790   0.49150   0.49632   0.50482   0.50718
 Alpha virt. eigenvalues --    0.51136   0.52101   0.52472   0.52846   0.53109
 Alpha virt. eigenvalues --    0.53958   0.54705   0.55588   0.55896   0.56041
 Alpha virt. eigenvalues --    0.56427   0.57093   0.58427   0.59272   0.59779
 Alpha virt. eigenvalues --    0.60604   0.61095   0.61799   0.62292   0.62378
 Alpha virt. eigenvalues --    0.63375   0.63759   0.65114   0.65233   0.65466
 Alpha virt. eigenvalues --    0.66613   0.67910   0.68112   0.68747   0.69360
 Alpha virt. eigenvalues --    0.69556   0.70867   0.71347   0.71765   0.72870
 Alpha virt. eigenvalues --    0.73755   0.73874   0.74466   0.75092   0.75319
 Alpha virt. eigenvalues --    0.75763   0.76535   0.76900   0.77367   0.77873
 Alpha virt. eigenvalues --    0.78428   0.78953   0.79298   0.79671   0.79908
 Alpha virt. eigenvalues --    0.80326   0.80653   0.81340   0.82009   0.82485
 Alpha virt. eigenvalues --    0.82626   0.83136   0.83478   0.83751   0.83834
 Alpha virt. eigenvalues --    0.84532   0.84720   0.85406   0.85776   0.86846
 Alpha virt. eigenvalues --    0.87077   0.87393   0.88989   0.89130   0.89611
 Alpha virt. eigenvalues --    0.90573   0.90747   0.91311   0.91705   0.92847
 Alpha virt. eigenvalues --    0.93932   0.94698   0.95308   0.95951   0.96605
 Alpha virt. eigenvalues --    0.97491   0.98143   0.98909   0.99394   1.00611
 Alpha virt. eigenvalues --    1.02358   1.03357   1.04752   1.05143   1.06428
 Alpha virt. eigenvalues --    1.06888   1.08777   1.09977   1.10229   1.10939
 Alpha virt. eigenvalues --    1.11491   1.12460   1.13983   1.15067   1.16077
 Alpha virt. eigenvalues --    1.16968   1.18752   1.19660   1.19970   1.22235
 Alpha virt. eigenvalues --    1.23135   1.24252   1.26162   1.27319   1.27818
 Alpha virt. eigenvalues --    1.28274   1.29488   1.30949   1.31375   1.33796
 Alpha virt. eigenvalues --    1.34395   1.35311   1.37067   1.37211   1.37991
 Alpha virt. eigenvalues --    1.39589   1.40992   1.43234   1.43711   1.44593
 Alpha virt. eigenvalues --    1.47155   1.47635   1.49099   1.49353   1.51084
 Alpha virt. eigenvalues --    1.51561   1.52583   1.53724   1.54604   1.55779
 Alpha virt. eigenvalues --    1.57110   1.57783   1.58850   1.59184   1.59459
 Alpha virt. eigenvalues --    1.59996   1.60859   1.62292   1.63104   1.64739
 Alpha virt. eigenvalues --    1.65761   1.66093   1.66685   1.67572   1.68336
 Alpha virt. eigenvalues --    1.68438   1.69179   1.69835   1.70347   1.71041
 Alpha virt. eigenvalues --    1.72047   1.72376   1.72597   1.72846   1.73992
 Alpha virt. eigenvalues --    1.74602   1.76605   1.77465   1.78457   1.79385
 Alpha virt. eigenvalues --    1.79529   1.80635   1.81185   1.82170   1.82382
 Alpha virt. eigenvalues --    1.84059   1.84344   1.84923   1.86690   1.88197
 Alpha virt. eigenvalues --    1.88538   1.89075   1.89804   1.90721   1.90940
 Alpha virt. eigenvalues --    1.91801   1.92338   1.93147   1.94184   1.94597
 Alpha virt. eigenvalues --    1.95338   1.95855   1.96811   1.98029   1.99600
 Alpha virt. eigenvalues --    2.00273   2.01168   2.01225   2.01934   2.02684
 Alpha virt. eigenvalues --    2.03592   2.05488   2.06012   2.07764   2.08776
 Alpha virt. eigenvalues --    2.10045   2.11930   2.12677   2.14125   2.14238
 Alpha virt. eigenvalues --    2.15378   2.16445   2.17334   2.17995   2.18573
 Alpha virt. eigenvalues --    2.20536   2.21832   2.23010   2.23345   2.23736
 Alpha virt. eigenvalues --    2.25234   2.26133   2.27885   2.28758   2.29374
 Alpha virt. eigenvalues --    2.32049   2.32324   2.33170   2.33648   2.35132
 Alpha virt. eigenvalues --    2.36041   2.36889   2.37787   2.39911   2.41654
 Alpha virt. eigenvalues --    2.43188   2.43999   2.44359   2.45236   2.45528
 Alpha virt. eigenvalues --    2.47616   2.49293   2.50735   2.51500   2.52487
 Alpha virt. eigenvalues --    2.53828   2.54692   2.55355   2.56454   2.56987
 Alpha virt. eigenvalues --    2.58629   2.59520   2.61323   2.62182   2.63288
 Alpha virt. eigenvalues --    2.64301   2.65305   2.67140   2.70324   2.71396
 Alpha virt. eigenvalues --    2.73908   2.74797   2.76747   2.79186   2.85980
 Alpha virt. eigenvalues --    2.88922   2.90797   2.91561   2.92039   2.93533
 Alpha virt. eigenvalues --    2.95283   2.96447   2.99311   3.04304   3.08355
 Alpha virt. eigenvalues --    3.66118   3.71149   3.74871   3.75945   3.78203
 Alpha virt. eigenvalues --    3.84064   3.91559   3.98876   4.02561   4.05333
 Alpha virt. eigenvalues --    4.06714   4.07931   4.10951   4.13009   4.15586
 Alpha virt. eigenvalues --    4.16698   4.19274   4.21445   4.25055   4.31878
 Alpha virt. eigenvalues --    4.33519   4.37702   4.43286   4.47257   4.48208
 Alpha virt. eigenvalues --    4.49237   4.54430   4.62447   4.65882
          Condensed to atoms (all electrons):
 Mulliken charges:
               1
     1  N   -0.732038
     2  C   -0.065858
     3  C    0.616399
     4  O   -0.483009
     5  C   -0.278118
     6  C   -0.349814
     7  C    0.589152
     8  O   -0.519412
     9  O   -0.510146
    10  H    0.421681
    11  H    0.104622
    12  H    0.174046
    13  H    0.214032
    14  H    0.163671
    15  H    0.206219
    16  H    0.304223
    17  H    0.342567
    18  N   -0.611927
    19  C   -0.034650
    20  C    0.615091
    21  O   -0.508398
    22  C   -0.303983
    23  C   -0.094085
    24  C   -0.445171
    25  C   -0.446562
    26  H    0.346663
    27  H    0.141072
    28  H    0.179261
    29  H    0.160952
    30  H    0.129446
    31  H    0.160952
    32  H    0.156182
    33  H    0.109397
    34  H    0.155842
    35  H    0.160779
    36  H    0.154200
    37  N   -0.628117
    38  C   -0.016549
    39  C    0.592937
    40  O   -0.490976
    41  C   -0.283310
    42  C   -0.297995
    43  C   -0.159433
    44  N   -0.633519
    45  C    0.778052
    46  N   -0.766510
    47  N   -0.779323
    48  O   -0.563524
    49  H    0.426056
    50  H    0.355394
    51  H    0.216734
    52  H    0.202389
    53  H    0.175986
    54  H    0.180950
    55  H    0.139967
    56  H    0.186040
    57  H    0.193026
    58  H    0.398016
    59  H    0.411537
    60  H    0.372584
    61  H    0.367410
    62  H    0.398901
 Sum of Mulliken charges =   1.00000
 Mulliken charges with hydrogens summed into heavy atoms:
               1
     1  N   -0.085247
     2  C    0.038764
     3  C    0.616399
     4  O   -0.483009
     5  C    0.109959
     6  C    0.020076
     7  C    0.589152
     8  O   -0.519412
     9  O   -0.088466
    18  N   -0.265264
    19  C    0.106422
    20  C    0.615091
    21  O   -0.508398
    22  C    0.036230
    23  C    0.035361
    24  C   -0.018639
    25  C    0.024259
    37  N   -0.272723
    38  C    0.200185
    39  C    0.592937
    40  O   -0.490976
    41  C    0.095064
    42  C    0.022922
    43  C    0.219633
    44  N   -0.235503
    45  C    0.778052
    46  N    0.017611
    47  N   -0.013011
    48  O   -0.137469
 Electronic spatial extent (au):  <R**2>=         513122.9330
 Charge=              1.0000 electrons
 Dipole moment (field-independent basis, Debye):
    X=             63.4878    Y=             79.8521    Z=             51.2560  Tot=            114.1676
 Quadrupole moment (field-independent basis, Debye-Ang):
   XX=            679.7721   YY=           1172.4824   ZZ=            386.1086
   XY=           1061.4625   XZ=            696.8380   YZ=            833.6656
 Traceless Quadrupole moment (field-independent basis, Debye-Ang):
   XX=            -66.3490   YY=            426.3614   ZZ=           -360.0124
   XY=           1061.4625   XZ=            696.8380   YZ=            833.6656
 Octapole moment (field-independent basis, Debye-Ang**2):
  XXX=           5519.9625  YYY=          13884.4053  ZZZ=           -771.8364  XYY=          15993.5260
  XXY=          11286.6223  XXZ=           7198.2364  XZZ=           5937.4565  YZZ=           5729.9197
  YYZ=          11313.8317  XYZ=          11477.8132
 Hexadecapole moment (field-independent basis, Debye-Ang**3):
 XXXX=          14145.4954 YYYY=          73266.8644 ZZZZ=        -124035.5409 XXXY=          89340.5286
 XXXZ=          48717.4464 YYYX=         204540.4666 YYYZ=         101663.6701 ZZZX=          12732.8852
 ZZZY=         -30823.2914 XXYY=         166199.8649 XXZZ=          55427.9087 YYZZ=          49496.8618
 XXYZ=         117444.2946 YYXZ=         163566.8626 ZZXY=          92738.7992
 N-N= 3.260585925437D+03 E-N=-9.869691879535D+03  KE= 1.434092220760D+03
 Unable to Open any file for archive entry.
 1\1\GINC-SKL-138\SP\RB3LYP\6-31G(d)\C17H33N6O6(1+)\KENGMITH\24-May-202
 2\0\\# B3LYP/6-31G* empiricaldispersion=gd3 guess=read geom=check nosy
 mm integral(ultrafinegrid)\\Candidate Structure: Conf:841 Charge calc 
 in gas phase\\1,1\N,0,9.2176250792,19.3434878283,14.4721214144\C,0,10.
 5738755118,19.9052238579,14.4654268642\C,0,10.9861835,20.0638266391,15
 .9403046887\O,0,10.6967805166,21.0610842781,16.5790782712\C,0,10.56022
 08717,21.287666164,13.8000160954\C,0,10.4559078673,21.2231234926,12.25
 35255876\C,0,11.7662592644,20.7994219261,11.6527782406\O,0,12.08767760
 5,19.6430208633,11.3726259018\O,0,12.608974471,21.8202149386,11.494250
 9991\H,0,13.4628148885,21.4853279611,11.1608065566\H,0,11.3098692415,1
 9.2688039406,13.9403805674\H,0,11.4576123091,21.8505459396,14.07651822
 42\H,0,9.7057852206,21.8396365819,14.197122639\H,0,9.6845584543,20.517
 7372812,11.9318701283\H,0,10.2025449523,22.2133446498,11.8653244293\H,
 0,8.8739590587,19.17265224,13.5314788421\H,0,9.1719732386,18.468847175
 9,14.990400773\N,0,11.6460853064,19.0062827628,16.5191840452\C,0,12.28
 62488419,17.8735729374,15.8752162346\C,0,11.2660081305,16.8824310407,1
 5.2848561246\O,0,10.2394372654,16.5619639712,15.8655850744\C,0,13.1278
 831198,17.1185716197,16.9298585417\C,0,13.9503270088,15.9214553593,16.
 4149410806\C,0,15.0248203491,16.337000426,15.3981593459\C,0,14.5965595
 135,15.1966276736,17.6052085377\H,0,11.8086667397,19.1329379058,17.511
 4547354\H,0,12.9505847929,18.2307861849,15.0769575056\H,0,12.435531920
 4,16.7757380579,17.7090735059\H,0,13.8094597736,17.8451936781,17.39284
 46382\H,0,13.2690900398,15.2113101634,15.9241556762\H,0,15.7236173893,
 17.0548064408,15.845138026\H,0,15.6032108173,15.4665328442,15.07052528
 3\H,0,14.6067618359,16.8051781997,14.497776709\H,0,15.2887349144,15.86
 05740143,18.1377257813\H,0,13.8412247467,14.8545427248,18.3211141813\H
 ,0,15.1649373338,14.3221520159,17.2702233353\N,0,11.617023557,16.35318
 5675,14.0666612153\C,0,10.9807853312,15.1201670552,13.5987275445\C,0,1
 1.8625666122,14.4422832582,12.5599222574\O,0,11.4604217356,13.79930465
 48,11.6093629107\C,0,9.5252707902,15.2914754012,13.1275052528\C,0,9.23
 13072568,16.4447312501,12.1608832336\C,0,9.9186882772,16.3933528644,10
 .7934763949\N,0,11.3030621518,16.9072177938,10.8831375165\C,0,12.29631
 60825,16.6266162208,10.0309778364\N,0,12.3441025361,15.4460641844,9.39
 1574353\N,0,13.2573668779,17.5407627682,9.8288891956\O,0,13.178338698,
 14.5889789914,12.8281703909\H,0,13.6751646434,14.0467263099,12.1862537
 724\H,0,12.5610240765,16.5235558758,13.7474163001\H,0,10.9530061914,14
 .4117811833,14.4435764581\H,0,8.9289558748,15.4493493591,14.0288493586
 \H,0,9.2092987447,14.3410859023,12.684636887\H,0,8.1504404533,16.45251
 10388,11.980179573\H,0,9.4651006491,17.3984842449,12.6489745035\H,0,9.
 3767539808,17.0176941539,10.0723076737\H,0,9.9294989945,15.3726278301,
 10.4124916835\H,0,11.3836888629,17.8229421463,11.3297026678\H,0,11.875
 7102601,14.6397371132,9.7951771241\H,0,13.0290806057,15.2820528506,8.6
 682921457\H,0,14.1435350715,17.2847514154,9.4186136819\H,0,13.14682586
 51,18.4722173298,10.2267902637\\Version=ES64L-G16RevC.01\HF=-1447.4906
 188\RMSD=8.412e-09\Dipole=2.8680317,-1.7122015,-5.3797929\Quadrupole=-
 49.3288235,316.9892175,-267.660394,789.1713893,518.0819794,619.80994\P
 G=C01 [X(C17H33N6O6)]\\@
 The archive entry for this job was punched.


 ... THIS SEEMS PLAINLY ABSURD; BUT WHOEVER WISHES TO BECOME A 
 PHILOSOPHER MUST LEARN NOT TO BE FRIGHTENED BY ABSURDITIES.

                          -- BERTRAND RUSSELL
 Job cpu time:       0 days  0 hours  1 minutes 56.0 seconds.
 Elapsed time:       0 days  0 hours  0 minutes 29.5 seconds.
 File lengths (MBytes):  RWF=    248 Int=      0 D2E=      0 Chk=     32 Scr=     16
 Normal termination of Gaussian 16 at Tue May 24 03:34:22 2022.
