 Entering Gaussian System, Link 0=/opt/software/Gaussian/g16-AVX2-C.01/g16/g16
 Input=charge-conf-197.com
 Output=charge-conf-197.log
 Initial command:
 /opt/software/Gaussian/g16-AVX2-C.01/g16/l1.exe "/mnt/gs18/scratch/users/kengmith/Gau-49031.inp" -scrdir="/mnt/gs18/scratch/users/kengmith/"
 Entering Link 1 = /opt/software/Gaussian/g16-AVX2-C.01/g16/l1.exe PID=     49044.
  
 Copyright (c) 1988-2019, Gaussian, Inc.  All Rights Reserved.
  
 This is part of the Gaussian(R) 16 program.  It is based on
 the Gaussian(R) 09 system (copyright 2009, Gaussian, Inc.),
 the Gaussian(R) 03 system (copyright 2003, Gaussian, Inc.),
 the Gaussian(R) 98 system (copyright 1998, Gaussian, Inc.),
 the Gaussian(R) 94 system (copyright 1995, Gaussian, Inc.),
 the Gaussian 92(TM) system (copyright 1992, Gaussian, Inc.),
 the Gaussian 90(TM) system (copyright 1990, Gaussian, Inc.),
 the Gaussian 88(TM) system (copyright 1988, Gaussian, Inc.),
 the Gaussian 86(TM) system (copyright 1986, Carnegie Mellon
 University), and the Gaussian 82(TM) system (copyright 1983,
 Carnegie Mellon University). Gaussian is a federally registered
 trademark of Gaussian, Inc.
  
 This software contains proprietary and confidential information,
 including trade secrets, belonging to Gaussian, Inc.
  
 This software is provided under written license and may be
 used, copied, transmitted, or stored only in accord with that
 written license.
  
 The following legend is applicable only to US Government
 contracts under FAR:
  
                    RESTRICTED RIGHTS LEGEND
  
 Use, reproduction and disclosure by the US Government is
 subject to restrictions as set forth in subparagraphs (a)
 and (c) of the Commercial Computer Software - Restricted
 Rights clause in FAR 52.227-19.
  
 Gaussian, Inc.
 340 Quinnipiac St., Bldg. 40, Wallingford CT 06492
  
  
 ---------------------------------------------------------------
 Warning -- This program may not be used in any manner that
 competes with the business of Gaussian, Inc. or will provide
 assistance to any competitor of Gaussian, Inc.  The licensee
 of this program is prohibited from giving any competitor of
 Gaussian, Inc. access to this program.  By using this program,
 the user acknowledges that Gaussian, Inc. is engaged in the
 business of creating and licensing software in the field of
 computational chemistry and represents and warrants to the
 licensee that it is not a competitor of Gaussian, Inc. and that
 it will not use this program in any manner prohibited above.
 ---------------------------------------------------------------
  

 Cite this work as:
 Gaussian 16, Revision C.01,
 M. J. Frisch, G. W. Trucks, H. B. Schlegel, G. E. Scuseria, 
 M. A. Robb, J. R. Cheeseman, G. Scalmani, V. Barone, 
 G. A. Petersson, H. Nakatsuji, X. Li, M. Caricato, A. V. Marenich, 
 J. Bloino, B. G. Janesko, R. Gomperts, B. Mennucci, H. P. Hratchian, 
 J. V. Ortiz, A. F. Izmaylov, J. L. Sonnenberg, D. Williams-Young, 
 F. Ding, F. Lipparini, F. Egidi, J. Goings, B. Peng, A. Petrone, 
 T. Henderson, D. Ranasinghe, V. G. Zakrzewski, J. Gao, N. Rega, 
 G. Zheng, W. Liang, M. Hada, M. Ehara, K. Toyota, R. Fukuda, 
 J. Hasegawa, M. Ishida, T. Nakajima, Y. Honda, O. Kitao, H. Nakai, 
 T. Vreven, K. Throssell, J. A. Montgomery, Jr., J. E. Peralta, 
 F. Ogliaro, M. J. Bearpark, J. J. Heyd, E. N. Brothers, K. N. Kudin, 
 V. N. Staroverov, T. A. Keith, R. Kobayashi, J. Normand, 
 K. Raghavachari, A. P. Rendell, J. C. Burant, S. S. Iyengar, 
 J. Tomasi, M. Cossi, J. M. Millam, M. Klene, C. Adamo, R. Cammi, 
 J. W. Ochterski, R. L. Martin, K. Morokuma, O. Farkas, 
 J. B. Foresman, and D. J. Fox, Gaussian, Inc., Wallingford CT, 2019.
 
 ******************************************
 Gaussian 16:  ES64L-G16RevC.01  3-Jul-2019
                24-May-2022 
 ******************************************
 %mem=8gb
 %nproc=4
 Will use up to    4 processors via shared memory.
 %chk=conf-197.chk
 ----------------------------------------------------------------------
 # B3LYP/6-31G* empiricaldispersion=gd3 guess=read geom=check nosymm in
 tegral(ultrafinegrid)
 ----------------------------------------------------------------------
 1/29=2,38=1,172=1/1;
 2/12=2,15=1,40=1/2;
 3/5=1,6=6,7=1,11=2,14=-4,25=1,30=1,74=-5,75=-5,116=-2,124=31/1,2,3;
 4/5=1/1;
 5/5=2,38=6/2;
 6/7=2,8=2,9=2,10=2,28=1/1;
 99/5=1,9=1/99;
 ------------------------------------------------------
 Candidate Structure: Conf:197 Charge calc in gas phase
 ------------------------------------------------------
 Structure from the checkpoint file:  "conf-197.chk"
 Charge =  1 Multiplicity = 1
 Redundant internal coordinates found in file.  (old form).
 N,0,12.0831777519,20.2170180376,12.2196407957
 C,0,12.8102416769,19.6235132673,13.3541294103
 C,0,12.2924017767,20.1940419425,14.6876800186
 O,0,12.6645743451,21.2900018183,15.0832337011
 C,0,14.310659816,19.8920904559,13.1955814456
 C,0,15.1767771862,19.0031160492,14.0981749427
 C,0,15.1440293395,17.5521141722,13.6530009475
 O,0,15.1470412196,17.2057995335,12.4848889191
 O,0,15.1079540075,16.5946433684,14.6052845296
 H,0,15.1447982886,16.9861012496,15.4949472999
 H,0,12.6445073192,18.5411210682,13.3139296646
 H,0,14.5024994926,20.9410107733,13.4387487063
 H,0,14.5857849962,19.7187967753,12.1513966949
 H,0,16.224539344,19.325995918,14.041944583
 H,0,14.8715979336,19.1016190968,15.1473775531
 H,0,11.0833160489,20.2249367938,12.4285862136
 H,0,12.3579797189,21.1967663774,12.1384299496
 N,0,11.3680770913,19.4633320418,15.3999217143
 C,0,10.7363018473,18.2037465467,15.06635403
 C,0,9.7090166629,18.3461263456,13.9122369264
 O,0,9.389587335,19.4258719104,13.4303071925
 C,0,10.1070677494,17.5858952634,16.3323967255
 C,0,11.1063551653,17.3052584536,17.4727362416
 C,0,10.3596736729,16.7277595853,18.6836569733
 C,0,12.2384155418,16.3656044445,17.0320090174
 H,0,10.9439353443,20.0018045509,16.1480712615
 H,0,11.5064448611,17.510992083,14.7050641373
 H,0,9.6074989949,16.646470279,16.0613463511
 H,0,9.3141110016,18.2571200171,16.6892907523
 H,0,11.558663359,18.2595525797,17.7731950236
 H,0,9.5615460613,17.3997018631,19.0184613951
 H,0,9.9033432556,15.7599018906,18.4392516923
 H,0,11.0414492491,16.5716121713,19.5263084112
 H,0,12.8528664073,16.7997430069,16.2331882478
 H,0,12.9012503546,16.1397708042,17.8743174137
 H,0,11.837391117,15.41143234,16.6639506114
 N,0,9.2549702687,17.158011043,13.4202071541
 C,0,8.4389071892,17.0425460027,12.2137203118
 C,0,8.1468395544,15.5676130212,12.0133144829
 O,0,8.9176750215,14.6722830779,12.3337920058
 C,0,9.100448651,17.5850497912,10.9052992051
 C,0,10.3538151138,16.8381832596,10.4081579957
 C,0,11.5611455947,17.1044177833,11.3178864331
 N,0,12.7179230708,16.2224432683,11.1152359699
 C,0,12.8982594734,15.0796829757,11.7876231623
 N,0,11.8571416021,14.4254309159,12.3227700436
 N,0,14.1497242344,14.6001849413,11.9155766965
 O,0,6.9969400116,15.3574807029,11.3793590403
 H,0,6.9003085985,14.3981751771,11.2165709046
 H,0,9.5677844464,16.2900948894,13.8360349047
 H,0,7.5003124088,17.5858980701,12.3560278589
 H,0,9.3281246224,18.6398521203,11.0811644375
 H,0,8.3281788866,17.5498303145,10.1296967273
 H,0,10.1577840099,15.7621958649,10.3273716617
 H,0,10.5855062315,17.1760319286,9.3921744993
 H,0,11.2656148067,16.9976993425,12.3593473137
 H,0,11.9039315103,18.135727891,11.1871517325
 H,0,13.564449155,16.6488820291,10.7587185149
 H,0,10.8819785981,14.6335293826,12.1134783323
 H,0,12.0199713656,13.6146418123,12.9019537773
 H,0,14.2977878705,13.7027648797,12.3555921211
 H,0,14.8811997411,15.3027623104,12.0460441992
 Recover connectivity data from disk.
                           ----------------------------
                           !    Current Parameters    !
                           ! (Angstroms and Degrees)  !
 --------------------------                            --------------------------
 ! Name  Definition              Value                                          !
 --------------------------------------------------------------------------------
 ! R1    R(1,2)                  1.4724                                         !
 ! R2    R(1,16)                 1.0215                                         !
 ! R3    R(1,17)                 1.0208                                         !
 ! R4    R(2,3)                  1.5401                                         !
 ! R5    R(2,5)                  1.5325                                         !
 ! R6    R(2,11)                 1.0957                                         !
 ! R7    R(3,4)                  1.2232                                         !
 ! R8    R(3,18)                 1.3768                                         !
 ! R9    R(5,6)                  1.5346                                         !
 ! R10   R(5,12)                 1.0937                                         !
 ! R11   R(5,13)                 1.0936                                         !
 ! R12   R(6,7)                  1.5181                                         !
 ! R13   R(6,14)                 1.0978                                         !
 ! R14   R(6,15)                 1.0971                                         !
 ! R15   R(7,8)                  1.2184                                         !
 ! R16   R(7,9)                  1.3509                                         !
 ! R17   R(9,10)                 0.9727                                         !
 ! R18   R(18,19)                1.4481                                         !
 ! R19   R(18,26)                1.0147                                         !
 ! R20   R(19,20)                1.5516                                         !
 ! R21   R(19,22)                1.5429                                         !
 ! R22   R(19,27)                1.0971                                         !
 ! R23   R(20,21)                1.2248                                         !
 ! R24   R(20,37)                1.3638                                         !
 ! R25   R(22,23)                1.542                                          !
 ! R26   R(22,28)                1.098                                          !
 ! R27   R(22,29)                1.0985                                         !
 ! R28   R(23,24)                1.5354                                         !
 ! R29   R(23,25)                1.5358                                         !
 ! R30   R(23,30)                1.098                                          !
 ! R31   R(24,31)                1.0957                                         !
 ! R32   R(24,32)                1.0976                                         !
 ! R33   R(24,33)                1.0951                                         !
 ! R34   R(25,34)                1.0973                                         !
 ! R35   R(25,35)                1.0954                                         !
 ! R36   R(25,36)                1.0985                                         !
 ! R37   R(37,38)                1.4611                                         !
 ! R38   R(37,50)                1.012                                          !
 ! R39   R(38,39)                1.5169                                         !
 ! R40   R(38,41)                1.5633                                         !
 ! R41   R(38,51)                1.0938                                         !
 ! R42   R(39,40)                1.2241                                         !
 ! R43   R(39,48)                1.3298                                         !
 ! R44   R(41,42)                1.5414                                         !
 ! R45   R(41,52)                1.0933                                         !
 ! R46   R(41,53)                1.0951                                         !
 ! R47   R(42,43)                1.535                                          !
 ! R48   R(42,54)                1.0967                                         !
 ! R49   R(42,55)                1.0955                                         !
 ! R50   R(43,44)                1.4687                                         !
 ! R51   R(43,56)                1.0878                                         !
 ! R52   R(43,57)                1.0946                                         !
 ! R53   R(44,45)                1.3381                                         !
 ! R54   R(44,58)                1.0127                                         !
 ! R55   R(45,46)                1.341                                          !
 ! R56   R(45,47)                1.3463                                         !
 ! R57   R(46,59)                1.0188                                         !
 ! R58   R(46,60)                1.0096                                         !
 ! R59   R(47,61)                1.0104                                         !
 ! R60   R(47,62)                1.0226                                         !
 ! R61   R(48,49)                0.9778                                         !
 ! A1    A(2,1,16)             109.1996                                         !
 ! A2    A(2,1,17)             108.3758                                         !
 ! A3    A(16,1,17)            105.8034                                         !
 ! A4    A(1,2,3)              110.5978                                         !
 ! A5    A(1,2,5)              109.4574                                         !
 ! A6    A(1,2,11)             107.1708                                         !
 ! A7    A(3,2,5)              110.7231                                         !
 ! A8    A(3,2,11)             110.294                                          !
 ! A9    A(5,2,11)             108.5065                                         !
 ! A10   A(2,3,4)              120.6388                                         !
 ! A11   A(2,3,18)             118.4929                                         !
 ! A12   A(4,3,18)             120.8318                                         !
 ! A13   A(2,5,6)              112.9669                                         !
 ! A14   A(2,5,12)             108.4703                                         !
 ! A15   A(2,5,13)             108.5005                                         !
 ! A16   A(6,5,12)             109.0139                                         !
 ! A17   A(6,5,13)             109.1342                                         !
 ! A18   A(12,5,13)            108.6704                                         !
 ! A19   A(5,6,7)              111.6553                                         !
 ! A20   A(5,6,14)             109.7641                                         !
 ! A21   A(5,6,15)             110.6992                                         !
 ! A22   A(7,6,14)             106.659                                          !
 ! A23   A(7,6,15)             111.1156                                         !
 ! A24   A(14,6,15)            106.7417                                         !
 ! A25   A(6,7,8)              123.5573                                         !
 ! A26   A(6,7,9)              118.1188                                         !
 ! A27   A(8,7,9)              118.3238                                         !
 ! A28   A(7,9,10)             111.0087                                         !
 ! A29   A(3,18,19)            129.4479                                         !
 ! A30   A(3,18,26)            112.3591                                         !
 ! A31   A(19,18,26)           116.6844                                         !
 ! A32   A(18,19,20)           112.3564                                         !
 ! A33   A(18,19,22)           109.7082                                         !
 ! A34   A(18,19,27)           108.5933                                         !
 ! A35   A(20,19,22)           112.1527                                         !
 ! A36   A(20,19,27)           106.1267                                         !
 ! A37   A(22,19,27)           107.6774                                         !
 ! A38   A(19,20,21)           123.1088                                         !
 ! A39   A(19,20,37)           114.1319                                         !
 ! A40   A(21,20,37)           122.6312                                         !
 ! A41   A(19,22,23)           114.5455                                         !
 ! A42   A(19,22,28)           109.0026                                         !
 ! A43   A(19,22,29)           108.4391                                         !
 ! A44   A(23,22,28)           108.766                                          !
 ! A45   A(23,22,29)           109.8002                                         !
 ! A46   A(28,22,29)           105.9363                                         !
 ! A47   A(22,23,24)           109.6666                                         !
 ! A48   A(22,23,25)           112.1365                                         !
 ! A49   A(22,23,30)           108.1289                                         !
 ! A50   A(24,23,25)           110.773                                          !
 ! A51   A(24,23,30)           108.1453                                         !
 ! A52   A(25,23,30)           107.857                                          !
 ! A53   A(23,24,31)           111.3808                                         !
 ! A54   A(23,24,32)           110.9922                                         !
 ! A55   A(23,24,33)           110.961                                          !
 ! A56   A(31,24,32)           107.8157                                         !
 ! A57   A(31,24,33)           107.8064                                         !
 ! A58   A(32,24,33)           107.7246                                         !
 ! A59   A(23,25,34)           112.308                                          !
 ! A60   A(23,25,35)           110.5798                                         !
 ! A61   A(23,25,36)           111.0077                                         !
 ! A62   A(34,25,35)           107.6086                                         !
 ! A63   A(34,25,36)           107.7074                                         !
 ! A64   A(35,25,36)           107.4259                                         !
 ! A65   A(20,37,38)           123.5527                                         !
 ! A66   A(20,37,50)           119.7376                                         !
 ! A67   A(38,37,50)           116.3705                                         !
 ! A68   A(37,38,39)           107.066                                          !
 ! A69   A(37,38,41)           115.298                                          !
 ! A70   A(37,38,51)           109.425                                          !
 ! A71   A(39,38,41)           107.9588                                         !
 ! A72   A(39,38,51)           109.5714                                         !
 ! A73   A(41,38,51)           107.435                                          !
 ! A74   A(38,39,40)           123.7343                                         !
 ! A75   A(38,39,48)           112.5281                                         !
 ! A76   A(40,39,48)           123.6247                                         !
 ! A77   A(38,41,42)           116.4804                                         !
 ! A78   A(38,41,52)           106.7556                                         !
 ! A79   A(38,41,53)           106.4512                                         !
 ! A80   A(42,41,52)           110.4883                                         !
 ! A81   A(42,41,53)           109.2338                                         !
 ! A82   A(52,41,53)           106.9663                                         !
 ! A83   A(41,42,43)           111.3695                                         !
 ! A84   A(41,42,54)           110.7205                                         !
 ! A85   A(41,42,55)           108.764                                          !
 ! A86   A(43,42,54)           110.7584                                         !
 ! A87   A(43,42,55)           109.2578                                         !
 ! A88   A(54,42,55)           105.7877                                         !
 ! A89   A(42,43,44)           115.6943                                         !
 ! A90   A(42,43,56)           109.6765                                         !
 ! A91   A(42,43,57)           109.8124                                         !
 ! A92   A(44,43,56)           106.688                                          !
 ! A93   A(44,43,57)           107.6171                                         !
 ! A94   A(56,43,57)           106.9685                                         !
 ! A95   A(43,44,45)           123.3437                                         !
 ! A96   A(43,44,58)           117.006                                          !
 ! A97   A(45,44,58)           115.0787                                         !
 ! A98   A(44,45,46)           120.8334                                         !
 ! A99   A(44,45,47)           118.5032                                         !
 ! A100  A(46,45,47)           120.6633                                         !
 ! A101  A(45,46,59)           124.156                                          !
 ! A102  A(45,46,60)           119.7031                                         !
 ! A103  A(59,46,60)           115.8634                                         !
 ! A104  A(45,47,61)           119.6007                                         !
 ! A105  A(45,47,62)           115.6174                                         !
 ! A106  A(61,47,62)           116.734                                          !
 ! A107  A(39,48,49)           108.6542                                         !
 ! D1    D(16,1,2,3)           -45.0273                                         !
 ! D2    D(16,1,2,5)          -167.2823                                         !
 ! D3    D(16,1,2,11)           75.2335                                         !
 ! D4    D(17,1,2,3)            69.7788                                         !
 ! D5    D(17,1,2,5)           -52.4762                                         !
 ! D6    D(17,1,2,11)         -169.9604                                         !
 ! D7    D(1,2,3,4)            -79.9145                                         !
 ! D8    D(1,2,3,18)            97.9076                                         !
 ! D9    D(5,2,3,4)             41.5962                                         !
 ! D10   D(5,2,3,18)          -140.5817                                         !
 ! D11   D(11,2,3,4)           161.7109                                         !
 ! D12   D(11,2,3,18)          -20.467                                          !
 ! D13   D(1,2,5,6)           -164.2089                                         !
 ! D14   D(1,2,5,12)            74.8191                                         !
 ! D15   D(1,2,5,13)           -43.0639                                         !
 ! D16   D(3,2,5,6)             73.611                                          !
 ! D17   D(3,2,5,12)           -47.3609                                         !
 ! D18   D(3,2,5,13)          -165.2439                                         !
 ! D19   D(11,2,5,6)           -47.5661                                         !
 ! D20   D(11,2,5,12)         -168.5381                                         !
 ! D21   D(11,2,5,13)           73.5789                                         !
 ! D22   D(2,3,18,19)           -2.3772                                         !
 ! D23   D(2,3,18,26)         -167.6798                                         !
 ! D24   D(4,3,18,19)          175.4405                                         !
 ! D25   D(4,3,18,26)           10.138                                          !
 ! D26   D(2,5,6,7)             69.3145                                         !
 ! D27   D(2,5,6,14)          -172.6241                                         !
 ! D28   D(2,5,6,15)           -55.0447                                         !
 ! D29   D(12,5,6,7)          -170.0227                                         !
 ! D30   D(12,5,6,14)          -51.9614                                         !
 ! D31   D(12,5,6,15)           65.6181                                         !
 ! D32   D(13,5,6,7)           -51.4706                                         !
 ! D33   D(13,5,6,14)           66.5907                                         !
 ! D34   D(13,5,6,15)         -175.8298                                         !
 ! D35   D(5,6,7,8)             39.0108                                         !
 ! D36   D(5,6,7,9)           -140.9046                                         !
 ! D37   D(14,6,7,8)           -80.8951                                         !
 ! D38   D(14,6,7,9)            99.1895                                         !
 ! D39   D(15,6,7,8)           163.1363                                         !
 ! D40   D(15,6,7,9)           -16.7791                                         !
 ! D41   D(6,7,9,10)            -2.3308                                         !
 ! D42   D(8,7,9,10)           177.7493                                         !
 ! D43   D(3,18,19,20)         -71.1552                                         !
 ! D44   D(3,18,19,22)         163.3647                                         !
 ! D45   D(3,18,19,27)          45.9247                                         !
 ! D46   D(26,18,19,20)         93.6198                                         !
 ! D47   D(26,18,19,22)        -31.8602                                         !
 ! D48   D(26,18,19,27)       -149.3002                                         !
 ! D49   D(18,19,20,21)         -6.19                                           !
 ! D50   D(18,19,20,37)        169.7889                                         !
 ! D51   D(22,19,20,21)        117.9451                                         !
 ! D52   D(22,19,20,37)        -66.076                                          !
 ! D53   D(27,19,20,21)       -124.732                                          !
 ! D54   D(27,19,20,37)         51.2469                                         !
 ! D55   D(18,19,22,23)        -59.4813                                         !
 ! D56   D(18,19,22,28)        178.4239                                         !
 ! D57   D(18,19,22,29)         63.5305                                         !
 ! D58   D(20,19,22,23)        174.9219                                         !
 ! D59   D(20,19,22,28)         52.8272                                         !
 ! D60   D(20,19,22,29)        -62.0662                                         !
 ! D61   D(27,19,22,23)         58.5295                                         !
 ! D62   D(27,19,22,28)        -63.5653                                         !
 ! D63   D(27,19,22,29)       -178.4586                                         !
 ! D64   D(19,20,37,38)       -170.7861                                         !
 ! D65   D(19,20,37,50)          2.278                                          !
 ! D66   D(21,20,37,38)          5.2144                                         !
 ! D67   D(21,20,37,50)        178.2785                                         !
 ! D68   D(19,22,23,24)        178.5851                                         !
 ! D69   D(19,22,23,25)        -57.9108                                         !
 ! D70   D(19,22,23,30)         60.8743                                         !
 ! D71   D(28,22,23,24)        -59.1914                                         !
 ! D72   D(28,22,23,25)         64.3128                                         !
 ! D73   D(28,22,23,30)       -176.9021                                         !
 ! D74   D(29,22,23,24)         56.3099                                         !
 ! D75   D(29,22,23,25)        179.814                                          !
 ! D76   D(29,22,23,30)        -61.4009                                         !
 ! D77   D(22,23,24,31)        -56.781                                          !
 ! D78   D(22,23,24,32)         63.3615                                         !
 ! D79   D(22,23,24,33)       -176.8907                                         !
 ! D80   D(25,23,24,31)        178.9174                                         !
 ! D81   D(25,23,24,32)        -60.9401                                         !
 ! D82   D(25,23,24,33)         58.8078                                         !
 ! D83   D(30,23,24,31)         60.9195                                         !
 ! D84   D(30,23,24,32)       -178.938                                          !
 ! D85   D(30,23,24,33)        -59.1902                                         !
 ! D86   D(22,23,25,34)         62.8905                                         !
 ! D87   D(22,23,25,35)       -176.8889                                         !
 ! D88   D(22,23,25,36)        -57.7552                                         !
 ! D89   D(24,23,25,34)       -174.2283                                         !
 ! D90   D(24,23,25,35)        -54.0077                                         !
 ! D91   D(24,23,25,36)         65.126                                          !
 ! D92   D(30,23,25,34)        -56.0547                                         !
 ! D93   D(30,23,25,35)         64.1658                                         !
 ! D94   D(30,23,25,36)       -176.7005                                         !
 ! D95   D(20,37,38,39)       -179.9399                                         !
 ! D96   D(20,37,38,41)         59.9377                                         !
 ! D97   D(20,37,38,51)        -61.2664                                         !
 ! D98   D(50,37,38,39)          6.781                                          !
 ! D99   D(50,37,38,41)       -113.3413                                         !
 ! D100  D(50,37,38,51)        125.4546                                         !
 ! D101  D(37,38,39,40)        -32.1565                                         !
 ! D102  D(37,38,39,48)        151.5884                                         !
 ! D103  D(41,38,39,40)         92.5523                                         !
 ! D104  D(41,38,39,48)        -83.7028                                         !
 ! D105  D(51,38,39,40)       -150.7351                                         !
 ! D106  D(51,38,39,48)         33.0098                                         !
 ! D107  D(37,38,41,42)         65.1498                                         !
 ! D108  D(37,38,41,52)        -58.7926                                         !
 ! D109  D(37,38,41,53)       -172.7877                                         !
 ! D110  D(39,38,41,42)        -54.4821                                         !
 ! D111  D(39,38,41,52)       -178.4245                                         !
 ! D112  D(39,38,41,53)         67.5804                                         !
 ! D113  D(51,38,41,42)       -172.5739                                         !
 ! D114  D(51,38,41,52)         63.4836                                         !
 ! D115  D(51,38,41,53)        -50.5115                                         !
 ! D116  D(38,39,48,49)        175.4687                                         !
 ! D117  D(40,39,48,49)         -0.7912                                         !
 ! D118  D(38,41,42,43)        -71.4281                                         !
 ! D119  D(38,41,42,54)         52.2775                                         !
 ! D120  D(38,41,42,55)        168.1091                                         !
 ! D121  D(52,41,42,43)         50.5749                                         !
 ! D122  D(52,41,42,54)        174.2806                                         !
 ! D123  D(52,41,42,55)        -69.8878                                         !
 ! D124  D(53,41,42,43)        167.9812                                         !
 ! D125  D(53,41,42,54)        -68.3131                                         !
 ! D126  D(53,41,42,55)         47.5184                                         !
 ! D127  D(41,42,43,44)        167.0839                                         !
 ! D128  D(41,42,43,56)         46.3879                                         !
 ! D129  D(41,42,43,57)        -70.8878                                         !
 ! D130  D(54,42,43,44)         43.3998                                         !
 ! D131  D(54,42,43,56)        -77.2962                                         !
 ! D132  D(54,42,43,57)        165.428                                          !
 ! D133  D(55,42,43,44)        -72.7443                                         !
 ! D134  D(55,42,43,56)        166.5596                                         !
 ! D135  D(55,42,43,57)         49.2839                                         !
 ! D136  D(42,43,44,45)        -91.3224                                         !
 ! D137  D(42,43,44,58)        113.8786                                         !
 ! D138  D(56,43,44,45)         30.9758                                         !
 ! D139  D(56,43,44,58)       -123.8232                                         !
 ! D140  D(57,43,44,45)        145.4868                                         !
 ! D141  D(57,43,44,58)         -9.3122                                         !
 ! D142  D(43,44,45,46)         24.0024                                         !
 ! D143  D(43,44,45,47)       -155.9918                                         !
 ! D144  D(58,44,45,46)        179.2403                                         !
 ! D145  D(58,44,45,47)         -0.7539                                         !
 ! D146  D(44,45,46,59)         12.2354                                         !
 ! D147  D(44,45,46,60)       -174.0727                                         !
 ! D148  D(47,45,46,59)       -167.7705                                         !
 ! D149  D(47,45,46,60)          5.9214                                         !
 ! D150  D(44,45,47,61)       -175.169                                          !
 ! D151  D(44,45,47,62)         37.0332                                         !
 ! D152  D(46,45,47,61)          4.8367                                         !
 ! D153  D(46,45,47,62)       -142.9611                                         !
 --------------------------------------------------------------------------------
 Symmetry turned off by external request.
 Stoichiometry    C17H33N6O6(1+)
 Framework group  C1[X(C17H33N6O6)]
 Deg. of freedom   180
 Full point group                 C1      NOp   1
                          Input orientation:                          
 ---------------------------------------------------------------------
 Center     Atomic      Atomic             Coordinates (Angstroms)
 Number     Number       Type             X           Y           Z
 ---------------------------------------------------------------------
      1          7           0       12.083178   20.217018   12.219641
      2          6           0       12.810242   19.623513   13.354129
      3          6           0       12.292402   20.194042   14.687680
      4          8           0       12.664574   21.290002   15.083234
      5          6           0       14.310660   19.892090   13.195581
      6          6           0       15.176777   19.003116   14.098175
      7          6           0       15.144029   17.552114   13.653001
      8          8           0       15.147041   17.205800   12.484889
      9          8           0       15.107954   16.594643   14.605285
     10          1           0       15.144798   16.986101   15.494947
     11          1           0       12.644507   18.541121   13.313930
     12          1           0       14.502499   20.941011   13.438749
     13          1           0       14.585785   19.718797   12.151397
     14          1           0       16.224539   19.325996   14.041945
     15          1           0       14.871598   19.101619   15.147378
     16          1           0       11.083316   20.224937   12.428586
     17          1           0       12.357980   21.196766   12.138430
     18          7           0       11.368077   19.463332   15.399922
     19          6           0       10.736302   18.203747   15.066354
     20          6           0        9.709017   18.346126   13.912237
     21          8           0        9.389587   19.425872   13.430307
     22          6           0       10.107068   17.585895   16.332397
     23          6           0       11.106355   17.305258   17.472736
     24          6           0       10.359674   16.727760   18.683657
     25          6           0       12.238416   16.365604   17.032009
     26          1           0       10.943935   20.001805   16.148071
     27          1           0       11.506445   17.510992   14.705064
     28          1           0        9.607499   16.646470   16.061346
     29          1           0        9.314111   18.257120   16.689291
     30          1           0       11.558663   18.259553   17.773195
     31          1           0        9.561546   17.399702   19.018461
     32          1           0        9.903343   15.759902   18.439252
     33          1           0       11.041449   16.571612   19.526308
     34          1           0       12.852866   16.799743   16.233188
     35          1           0       12.901250   16.139771   17.874317
     36          1           0       11.837391   15.411432   16.663951
     37          7           0        9.254970   17.158011   13.420207
     38          6           0        8.438907   17.042546   12.213720
     39          6           0        8.146840   15.567613   12.013314
     40          8           0        8.917675   14.672283   12.333792
     41          6           0        9.100449   17.585050   10.905299
     42          6           0       10.353815   16.838183   10.408158
     43          6           0       11.561146   17.104418   11.317886
     44          7           0       12.717923   16.222443   11.115236
     45          6           0       12.898259   15.079683   11.787623
     46          7           0       11.857142   14.425431   12.322770
     47          7           0       14.149724   14.600185   11.915577
     48          8           0        6.996940   15.357481   11.379359
     49          1           0        6.900309   14.398175   11.216571
     50          1           0        9.567784   16.290095   13.836035
     51          1           0        7.500312   17.585898   12.356028
     52          1           0        9.328125   18.639852   11.081164
     53          1           0        8.328179   17.549830   10.129697
     54          1           0       10.157784   15.762196   10.327372
     55          1           0       10.585506   17.176032    9.392174
     56          1           0       11.265615   16.997699   12.359347
     57          1           0       11.903932   18.135728   11.187152
     58          1           0       13.564449   16.648882   10.758719
     59          1           0       10.881979   14.633529   12.113478
     60          1           0       12.019971   13.614642   12.901954
     61          1           0       14.297788   13.702765   12.355592
     62          1           0       14.881200   15.302762   12.046044
 ---------------------------------------------------------------------
 Rotational constants (GHZ):           0.1752191           0.1374140           0.1168381
 Standard basis: 6-31G(d) (6D, 7F)
   501 basis functions,   944 primitive gaussians,   501 cartesian basis functions
   112 alpha electrons      112 beta electrons
       nuclear repulsion energy      3278.4184624206 Hartrees.
 NAtoms=   62 NActive=   62 NUniq=   62 SFac= 1.00D+00 NAtFMM=   60 NAOKFM=T Big=T
 Integral buffers will be    131072 words long.
 Raffenetti 2 integral format.
 Two-electron integral symmetry is turned off.
 Nuclear repulsion after empirical dispersion term =     3278.3285679305 Hartrees.
 One-electron integrals computed using PRISM.
 NBasis=   501 RedAO= T EigKep=  1.76D-03  NBF=   501
 NBsUse=   501 1.00D-06 EigRej= -1.00D+00 NBFU=   501
 Initial guess from the checkpoint file:  "conf-197.chk"
 B after Tr=     0.000000    0.000000    0.000000
         Rot=    1.000000    0.000000    0.000000    0.000000 Ang=   0.00 deg.
 Requested convergence on RMS density matrix=1.00D-08 within 128 cycles.
 Requested convergence on MAX density matrix=1.00D-06.
 Requested convergence on             energy=1.00D-06.
 No special actions if energy rises.
 SCF Done:  E(RB3LYP) =  -1447.50178402     A.U. after    1 cycles
            NFock=  1  Conv=0.77D-08     -V/T= 2.0093

 **********************************************************************

            Population analysis using the SCF Density.

 **********************************************************************

 Alpha  occ. eigenvalues --  -19.33381 -19.32734 -19.28390 -19.27033 -19.23480
 Alpha  occ. eigenvalues --  -19.20443 -14.51421 -14.50988 -14.50066 -14.48323
 Alpha  occ. eigenvalues --  -14.45717 -14.41456 -10.47325 -10.46195 -10.45188
 Alpha  occ. eigenvalues --  -10.40412 -10.37793 -10.36555 -10.35117 -10.34349
 Alpha  occ. eigenvalues --  -10.32398 -10.31937 -10.30989 -10.30903 -10.30154
 Alpha  occ. eigenvalues --  -10.29342 -10.29069 -10.28192 -10.26432  -1.24683
 Alpha  occ. eigenvalues --   -1.23228  -1.16007  -1.15767  -1.15332  -1.14725
 Alpha  occ. eigenvalues --   -1.12549  -1.05264  -1.04832  -1.03849  -1.02417
 Alpha  occ. eigenvalues --   -0.98718  -0.92691  -0.91320  -0.90311  -0.88288
 Alpha  occ. eigenvalues --   -0.84801  -0.81608  -0.80991  -0.78579  -0.78025
 Alpha  occ. eigenvalues --   -0.76670  -0.75445  -0.74686  -0.73415  -0.72972
 Alpha  occ. eigenvalues --   -0.72568  -0.69778  -0.69043  -0.67406  -0.66557
 Alpha  occ. eigenvalues --   -0.65573  -0.64881  -0.64513  -0.63089  -0.62682
 Alpha  occ. eigenvalues --   -0.61497  -0.61297  -0.60241  -0.59698  -0.59322
 Alpha  occ. eigenvalues --   -0.58929  -0.58029  -0.57629  -0.57112  -0.56737
 Alpha  occ. eigenvalues --   -0.56559  -0.55962  -0.54691  -0.54332  -0.54062
 Alpha  occ. eigenvalues --   -0.53625  -0.52777  -0.52702  -0.51741  -0.50979
 Alpha  occ. eigenvalues --   -0.50480  -0.50158  -0.49447  -0.49132  -0.48462
 Alpha  occ. eigenvalues --   -0.48002  -0.47725  -0.47326  -0.46782  -0.46513
 Alpha  occ. eigenvalues --   -0.46205  -0.45556  -0.45212  -0.44830  -0.44246
 Alpha  occ. eigenvalues --   -0.43295  -0.42850  -0.42719  -0.42666  -0.41902
 Alpha  occ. eigenvalues --   -0.40684  -0.39994  -0.37624  -0.37063  -0.36389
 Alpha  occ. eigenvalues --   -0.34811  -0.32492
 Alpha virt. eigenvalues --   -0.13309  -0.12429  -0.11994  -0.10131  -0.08203
 Alpha virt. eigenvalues --   -0.07237  -0.06502  -0.04904  -0.04143  -0.02770
 Alpha virt. eigenvalues --   -0.02499  -0.01376  -0.00865  -0.00481   0.01074
 Alpha virt. eigenvalues --    0.01230   0.01542   0.02229   0.03353   0.03528
 Alpha virt. eigenvalues --    0.03798   0.04002   0.04851   0.05301   0.05546
 Alpha virt. eigenvalues --    0.05569   0.05748   0.06582   0.06880   0.07766
 Alpha virt. eigenvalues --    0.08157   0.08410   0.08499   0.09189   0.09354
 Alpha virt. eigenvalues --    0.09689   0.10109   0.10491   0.10673   0.11066
 Alpha virt. eigenvalues --    0.11290   0.11934   0.12508   0.12866   0.13467
 Alpha virt. eigenvalues --    0.13501   0.13623   0.14515   0.14768   0.15641
 Alpha virt. eigenvalues --    0.16460   0.16897   0.17440   0.17984   0.18572
 Alpha virt. eigenvalues --    0.20256   0.20416   0.22658   0.23421   0.24262
 Alpha virt. eigenvalues --    0.25554   0.26409   0.27859   0.28480   0.30380
 Alpha virt. eigenvalues --    0.33043   0.36448   0.38058   0.38339   0.38913
 Alpha virt. eigenvalues --    0.39761   0.40142   0.40755   0.41151   0.41801
 Alpha virt. eigenvalues --    0.42179   0.42329   0.42852   0.43320   0.44417
 Alpha virt. eigenvalues --    0.44634   0.45927   0.46476   0.47862   0.48660
 Alpha virt. eigenvalues --    0.49329   0.49552   0.49696   0.49878   0.51164
 Alpha virt. eigenvalues --    0.51514   0.52500   0.53222   0.53842   0.54117
 Alpha virt. eigenvalues --    0.54236   0.54918   0.55106   0.55526   0.55953
 Alpha virt. eigenvalues --    0.57411   0.58032   0.58832   0.59009   0.59533
 Alpha virt. eigenvalues --    0.60400   0.61434   0.61781   0.62508   0.62931
 Alpha virt. eigenvalues --    0.63214   0.63930   0.64674   0.65298   0.66217
 Alpha virt. eigenvalues --    0.67068   0.68050   0.68135   0.68669   0.70224
 Alpha virt. eigenvalues --    0.70762   0.71507   0.71689   0.72548   0.72881
 Alpha virt. eigenvalues --    0.73214   0.74459   0.74672   0.74914   0.75286
 Alpha virt. eigenvalues --    0.75759   0.75864   0.76057   0.76803   0.77433
 Alpha virt. eigenvalues --    0.78025   0.78494   0.78585   0.79409   0.80178
 Alpha virt. eigenvalues --    0.80351   0.80806   0.81297   0.82124   0.82242
 Alpha virt. eigenvalues --    0.82499   0.83062   0.83542   0.84114   0.84190
 Alpha virt. eigenvalues --    0.84843   0.85321   0.85454   0.86415   0.86497
 Alpha virt. eigenvalues --    0.87172   0.87588   0.88045   0.88783   0.89411
 Alpha virt. eigenvalues --    0.89722   0.90136   0.90544   0.91275   0.91539
 Alpha virt. eigenvalues --    0.93715   0.94641   0.95359   0.96028   0.96784
 Alpha virt. eigenvalues --    0.98365   0.98540   0.99257   1.00311   1.00794
 Alpha virt. eigenvalues --    1.02854   1.04298   1.04823   1.05535   1.07022
 Alpha virt. eigenvalues --    1.07554   1.07592   1.08197   1.09643   1.10624
 Alpha virt. eigenvalues --    1.11741   1.12884   1.13997   1.15959   1.16744
 Alpha virt. eigenvalues --    1.18063   1.19149   1.19900   1.20880   1.22785
 Alpha virt. eigenvalues --    1.24284   1.25725   1.26020   1.27449   1.27598
 Alpha virt. eigenvalues --    1.29013   1.30602   1.31992   1.33123   1.34443
 Alpha virt. eigenvalues --    1.35677   1.36225   1.36273   1.36840   1.38028
 Alpha virt. eigenvalues --    1.40800   1.41077   1.42375   1.44333   1.45185
 Alpha virt. eigenvalues --    1.45574   1.47199   1.48473   1.49807   1.50520
 Alpha virt. eigenvalues --    1.52531   1.53371   1.54746   1.55400   1.56473
 Alpha virt. eigenvalues --    1.57495   1.59107   1.59513   1.60131   1.60376
 Alpha virt. eigenvalues --    1.60882   1.61820   1.62393   1.63005   1.64347
 Alpha virt. eigenvalues --    1.64816   1.65864   1.66444   1.67497   1.67986
 Alpha virt. eigenvalues --    1.68854   1.69355   1.69989   1.70844   1.71012
 Alpha virt. eigenvalues --    1.72300   1.73262   1.73908   1.74352   1.75119
 Alpha virt. eigenvalues --    1.75887   1.76721   1.77173   1.78726   1.79643
 Alpha virt. eigenvalues --    1.79951   1.81134   1.81520   1.81612   1.82455
 Alpha virt. eigenvalues --    1.83093   1.83958   1.85203   1.85881   1.86704
 Alpha virt. eigenvalues --    1.87476   1.88032   1.88649   1.89049   1.89365
 Alpha virt. eigenvalues --    1.91197   1.92207   1.92719   1.93192   1.95313
 Alpha virt. eigenvalues --    1.96003   1.96139   1.96977   1.97595   1.98223
 Alpha virt. eigenvalues --    1.98565   1.99390   2.00373   2.00405   2.01646
 Alpha virt. eigenvalues --    2.03415   2.04592   2.07027   2.08021   2.08682
 Alpha virt. eigenvalues --    2.10809   2.11481   2.13391   2.13909   2.14214
 Alpha virt. eigenvalues --    2.14832   2.16151   2.16512   2.17592   2.18645
 Alpha virt. eigenvalues --    2.21185   2.22131   2.23079   2.24509   2.25211
 Alpha virt. eigenvalues --    2.25713   2.28151   2.28904   2.30285   2.31201
 Alpha virt. eigenvalues --    2.31943   2.32460   2.34156   2.34357   2.35027
 Alpha virt. eigenvalues --    2.36249   2.38511   2.39812   2.40439   2.41105
 Alpha virt. eigenvalues --    2.41916   2.42615   2.43264   2.45022   2.45813
 Alpha virt. eigenvalues --    2.46726   2.47477   2.48625   2.49729   2.52393
 Alpha virt. eigenvalues --    2.52845   2.53656   2.54104   2.55106   2.55772
 Alpha virt. eigenvalues --    2.58782   2.59381   2.61002   2.62244   2.64350
 Alpha virt. eigenvalues --    2.64684   2.66023   2.68604   2.70846   2.72066
 Alpha virt. eigenvalues --    2.72902   2.74571   2.78200   2.82176   2.86305
 Alpha virt. eigenvalues --    2.88070   2.89461   2.89549   2.91858   2.94710
 Alpha virt. eigenvalues --    2.95082   2.97001   2.97900   3.04661   3.09000
 Alpha virt. eigenvalues --    3.69688   3.75296   3.75613   3.80836   3.84906
 Alpha virt. eigenvalues --    3.85471   3.88236   3.97050   4.01747   4.03377
 Alpha virt. eigenvalues --    4.05123   4.06348   4.10312   4.12243   4.13480
 Alpha virt. eigenvalues --    4.19525   4.20096   4.23378   4.26581   4.26821
 Alpha virt. eigenvalues --    4.33394   4.34237   4.39143   4.43838   4.45751
 Alpha virt. eigenvalues --    4.48341   4.55779   4.58164   4.63909
          Condensed to atoms (all electrons):
 Mulliken charges:
               1
     1  N   -0.754664
     2  C   -0.060574
     3  C    0.594990
     4  O   -0.498885
     5  C   -0.275043
     6  C   -0.392505
     7  C    0.616743
     8  O   -0.492105
     9  O   -0.563273
    10  H    0.435539
    11  H    0.111148
    12  H    0.194590
    13  H    0.176243
    14  H    0.218734
    15  H    0.168768
    16  H    0.352472
    17  H    0.327002
    18  N   -0.597593
    19  C   -0.073613
    20  C    0.624844
    21  O   -0.510702
    22  C   -0.295173
    23  C   -0.067091
    24  C   -0.448064
    25  C   -0.459861
    26  H    0.345875
    27  H    0.152679
    28  H    0.140426
    29  H    0.167995
    30  H    0.147275
    31  H    0.159973
    32  H    0.146309
    33  H    0.162909
    34  H    0.114800
    35  H    0.166700
    36  H    0.138077
    37  N   -0.632063
    38  C    0.008993
    39  C    0.590439
    40  O   -0.505060
    41  C   -0.312240
    42  C   -0.287835
    43  C   -0.204993
    44  N   -0.572622
    45  C    0.774545
    46  N   -0.793919
    47  N   -0.761430
    48  O   -0.533684
    49  H    0.437145
    50  H    0.343237
    51  H    0.215339
    52  H    0.208265
    53  H    0.185082
    54  H    0.146326
    55  H    0.181175
    56  H    0.153265
    57  H    0.242966
    58  H    0.381935
    59  H    0.427497
    60  H    0.368883
    61  H    0.361715
    62  H    0.402092
 Sum of Mulliken charges =   1.00000
 Mulliken charges with hydrogens summed into heavy atoms:
               1
     1  N   -0.075190
     2  C    0.050574
     3  C    0.594990
     4  O   -0.498885
     5  C    0.095790
     6  C   -0.005003
     7  C    0.616743
     8  O   -0.492105
     9  O   -0.127734
    18  N   -0.251718
    19  C    0.079066
    20  C    0.624844
    21  O   -0.510702
    22  C    0.013249
    23  C    0.080184
    24  C    0.021128
    25  C   -0.040283
    37  N   -0.288826
    38  C    0.224333
    39  C    0.590439
    40  O   -0.505060
    41  C    0.081107
    42  C    0.039666
    43  C    0.191238
    44  N   -0.190687
    45  C    0.774545
    46  N    0.002461
    47  N    0.002377
    48  O   -0.096539
 Electronic spatial extent (au):  <R**2>=         507401.8048
 Charge=              1.0000 electrons
 Dipole moment (field-independent basis, Debye):
    X=             56.8210    Y=             74.3031    Z=             63.5194  Tot=            113.0676
 Quadrupole moment (field-independent basis, Debye-Ang):
   XX=            544.0132   YY=            980.0421   ZZ=            698.3128
   XY=            887.8670   XZ=            762.4851   YZ=            985.3797
 Traceless Quadrupole moment (field-independent basis, Debye-Ang):
   XX=           -196.7762   YY=            239.2527   ZZ=            -42.4766
   XY=            887.8670   XZ=            762.4851   YZ=            985.3797
 Octapole moment (field-independent basis, Debye-Ang**2):
  XXX=           3531.7156  YYY=           8789.5343  ZZZ=           5362.1847  XYY=          11949.5481
  XXY=           8304.0206  XXZ=           7387.7438  XZZ=           8575.1449  YZZ=          10575.6103
  YYZ=          12938.7449  XYZ=          11936.3359
 Hexadecapole moment (field-independent basis, Debye-Ang**3):
 XXXX=         -12180.9686 YYYY=         -46445.3653 ZZZZ=         -12985.2474 XXXY=          47159.1144
 XXXZ=          49041.7781 YYYX=         114050.4716 YYYZ=         112015.7229 ZZZX=          69950.2248
 ZZZY=          71795.3981 XXYY=         102988.1670 XXZZ=          79409.8273 YYZZ=         125540.8667
 XXYZ=         112863.1483 YYXZ=         160029.9794 ZZXY=         131192.6034
 N-N= 3.278328567930D+03 E-N=-9.904995157119D+03  KE= 1.434111943247D+03
 Unable to Open any file for archive entry.
 1\1\GINC-VIM-000\SP\RB3LYP\6-31G(d)\C17H33N6O6(1+)\KENGMITH\24-May-202
 2\0\\# B3LYP/6-31G* empiricaldispersion=gd3 guess=read geom=check nosy
 mm integral(ultrafinegrid)\\Candidate Structure: Conf:197 Charge calc 
 in gas phase\\1,1\N,0,12.0831777519,20.2170180376,12.2196407957\C,0,12
 .8102416769,19.6235132673,13.3541294103\C,0,12.2924017767,20.194041942
 5,14.6876800186\O,0,12.6645743451,21.2900018183,15.0832337011\C,0,14.3
 10659816,19.8920904559,13.1955814456\C,0,15.1767771862,19.0031160492,1
 4.0981749427\C,0,15.1440293395,17.5521141722,13.6530009475\O,0,15.1470
 412196,17.2057995335,12.4848889191\O,0,15.1079540075,16.5946433684,14.
 6052845296\H,0,15.1447982886,16.9861012496,15.4949472999\H,0,12.644507
 3192,18.5411210682,13.3139296646\H,0,14.5024994926,20.9410107733,13.43
 87487063\H,0,14.5857849962,19.7187967753,12.1513966949\H,0,16.22453934
 4,19.325995918,14.041944583\H,0,14.8715979336,19.1016190968,15.1473775
 531\H,0,11.0833160489,20.2249367938,12.4285862136\H,0,12.3579797189,21
 .1967663774,12.1384299496\N,0,11.3680770913,19.4633320418,15.399921714
 3\C,0,10.7363018473,18.2037465467,15.06635403\C,0,9.7090166629,18.3461
 263456,13.9122369264\O,0,9.389587335,19.4258719104,13.4303071925\C,0,1
 0.1070677494,17.5858952634,16.3323967255\C,0,11.1063551653,17.30525845
 36,17.4727362416\C,0,10.3596736729,16.7277595853,18.6836569733\C,0,12.
 2384155418,16.3656044445,17.0320090174\H,0,10.9439353443,20.0018045509
 ,16.1480712615\H,0,11.5064448611,17.510992083,14.7050641373\H,0,9.6074
 989949,16.646470279,16.0613463511\H,0,9.3141110016,18.2571200171,16.68
 92907523\H,0,11.558663359,18.2595525797,17.7731950236\H,0,9.5615460613
 ,17.3997018631,19.0184613951\H,0,9.9033432556,15.7599018906,18.4392516
 923\H,0,11.0414492491,16.5716121713,19.5263084112\H,0,12.8528664073,16
 .7997430069,16.2331882478\H,0,12.9012503546,16.1397708042,17.874317413
 7\H,0,11.837391117,15.41143234,16.6639506114\N,0,9.2549702687,17.15801
 1043,13.4202071541\C,0,8.4389071892,17.0425460027,12.2137203118\C,0,8.
 1468395544,15.5676130212,12.0133144829\O,0,8.9176750215,14.6722830779,
 12.3337920058\C,0,9.100448651,17.5850497912,10.9052992051\C,0,10.35381
 51138,16.8381832596,10.4081579957\C,0,11.5611455947,17.1044177833,11.3
 178864331\N,0,12.7179230708,16.2224432683,11.1152359699\C,0,12.8982594
 734,15.0796829757,11.7876231623\N,0,11.8571416021,14.4254309159,12.322
 7700436\N,0,14.1497242344,14.6001849413,11.9155766965\O,0,6.9969400116
 ,15.3574807029,11.3793590403\H,0,6.9003085985,14.3981751771,11.2165709
 046\H,0,9.5677844464,16.2900948894,13.8360349047\H,0,7.5003124088,17.5
 858980701,12.3560278589\H,0,9.3281246224,18.6398521203,11.0811644375\H
 ,0,8.3281788866,17.5498303145,10.1296967273\H,0,10.1577840099,15.76219
 58649,10.3273716617\H,0,10.5855062315,17.1760319286,9.3921744993\H,0,1
 1.2656148067,16.9976993425,12.3593473137\H,0,11.9039315103,18.13572789
 1,11.1871517325\H,0,13.564449155,16.6488820291,10.7587185149\H,0,10.88
 19785981,14.6335293826,12.1134783323\H,0,12.0199713656,13.6146418123,1
 2.9019537773\H,0,14.2977878705,13.7027648797,12.3555921211\H,0,14.8811
 997411,15.3027623104,12.0460441992\\Version=ES64L-G16RevC.01\HF=-1447.
 501784\RMSD=7.654e-09\Dipole=0.5486978,-3.7095252,-0.5875544\Quadrupol
 e=-146.2982506,177.8785247,-31.5802741,660.1073482,566.8889837,732.605
 6824\PG=C01 [X(C17H33N6O6)]\\@
 The archive entry for this job was punched.


 THERE IS AN OLD, OLD RECIPE IN MAINE FOR STEWING COOT. PLACE THE
 BIRD IN A KETTLE OF WATER WITH A RED BUILDING BRICK FREE OF MORTAR AND
 BLEMISHES. PARBOIL THE COOT AND BRICK TOGETHER FOR THREE HOURS.
 POUR OFF THE WATER, REFILL THE KETTLE, AND AGAIN PARBOIL FOR THREE HOURS.
 ONCE AGAIN POUR OFF THE WATER, FOR THE LAST TIME ADD FRESH WATER,
 AND LET THE COOT AND BRICK SIMMER TOGETHER OVERNIGHT. IN THE MORNING,
 THROW AWAY THE COOT AND EAT THE BRICK.
 Job cpu time:       0 days  0 hours  1 minutes 43.9 seconds.
 Elapsed time:       0 days  0 hours  0 minutes 26.4 seconds.
 File lengths (MBytes):  RWF=    248 Int=      0 D2E=      0 Chk=     32 Scr=     16
 Normal termination of Gaussian 16 at Tue May 24 03:34:05 2022.
