 Entering Gaussian System, Link 0=/opt/software/Gaussian/g16-AVX2-C.01/g16/g16
 Input=charge-conf-239.com
 Output=charge-conf-239.log
 Initial command:
 /opt/software/Gaussian/g16-AVX2-C.01/g16/l1.exe "/mnt/gs18/scratch/users/kengmith/Gau-48995.inp" -scrdir="/mnt/gs18/scratch/users/kengmith/"
 Entering Link 1 = /opt/software/Gaussian/g16-AVX2-C.01/g16/l1.exe PID=     49015.
  
 Copyright (c) 1988-2019, Gaussian, Inc.  All Rights Reserved.
  
 This is part of the Gaussian(R) 16 program.  It is based on
 the Gaussian(R) 09 system (copyright 2009, Gaussian, Inc.),
 the Gaussian(R) 03 system (copyright 2003, Gaussian, Inc.),
 the Gaussian(R) 98 system (copyright 1998, Gaussian, Inc.),
 the Gaussian(R) 94 system (copyright 1995, Gaussian, Inc.),
 the Gaussian 92(TM) system (copyright 1992, Gaussian, Inc.),
 the Gaussian 90(TM) system (copyright 1990, Gaussian, Inc.),
 the Gaussian 88(TM) system (copyright 1988, Gaussian, Inc.),
 the Gaussian 86(TM) system (copyright 1986, Carnegie Mellon
 University), and the Gaussian 82(TM) system (copyright 1983,
 Carnegie Mellon University). Gaussian is a federally registered
 trademark of Gaussian, Inc.
  
 This software contains proprietary and confidential information,
 including trade secrets, belonging to Gaussian, Inc.
  
 This software is provided under written license and may be
 used, copied, transmitted, or stored only in accord with that
 written license.
  
 The following legend is applicable only to US Government
 contracts under FAR:
  
                    RESTRICTED RIGHTS LEGEND
  
 Use, reproduction and disclosure by the US Government is
 subject to restrictions as set forth in subparagraphs (a)
 and (c) of the Commercial Computer Software - Restricted
 Rights clause in FAR 52.227-19.
  
 Gaussian, Inc.
 340 Quinnipiac St., Bldg. 40, Wallingford CT 06492
  
  
 ---------------------------------------------------------------
 Warning -- This program may not be used in any manner that
 competes with the business of Gaussian, Inc. or will provide
 assistance to any competitor of Gaussian, Inc.  The licensee
 of this program is prohibited from giving any competitor of
 Gaussian, Inc. access to this program.  By using this program,
 the user acknowledges that Gaussian, Inc. is engaged in the
 business of creating and licensing software in the field of
 computational chemistry and represents and warrants to the
 licensee that it is not a competitor of Gaussian, Inc. and that
 it will not use this program in any manner prohibited above.
 ---------------------------------------------------------------
  

 Cite this work as:
 Gaussian 16, Revision C.01,
 M. J. Frisch, G. W. Trucks, H. B. Schlegel, G. E. Scuseria, 
 M. A. Robb, J. R. Cheeseman, G. Scalmani, V. Barone, 
 G. A. Petersson, H. Nakatsuji, X. Li, M. Caricato, A. V. Marenich, 
 J. Bloino, B. G. Janesko, R. Gomperts, B. Mennucci, H. P. Hratchian, 
 J. V. Ortiz, A. F. Izmaylov, J. L. Sonnenberg, D. Williams-Young, 
 F. Ding, F. Lipparini, F. Egidi, J. Goings, B. Peng, A. Petrone, 
 T. Henderson, D. Ranasinghe, V. G. Zakrzewski, J. Gao, N. Rega, 
 G. Zheng, W. Liang, M. Hada, M. Ehara, K. Toyota, R. Fukuda, 
 J. Hasegawa, M. Ishida, T. Nakajima, Y. Honda, O. Kitao, H. Nakai, 
 T. Vreven, K. Throssell, J. A. Montgomery, Jr., J. E. Peralta, 
 F. Ogliaro, M. J. Bearpark, J. J. Heyd, E. N. Brothers, K. N. Kudin, 
 V. N. Staroverov, T. A. Keith, R. Kobayashi, J. Normand, 
 K. Raghavachari, A. P. Rendell, J. C. Burant, S. S. Iyengar, 
 J. Tomasi, M. Cossi, J. M. Millam, M. Klene, C. Adamo, R. Cammi, 
 J. W. Ochterski, R. L. Martin, K. Morokuma, O. Farkas, 
 J. B. Foresman, and D. J. Fox, Gaussian, Inc., Wallingford CT, 2019.
 
 ******************************************
 Gaussian 16:  ES64L-G16RevC.01  3-Jul-2019
                24-May-2022 
 ******************************************
 %mem=8gb
 %nproc=4
 Will use up to    4 processors via shared memory.
 %chk=conf-239.chk
 ----------------------------------------------------------------------
 # B3LYP/6-31G* empiricaldispersion=gd3 guess=read geom=check nosymm in
 tegral(ultrafinegrid)
 ----------------------------------------------------------------------
 1/29=2,38=1,172=1/1;
 2/12=2,15=1,40=1/2;
 3/5=1,6=6,7=1,11=2,14=-4,25=1,30=1,74=-5,75=-5,116=-2,124=31/1,2,3;
 4/5=1/1;
 5/5=2,38=6/2;
 6/7=2,8=2,9=2,10=2,28=1/1;
 99/5=1,9=1/99;
 ------------------------------------------------------
 Candidate Structure: Conf:239 Charge calc in gas phase
 ------------------------------------------------------
 Structure from the checkpoint file:  "conf-239.chk"
 Charge =  1 Multiplicity = 1
 Redundant internal coordinates found in file.  (old form).
 N,0,13.2068066715,18.4228240661,11.0662004209
 C,0,12.7461565333,17.0515758182,11.3409520291
 C,0,13.8893206039,16.2042493385,11.9301654283
 O,0,14.745985142,15.7213281522,11.2028655147
 C,0,12.2154007585,16.4228895366,10.0480231638
 C,0,11.3661093857,15.1687592663,10.2965515706
 C,0,10.0442523462,15.5123684713,10.9593175793
 O,0,9.3778962415,16.4889860982,10.6651334695
 O,0,9.5855020655,14.6919713605,11.9297221817
 H,0,10.1782915716,13.9305338507,12.0517223197
 H,0,11.919900791,17.125129149,12.0570024126
 H,0,13.0678183463,16.156966879,9.4164894504
 H,0,11.6097658525,17.1671543322,9.5232743115
 H,0,11.1234112882,14.6895133977,9.339263076
 H,0,11.9255419005,14.4323010793,10.8866828707
 H,0,13.7478699296,18.7617346361,11.8635990192
 H,0,13.8582480819,18.3921756726,10.2808940063
 N,0,13.9500869357,16.0424239567,13.2960629996
 C,0,13.0992851601,16.5989086353,14.3273651345
 C,0,13.318272295,18.1235233353,14.5142133244
 O,0,14.2011391447,18.7480367476,13.9391720901
 C,0,13.29866822,15.8185880515,15.6434353588
 C,0,12.9772633351,14.3133057221,15.551148174
 C,0,13.2466114647,13.6433539262,16.9061242679
 C,0,11.5336688265,14.0569887182,15.0940615363
 H,0,14.8336910553,15.6460971416,13.5988937731
 H,0,12.0528133286,16.4759843262,14.021820171
 H,0,12.6694181955,16.266999535,16.4235055757
 H,0,14.3363679283,15.9577205646,15.975880881
 H,0,13.6501002622,13.8649403483,14.8083342742
 H,0,14.2802537336,13.8036788409,17.2324769626
 H,0,12.5831117989,14.0455971285,17.6824426681
 H,0,13.0770173698,12.5629386493,16.8495512916
 H,0,11.3432590099,14.4403780384,14.0836347251
 H,0,11.3164831665,12.9834101417,15.0878638682
 H,0,10.8146571857,14.5344787069,15.7735460241
 N,0,12.3892438028,18.7269165729,15.3096721807
 C,0,12.2836740056,20.1751670243,15.4721918711
 C,0,11.1376495618,20.4336113198,16.4316758903
 O,0,10.1445228505,19.7224671388,16.5120265885
 C,0,12.0030388298,20.9759280318,14.159279735
 C,0,10.6444874426,20.722440834,13.4767465142
 C,0,10.5937202096,19.3311622645,12.8303540484
 N,0,9.2630130975,18.8727625205,12.4108876796
 C,0,8.4482819898,18.160169881,13.1976300459
 N,0,8.5623002403,18.2129214691,14.5326712799
 N,0,7.5092120904,17.3884506545,12.6187169945
 O,0,11.2936221464,21.5610145249,17.119434779
 H,0,10.4945554435,21.7087106221,17.6632940983
 H,0,11.6636398808,18.1714156155,15.7444277346
 H,0,13.2133771478,20.5619507533,15.8994372211
 H,0,12.8239897932,20.7530567742,13.4724577558
 H,0,12.0833573108,22.0365457848,14.4197586491
 H,0,9.8218212976,20.8495348703,14.1907616961
 H,0,10.4901197698,21.484860338,12.7054156699
 H,0,10.9748884066,18.5885672653,13.5280690033
 H,0,11.2449371606,19.3069600744,11.9507927955
 H,0,9.108517245,18.7578644172,11.4166557757
 H,0,9.1247873107,18.9000947433,15.0320821272
 H,0,8.0010653545,17.6013809734,15.107434328
 H,0,6.8395227318,16.8996792862,13.196227685
 H,0,7.7894773842,16.928138827,11.7497462984
 Recover connectivity data from disk.
                           ----------------------------
                           !    Current Parameters    !
                           ! (Angstroms and Degrees)  !
 --------------------------                            --------------------------
 ! Name  Definition              Value                                          !
 --------------------------------------------------------------------------------
 ! R1    R(1,2)                  1.4724                                         !
 ! R2    R(1,16)                 1.0215                                         !
 ! R3    R(1,17)                 1.0208                                         !
 ! R4    R(2,3)                  1.5401                                         !
 ! R5    R(2,5)                  1.5325                                         !
 ! R6    R(2,11)                 1.0958                                         !
 ! R7    R(3,4)                  1.2231                                         !
 ! R8    R(3,18)                 1.3768                                         !
 ! R9    R(5,6)                  1.5349                                         !
 ! R10   R(5,12)                 1.0937                                         !
 ! R11   R(5,13)                 1.0937                                         !
 ! R12   R(6,7)                  1.5181                                         !
 ! R13   R(6,14)                 1.0977                                         !
 ! R14   R(6,15)                 1.0971                                         !
 ! R15   R(7,8)                  1.2183                                         !
 ! R16   R(7,9)                  1.351                                          !
 ! R17   R(9,10)                 0.9727                                         !
 ! R18   R(18,19)                1.4481                                         !
 ! R19   R(18,26)                1.0147                                         !
 ! R20   R(19,20)                1.5516                                         !
 ! R21   R(19,22)                1.5429                                         !
 ! R22   R(19,27)                1.0971                                         !
 ! R23   R(20,21)                1.2248                                         !
 ! R24   R(20,37)                1.3638                                         !
 ! R25   R(22,23)                1.542                                          !
 ! R26   R(22,28)                1.098                                          !
 ! R27   R(22,29)                1.0985                                         !
 ! R28   R(23,24)                1.5354                                         !
 ! R29   R(23,25)                1.5358                                         !
 ! R30   R(23,30)                1.098                                          !
 ! R31   R(24,31)                1.0957                                         !
 ! R32   R(24,32)                1.0976                                         !
 ! R33   R(24,33)                1.0951                                         !
 ! R34   R(25,34)                1.0974                                         !
 ! R35   R(25,35)                1.0953                                         !
 ! R36   R(25,36)                1.0985                                         !
 ! R37   R(37,38)                1.4612                                         !
 ! R38   R(37,50)                1.012                                          !
 ! R39   R(38,39)                1.5168                                         !
 ! R40   R(38,41)                1.5632                                         !
 ! R41   R(38,51)                1.0938                                         !
 ! R42   R(39,40)                1.2241                                         !
 ! R43   R(39,48)                1.3298                                         !
 ! R44   R(41,42)                1.5414                                         !
 ! R45   R(41,52)                1.0933                                         !
 ! R46   R(41,53)                1.0951                                         !
 ! R47   R(42,43)                1.5349                                         !
 ! R48   R(42,54)                1.0967                                         !
 ! R49   R(42,55)                1.0955                                         !
 ! R50   R(43,44)                1.4686                                         !
 ! R51   R(43,56)                1.0879                                         !
 ! R52   R(43,57)                1.0947                                         !
 ! R53   R(44,45)                1.3381                                         !
 ! R54   R(44,58)                1.0127                                         !
 ! R55   R(45,46)                1.3409                                         !
 ! R56   R(45,47)                1.3463                                         !
 ! R57   R(46,59)                1.0188                                         !
 ! R58   R(46,60)                1.0096                                         !
 ! R59   R(47,61)                1.0104                                         !
 ! R60   R(47,62)                1.0225                                         !
 ! R61   R(48,49)                0.9778                                         !
 ! A1    A(2,1,16)             109.21                                           !
 ! A2    A(2,1,17)             108.3756                                         !
 ! A3    A(16,1,17)            105.8115                                         !
 ! A4    A(1,2,3)              110.5815                                         !
 ! A5    A(1,2,5)              109.449                                          !
 ! A6    A(1,2,11)             107.1763                                         !
 ! A7    A(3,2,5)              110.7404                                         !
 ! A8    A(3,2,11)             110.2797                                         !
 ! A9    A(5,2,11)             108.5227                                         !
 ! A10   A(2,3,4)              120.6371                                         !
 ! A11   A(2,3,18)             118.4881                                         !
 ! A12   A(4,3,18)             120.8369                                         !
 ! A13   A(2,5,6)              112.968                                          !
 ! A14   A(2,5,12)             108.4801                                         !
 ! A15   A(2,5,13)             108.5065                                         !
 ! A16   A(6,5,12)             109.0314                                         !
 ! A17   A(6,5,13)             109.1063                                         !
 ! A18   A(12,5,13)            108.6636                                         !
 ! A19   A(5,6,7)              111.5643                                         !
 ! A20   A(5,6,14)             109.7462                                         !
 ! A21   A(5,6,15)             110.6978                                         !
 ! A22   A(7,6,14)             106.6802                                         !
 ! A23   A(7,6,15)             111.1685                                         !
 ! A24   A(14,6,15)            106.784                                          !
 ! A25   A(6,7,8)              123.5217                                         !
 ! A26   A(6,7,9)              118.1518                                         !
 ! A27   A(8,7,9)              118.3263                                         !
 ! A28   A(7,9,10)             111.0098                                         !
 ! A29   A(3,18,19)            129.4513                                         !
 ! A30   A(3,18,26)            112.3609                                         !
 ! A31   A(19,18,26)           116.691                                          !
 ! A32   A(18,19,20)           112.3611                                         !
 ! A33   A(18,19,22)           109.705                                          !
 ! A34   A(18,19,27)           108.6033                                         !
 ! A35   A(20,19,22)           112.0858                                         !
 ! A36   A(20,19,27)           106.1571                                         !
 ! A37   A(22,19,27)           107.7071                                         !
 ! A38   A(19,20,21)           123.109                                          !
 ! A39   A(19,20,37)           114.1326                                         !
 ! A40   A(21,20,37)           122.6347                                         !
 ! A41   A(19,22,23)           114.5643                                         !
 ! A42   A(19,22,28)           108.9897                                         !
 ! A43   A(19,22,29)           108.4303                                         !
 ! A44   A(23,22,28)           108.7686                                         !
 ! A45   A(23,22,29)           109.795                                          !
 ! A46   A(28,22,29)           105.9408                                         !
 ! A47   A(22,23,24)           109.6686                                         !
 ! A48   A(22,23,25)           112.1273                                         !
 ! A49   A(22,23,30)           108.1439                                         !
 ! A50   A(24,23,25)           110.7771                                         !
 ! A51   A(24,23,30)           108.1414                                         !
 ! A52   A(25,23,30)           107.8493                                         !
 ! A53   A(23,24,31)           111.3762                                         !
 ! A54   A(23,24,32)           110.9918                                         !
 ! A55   A(23,24,33)           110.9611                                         !
 ! A56   A(31,24,32)           107.8165                                         !
 ! A57   A(31,24,33)           107.8082                                         !
 ! A58   A(32,24,33)           107.7271                                         !
 ! A59   A(23,25,34)           112.2618                                         !
 ! A60   A(23,25,35)           110.588                                          !
 ! A61   A(23,25,36)           111.0151                                         !
 ! A62   A(34,25,35)           107.6268                                         !
 ! A63   A(34,25,36)           107.7052                                         !
 ! A64   A(35,25,36)           107.4431                                         !
 ! A65   A(20,37,38)           123.547                                          !
 ! A66   A(20,37,50)           119.7457                                         !
 ! A67   A(38,37,50)           116.3906                                         !
 ! A68   A(37,38,39)           107.0871                                         !
 ! A69   A(37,38,41)           115.2947                                         !
 ! A70   A(37,38,51)           109.4213                                         !
 ! A71   A(39,38,41)           107.9599                                         !
 ! A72   A(39,38,51)           109.5631                                         !
 ! A73   A(41,38,51)           107.4275                                         !
 ! A74   A(38,39,40)           123.7453                                         !
 ! A75   A(38,39,48)           112.5188                                         !
 ! A76   A(40,39,48)           123.6232                                         !
 ! A77   A(38,41,42)           116.4805                                         !
 ! A78   A(38,41,52)           106.7612                                         !
 ! A79   A(38,41,53)           106.4503                                         !
 ! A80   A(42,41,52)           110.495                                          !
 ! A81   A(42,41,53)           109.2236                                         !
 ! A82   A(52,41,53)           106.9647                                         !
 ! A83   A(41,42,43)           111.3887                                         !
 ! A84   A(41,42,54)           110.7204                                         !
 ! A85   A(41,42,55)           108.7556                                         !
 ! A86   A(43,42,54)           110.7569                                         !
 ! A87   A(43,42,55)           109.2481                                         !
 ! A88   A(54,42,55)           105.7867                                         !
 ! A89   A(42,43,44)           115.6683                                         !
 ! A90   A(42,43,56)           109.6964                                         !
 ! A91   A(42,43,57)           109.7995                                         !
 ! A92   A(44,43,56)           106.7135                                         !
 ! A93   A(44,43,57)           107.6161                                         !
 ! A94   A(56,43,57)           106.9649                                         !
 ! A95   A(43,44,45)           123.3655                                         !
 ! A96   A(43,44,58)           117.004                                          !
 ! A97   A(45,44,58)           115.0823                                         !
 ! A98   A(44,45,46)           120.8401                                         !
 ! A99   A(44,45,47)           118.4982                                         !
 ! A100  A(46,45,47)           120.6617                                         !
 ! A101  A(45,46,59)           124.1598                                         !
 ! A102  A(45,46,60)           119.7153                                         !
 ! A103  A(59,46,60)           115.8737                                         !
 ! A104  A(45,47,61)           119.5923                                         !
 ! A105  A(45,47,62)           115.613                                          !
 ! A106  A(61,47,62)           116.7205                                         !
 ! A107  A(39,48,49)           108.6551                                         !
 ! D1    D(16,1,2,3)           -45.0163                                         !
 ! D2    D(16,1,2,5)          -167.2768                                         !
 ! D3    D(16,1,2,11)           75.2212                                         !
 ! D4    D(17,1,2,3)            69.8047                                         !
 ! D5    D(17,1,2,5)           -52.4557                                         !
 ! D6    D(17,1,2,11)         -169.9577                                         !
 ! D7    D(1,2,3,4)            -79.8808                                         !
 ! D8    D(1,2,3,18)            97.9006                                         !
 ! D9    D(5,2,3,4)             41.62                                           !
 ! D10   D(5,2,3,18)          -140.5986                                         !
 ! D11   D(11,2,3,4)           161.7568                                         !
 ! D12   D(11,2,3,18)          -20.4617                                         !
 ! D13   D(1,2,5,6)           -163.947                                          !
 ! D14   D(1,2,5,12)            75.0514                                         !
 ! D15   D(1,2,5,13)           -42.8323                                         !
 ! D16   D(3,2,5,6)             73.8877                                         !
 ! D17   D(3,2,5,12)           -47.114                                          !
 ! D18   D(3,2,5,13)          -164.9976                                         !
 ! D19   D(11,2,5,6)           -47.293                                          !
 ! D20   D(11,2,5,12)         -168.2947                                         !
 ! D21   D(11,2,5,13)           73.8216                                         !
 ! D22   D(2,3,18,19)           -2.2858                                         !
 ! D23   D(2,3,18,26)         -167.6455                                         !
 ! D24   D(4,3,18,19)          175.491                                          !
 ! D25   D(4,3,18,26)           10.1314                                         !
 ! D26   D(2,5,6,7)             69.2739                                         !
 ! D27   D(2,5,6,14)          -172.7062                                         !
 ! D28   D(2,5,6,15)           -55.0867                                         !
 ! D29   D(12,5,6,7)          -170.038                                          !
 ! D30   D(12,5,6,14)          -52.018                                          !
 ! D31   D(12,5,6,15)           65.6015                                         !
 ! D32   D(13,5,6,7)           -51.5001                                         !
 ! D33   D(13,5,6,14)           66.5199                                         !
 ! D34   D(13,5,6,15)         -175.8606                                         !
 ! D35   D(5,6,7,8)             39.9452                                         !
 ! D36   D(5,6,7,9)           -139.8708                                         !
 ! D37   D(14,6,7,8)           -79.9001                                         !
 ! D38   D(14,6,7,9)           100.2839                                         !
 ! D39   D(15,6,7,8)           164.0411                                         !
 ! D40   D(15,6,7,9)           -15.7749                                         !
 ! D41   D(6,7,9,10)            -2.5727                                         !
 ! D42   D(8,7,9,10)           177.6016                                         !
 ! D43   D(3,18,19,20)         -71.0809                                         !
 ! D44   D(3,18,19,22)         163.5255                                         !
 ! D45   D(3,18,19,27)          46.0457                                         !
 ! D46   D(26,18,19,20)         93.7527                                         !
 ! D47   D(26,18,19,22)        -31.6409                                         !
 ! D48   D(26,18,19,27)       -149.1207                                         !
 ! D49   D(18,19,20,21)         -6.4656                                         !
 ! D50   D(18,19,20,37)        169.5837                                         !
 ! D51   D(22,19,20,21)        117.6171                                         !
 ! D52   D(22,19,20,37)        -66.3336                                         !
 ! D53   D(27,19,20,21)       -125.0414                                         !
 ! D54   D(27,19,20,37)         51.0079                                         !
 ! D55   D(18,19,22,23)        -59.4309                                         !
 ! D56   D(18,19,22,28)        178.4677                                         !
 ! D57   D(18,19,22,29)         63.5806                                         !
 ! D58   D(20,19,22,23)        175.0176                                         !
 ! D59   D(20,19,22,28)         52.9162                                         !
 ! D60   D(20,19,22,29)        -61.9709                                         !
 ! D61   D(27,19,22,23)         58.6073                                         !
 ! D62   D(27,19,22,28)        -63.4942                                         !
 ! D63   D(27,19,22,29)       -178.3813                                         !
 ! D64   D(19,20,37,38)       -170.9935                                         !
 ! D65   D(19,20,37,50)          2.3053                                         !
 ! D66   D(21,20,37,38)          5.077                                          !
 ! D67   D(21,20,37,50)        178.3758                                         !
 ! D68   D(19,22,23,24)        178.5795                                         !
 ! D69   D(19,22,23,25)        -57.9161                                         !
 ! D70   D(19,22,23,30)         60.8637                                         !
 ! D71   D(28,22,23,24)        -59.1989                                         !
 ! D72   D(28,22,23,25)         64.3055                                         !
 ! D73   D(28,22,23,30)       -176.9147                                         !
 ! D74   D(29,22,23,24)         56.3063                                         !
 ! D75   D(29,22,23,25)        179.8107                                         !
 ! D76   D(29,22,23,30)        -61.4095                                         !
 ! D77   D(22,23,24,31)        -56.8139                                         !
 ! D78   D(22,23,24,32)         63.3263                                         !
 ! D79   D(22,23,24,33)       -176.9228                                         !
 ! D80   D(25,23,24,31)        178.8921                                         !
 ! D81   D(25,23,24,32)        -60.9677                                         !
 ! D82   D(25,23,24,33)         58.7832                                         !
 ! D83   D(30,23,24,31)         60.9035                                         !
 ! D84   D(30,23,24,32)       -178.9563                                         !
 ! D85   D(30,23,24,33)        -59.2054                                         !
 ! D86   D(22,23,25,34)         62.7542                                         !
 ! D87   D(22,23,25,35)       -177.0275                                         !
 ! D88   D(22,23,25,36)        -57.8622                                         !
 ! D89   D(24,23,25,34)       -174.3656                                         !
 ! D90   D(24,23,25,35)        -54.1473                                         !
 ! D91   D(24,23,25,36)         65.018                                          !
 ! D92   D(30,23,25,34)        -56.1991                                         !
 ! D93   D(30,23,25,35)         64.0192                                         !
 ! D94   D(30,23,25,36)       -176.8155                                         !
 ! D95   D(20,37,38,39)       -179.8893                                         !
 ! D96   D(20,37,38,41)         59.9737                                         !
 ! D97   D(20,37,38,51)        -61.2155                                         !
 ! D98   D(50,37,38,39)          6.6049                                         !
 ! D99   D(50,37,38,41)       -113.5321                                         !
 ! D100  D(50,37,38,51)        125.2787                                         !
 ! D101  D(37,38,39,40)        -32.1259                                         !
 ! D102  D(37,38,39,48)        151.6158                                         !
 ! D103  D(41,38,39,40)         92.5924                                         !
 ! D104  D(41,38,39,48)        -83.6659                                         !
 ! D105  D(51,38,39,40)       -150.7078                                         !
 ! D106  D(51,38,39,48)         33.0339                                         !
 ! D107  D(37,38,41,42)         65.2276                                         !
 ! D108  D(37,38,41,52)        -58.7282                                         !
 ! D109  D(37,38,41,53)       -172.7237                                         !
 ! D110  D(39,38,41,42)        -54.43                                           !
 ! D111  D(39,38,41,52)       -178.3859                                         !
 ! D112  D(39,38,41,53)         67.6187                                         !
 ! D113  D(51,38,41,42)       -172.5087                                         !
 ! D114  D(51,38,41,52)         63.5354                                         !
 ! D115  D(51,38,41,53)        -50.46                                           !
 ! D116  D(38,39,48,49)        175.473                                          !
 ! D117  D(40,39,48,49)         -0.7906                                         !
 ! D118  D(38,41,42,43)        -71.294                                          !
 ! D119  D(38,41,42,54)         52.4235                                         !
 ! D120  D(38,41,42,55)        168.2489                                         !
 ! D121  D(52,41,42,43)         50.7223                                         !
 ! D122  D(52,41,42,54)        174.4397                                         !
 ! D123  D(52,41,42,55)        -69.7349                                         !
 ! D124  D(53,41,42,43)        168.1244                                         !
 ! D125  D(53,41,42,54)        -68.1582                                         !
 ! D126  D(53,41,42,55)         47.6673                                         !
 ! D127  D(41,42,43,44)        167.2248                                         !
 ! D128  D(41,42,43,56)         46.4982                                         !
 ! D129  D(41,42,43,57)        -70.7773                                         !
 ! D130  D(54,42,43,44)         43.5281                                         !
 ! D131  D(54,42,43,56)        -77.1986                                         !
 ! D132  D(54,42,43,57)        165.526                                          !
 ! D133  D(55,42,43,44)        -72.6081                                         !
 ! D134  D(55,42,43,56)        166.6652                                         !
 ! D135  D(55,42,43,57)         49.3898                                         !
 ! D136  D(42,43,44,45)        -91.2944                                         !
 ! D137  D(42,43,44,58)        113.8448                                         !
 ! D138  D(56,43,44,45)         31.0317                                         !
 ! D139  D(56,43,44,58)       -123.8291                                         !
 ! D140  D(57,43,44,45)        145.5504                                         !
 ! D141  D(57,43,44,58)         -9.3103                                         !
 ! D142  D(43,44,45,46)         23.8943                                         !
 ! D143  D(43,44,45,47)       -156.155                                          !
 ! D144  D(58,44,45,46)        179.1914                                         !
 ! D145  D(58,44,45,47)         -0.8579                                         !
 ! D146  D(44,45,46,59)         11.9861                                         !
 ! D147  D(44,45,46,60)       -174.0166                                         !
 ! D148  D(47,45,46,59)       -167.9635                                         !
 ! D149  D(47,45,46,60)          6.0337                                         !
 ! D150  D(44,45,47,61)       -175.2754                                         !
 ! D151  D(44,45,47,62)         36.9792                                         !
 ! D152  D(46,45,47,61)          4.6754                                         !
 ! D153  D(46,45,47,62)       -143.0701                                         !
 --------------------------------------------------------------------------------
 Symmetry turned off by external request.
 Stoichiometry    C17H33N6O6(1+)
 Framework group  C1[X(C17H33N6O6)]
 Deg. of freedom   180
 Full point group                 C1      NOp   1
                          Input orientation:                          
 ---------------------------------------------------------------------
 Center     Atomic      Atomic             Coordinates (Angstroms)
 Number     Number       Type             X           Y           Z
 ---------------------------------------------------------------------
      1          7           0       13.206807   18.422824   11.066200
      2          6           0       12.746157   17.051576   11.340952
      3          6           0       13.889321   16.204249   11.930165
      4          8           0       14.745985   15.721328   11.202866
      5          6           0       12.215401   16.422890   10.048023
      6          6           0       11.366109   15.168759   10.296552
      7          6           0       10.044252   15.512368   10.959318
      8          8           0        9.377896   16.488986   10.665133
      9          8           0        9.585502   14.691971   11.929722
     10          1           0       10.178292   13.930534   12.051722
     11          1           0       11.919901   17.125129   12.057002
     12          1           0       13.067818   16.156967    9.416489
     13          1           0       11.609766   17.167154    9.523274
     14          1           0       11.123411   14.689513    9.339263
     15          1           0       11.925542   14.432301   10.886683
     16          1           0       13.747870   18.761735   11.863599
     17          1           0       13.858248   18.392176   10.280894
     18          7           0       13.950087   16.042424   13.296063
     19          6           0       13.099285   16.598909   14.327365
     20          6           0       13.318272   18.123523   14.514213
     21          8           0       14.201139   18.748037   13.939172
     22          6           0       13.298668   15.818588   15.643435
     23          6           0       12.977263   14.313306   15.551148
     24          6           0       13.246611   13.643354   16.906124
     25          6           0       11.533669   14.056989   15.094062
     26          1           0       14.833691   15.646097   13.598894
     27          1           0       12.052813   16.475984   14.021820
     28          1           0       12.669418   16.267000   16.423506
     29          1           0       14.336368   15.957721   15.975881
     30          1           0       13.650100   13.864940   14.808334
     31          1           0       14.280254   13.803679   17.232477
     32          1           0       12.583112   14.045597   17.682443
     33          1           0       13.077017   12.562939   16.849551
     34          1           0       11.343259   14.440378   14.083635
     35          1           0       11.316483   12.983410   15.087864
     36          1           0       10.814657   14.534479   15.773546
     37          7           0       12.389244   18.726917   15.309672
     38          6           0       12.283674   20.175167   15.472192
     39          6           0       11.137650   20.433611   16.431676
     40          8           0       10.144523   19.722467   16.512027
     41          6           0       12.003039   20.975928   14.159280
     42          6           0       10.644487   20.722441   13.476747
     43          6           0       10.593720   19.331162   12.830354
     44          7           0        9.263013   18.872763   12.410888
     45          6           0        8.448282   18.160170   13.197630
     46          7           0        8.562300   18.212921   14.532671
     47          7           0        7.509212   17.388451   12.618717
     48          8           0       11.293622   21.561015   17.119435
     49          1           0       10.494555   21.708711   17.663294
     50          1           0       11.663640   18.171416   15.744428
     51          1           0       13.213377   20.561951   15.899437
     52          1           0       12.823990   20.753057   13.472458
     53          1           0       12.083357   22.036546   14.419759
     54          1           0        9.821821   20.849535   14.190762
     55          1           0       10.490120   21.484860   12.705416
     56          1           0       10.974888   18.588567   13.528069
     57          1           0       11.244937   19.306960   11.950793
     58          1           0        9.108517   18.757864   11.416656
     59          1           0        9.124787   18.900095   15.032082
     60          1           0        8.001065   17.601381   15.107434
     61          1           0        6.839523   16.899679   13.196228
     62          1           0        7.789477   16.928139   11.749746
 ---------------------------------------------------------------------
 Rotational constants (GHZ):           0.1746803           0.1377888           0.1166922
 Standard basis: 6-31G(d) (6D, 7F)
   501 basis functions,   944 primitive gaussians,   501 cartesian basis functions
   112 alpha electrons      112 beta electrons
       nuclear repulsion energy      3278.1004245800 Hartrees.
 NAtoms=   62 NActive=   62 NUniq=   62 SFac= 1.00D+00 NAtFMM=   60 NAOKFM=T Big=T
 Integral buffers will be    131072 words long.
 Raffenetti 2 integral format.
 Two-electron integral symmetry is turned off.
 Nuclear repulsion after empirical dispersion term =     3278.0105481057 Hartrees.
 One-electron integrals computed using PRISM.
 NBasis=   501 RedAO= T EigKep=  1.76D-03  NBF=   501
 NBsUse=   501 1.00D-06 EigRej= -1.00D+00 NBFU=   501
 Initial guess from the checkpoint file:  "conf-239.chk"
 B after Tr=     0.000000    0.000000    0.000000
         Rot=    1.000000    0.000000    0.000000    0.000000 Ang=   0.00 deg.
 Requested convergence on RMS density matrix=1.00D-08 within 128 cycles.
 Requested convergence on MAX density matrix=1.00D-06.
 Requested convergence on             energy=1.00D-06.
 No special actions if energy rises.
 SCF Done:  E(RB3LYP) =  -1447.50178038     A.U. after    2 cycles
            NFock=  2  Conv=0.76D-08     -V/T= 2.0093

 **********************************************************************

            Population analysis using the SCF Density.

 **********************************************************************

 Alpha  occ. eigenvalues --  -19.33384 -19.32743 -19.28393 -19.27026 -19.23481
 Alpha  occ. eigenvalues --  -19.20451 -14.51409 -14.50979 -14.50057 -14.48329
 Alpha  occ. eigenvalues --  -14.45722 -14.41474 -10.47316 -10.46199 -10.45187
 Alpha  occ. eigenvalues --  -10.40415 -10.37802 -10.36557 -10.35121 -10.34343
 Alpha  occ. eigenvalues --  -10.32416 -10.31937 -10.30987 -10.30900 -10.30155
 Alpha  occ. eigenvalues --  -10.29344 -10.29085 -10.28199 -10.26430  -1.24686
 Alpha  occ. eigenvalues --   -1.23230  -1.16002  -1.15766  -1.15335  -1.14724
 Alpha  occ. eigenvalues --   -1.12556  -1.05258  -1.04833  -1.03841  -1.02422
 Alpha  occ. eigenvalues --   -0.98734  -0.92693  -0.91322  -0.90316  -0.88287
 Alpha  occ. eigenvalues --   -0.84806  -0.81607  -0.80995  -0.78583  -0.78020
 Alpha  occ. eigenvalues --   -0.76673  -0.75451  -0.74684  -0.73420  -0.72972
 Alpha  occ. eigenvalues --   -0.72565  -0.69772  -0.69042  -0.67412  -0.66558
 Alpha  occ. eigenvalues --   -0.65563  -0.64880  -0.64506  -0.63095  -0.62682
 Alpha  occ. eigenvalues --   -0.61503  -0.61297  -0.60246  -0.59696  -0.59329
 Alpha  occ. eigenvalues --   -0.58928  -0.58028  -0.57638  -0.57108  -0.56739
 Alpha  occ. eigenvalues --   -0.56563  -0.55965  -0.54725  -0.54330  -0.54063
 Alpha  occ. eigenvalues --   -0.53621  -0.52780  -0.52702  -0.51742  -0.50986
 Alpha  occ. eigenvalues --   -0.50480  -0.50156  -0.49456  -0.49135  -0.48477
 Alpha  occ. eigenvalues --   -0.48001  -0.47727  -0.47324  -0.46785  -0.46518
 Alpha  occ. eigenvalues --   -0.46210  -0.45560  -0.45237  -0.44816  -0.44253
 Alpha  occ. eigenvalues --   -0.43293  -0.42852  -0.42713  -0.42666  -0.41902
 Alpha  occ. eigenvalues --   -0.40670  -0.39990  -0.37624  -0.37067  -0.36398
 Alpha  occ. eigenvalues --   -0.34816  -0.32505
 Alpha virt. eigenvalues --   -0.13313  -0.12428  -0.11984  -0.10131  -0.08226
 Alpha virt. eigenvalues --   -0.07230  -0.06524  -0.04909  -0.04145  -0.02760
 Alpha virt. eigenvalues --   -0.02484  -0.01380  -0.00859  -0.00473   0.01076
 Alpha virt. eigenvalues --    0.01243   0.01549   0.02238   0.03360   0.03508
 Alpha virt. eigenvalues --    0.03800   0.04001   0.04849   0.05305   0.05550
 Alpha virt. eigenvalues --    0.05570   0.05771   0.06593   0.06878   0.07764
 Alpha virt. eigenvalues --    0.08160   0.08370   0.08506   0.09198   0.09348
 Alpha virt. eigenvalues --    0.09687   0.10116   0.10489   0.10664   0.11082
 Alpha virt. eigenvalues --    0.11292   0.11920   0.12524   0.12858   0.13472
 Alpha virt. eigenvalues --    0.13517   0.13598   0.14488   0.14762   0.15648
 Alpha virt. eigenvalues --    0.16457   0.16891   0.17427   0.17980   0.18593
 Alpha virt. eigenvalues --    0.20260   0.20415   0.22677   0.23417   0.24268
 Alpha virt. eigenvalues --    0.25540   0.26392   0.27848   0.28477   0.30372
 Alpha virt. eigenvalues --    0.33045   0.36387   0.38051   0.38338   0.38889
 Alpha virt. eigenvalues --    0.39764   0.40146   0.40763   0.41117   0.41812
 Alpha virt. eigenvalues --    0.42189   0.42341   0.42847   0.43322   0.44426
 Alpha virt. eigenvalues --    0.44631   0.45929   0.46475   0.47841   0.48680
 Alpha virt. eigenvalues --    0.49319   0.49540   0.49716   0.49886   0.51186
 Alpha virt. eigenvalues --    0.51547   0.52501   0.53219   0.53842   0.54111
 Alpha virt. eigenvalues --    0.54232   0.54893   0.55115   0.55524   0.55970
 Alpha virt. eigenvalues --    0.57423   0.58032   0.58831   0.59002   0.59537
 Alpha virt. eigenvalues --    0.60406   0.61461   0.61779   0.62513   0.62930
 Alpha virt. eigenvalues --    0.63210   0.63942   0.64655   0.65333   0.66234
 Alpha virt. eigenvalues --    0.67106   0.68042   0.68133   0.68689   0.70221
 Alpha virt. eigenvalues --    0.70779   0.71510   0.71687   0.72463   0.72866
 Alpha virt. eigenvalues --    0.73224   0.74467   0.74672   0.74923   0.75263
 Alpha virt. eigenvalues --    0.75758   0.75873   0.76069   0.76827   0.77428
 Alpha virt. eigenvalues --    0.78015   0.78496   0.78593   0.79416   0.80180
 Alpha virt. eigenvalues --    0.80340   0.80814   0.81290   0.82097   0.82299
 Alpha virt. eigenvalues --    0.82498   0.83093   0.83505   0.84111   0.84179
 Alpha virt. eigenvalues --    0.84863   0.85297   0.85447   0.86416   0.86489
 Alpha virt. eigenvalues --    0.87183   0.87601   0.88002   0.88775   0.89421
 Alpha virt. eigenvalues --    0.89738   0.90118   0.90555   0.91291   0.91547
 Alpha virt. eigenvalues --    0.93697   0.94650   0.95355   0.96024   0.96781
 Alpha virt. eigenvalues --    0.98352   0.98505   0.99263   1.00332   1.00745
 Alpha virt. eigenvalues --    1.02826   1.04330   1.04854   1.05520   1.07008
 Alpha virt. eigenvalues --    1.07519   1.07603   1.08193   1.09657   1.10612
 Alpha virt. eigenvalues --    1.11732   1.12846   1.14016   1.15959   1.16771
 Alpha virt. eigenvalues --    1.18026   1.19156   1.19893   1.20897   1.22802
 Alpha virt. eigenvalues --    1.24291   1.25742   1.26009   1.27459   1.27578
 Alpha virt. eigenvalues --    1.28979   1.30619   1.31964   1.33138   1.34422
 Alpha virt. eigenvalues --    1.35577   1.36201   1.36259   1.36844   1.38017
 Alpha virt. eigenvalues --    1.40787   1.41040   1.42343   1.44304   1.45244
 Alpha virt. eigenvalues --    1.45629   1.47189   1.48468   1.49688   1.50544
 Alpha virt. eigenvalues --    1.52500   1.53378   1.54708   1.55426   1.56476
 Alpha virt. eigenvalues --    1.57498   1.59142   1.59520   1.60124   1.60441
 Alpha virt. eigenvalues --    1.60863   1.61812   1.62414   1.62988   1.64329
 Alpha virt. eigenvalues --    1.64798   1.65867   1.66450   1.67468   1.67989
 Alpha virt. eigenvalues --    1.68855   1.69373   1.70007   1.70857   1.71053
 Alpha virt. eigenvalues --    1.72314   1.73273   1.73916   1.74349   1.75098
 Alpha virt. eigenvalues --    1.75891   1.76746   1.77177   1.78742   1.79637
 Alpha virt. eigenvalues --    1.79938   1.81121   1.81517   1.81592   1.82440
 Alpha virt. eigenvalues --    1.83084   1.83886   1.85234   1.85855   1.86747
 Alpha virt. eigenvalues --    1.87458   1.88014   1.88643   1.89031   1.89378
 Alpha virt. eigenvalues --    1.91198   1.92191   1.92703   1.93224   1.95314
 Alpha virt. eigenvalues --    1.95974   1.96145   1.96991   1.97595   1.98218
 Alpha virt. eigenvalues --    1.98600   1.99428   2.00364   2.00439   2.01664
 Alpha virt. eigenvalues --    2.03434   2.04599   2.07018   2.08021   2.08712
 Alpha virt. eigenvalues --    2.10788   2.11466   2.13434   2.13895   2.14196
 Alpha virt. eigenvalues --    2.14847   2.16162   2.16527   2.17589   2.18605
 Alpha virt. eigenvalues --    2.21160   2.22135   2.23063   2.24485   2.25190
 Alpha virt. eigenvalues --    2.25705   2.28173   2.28900   2.30286   2.31198
 Alpha virt. eigenvalues --    2.31998   2.32469   2.34179   2.34341   2.35078
 Alpha virt. eigenvalues --    2.36238   2.38496   2.39822   2.40429   2.41108
 Alpha virt. eigenvalues --    2.41910   2.42601   2.43280   2.44967   2.45838
 Alpha virt. eigenvalues --    2.46732   2.47470   2.48625   2.49806   2.52386
 Alpha virt. eigenvalues --    2.52858   2.53653   2.54139   2.55073   2.55753
 Alpha virt. eigenvalues --    2.58765   2.59394   2.60999   2.62252   2.64346
 Alpha virt. eigenvalues --    2.64711   2.65986   2.68634   2.70835   2.72072
 Alpha virt. eigenvalues --    2.72908   2.74561   2.78205   2.82153   2.86314
 Alpha virt. eigenvalues --    2.88098   2.89427   2.89537   2.91841   2.94657
 Alpha virt. eigenvalues --    2.95065   2.97041   2.97900   3.04655   3.08990
 Alpha virt. eigenvalues --    3.69676   3.75412   3.75587   3.80846   3.84890
 Alpha virt. eigenvalues --    3.85448   3.88297   3.97035   4.01738   4.03406
 Alpha virt. eigenvalues --    4.05105   4.06338   4.10303   4.12248   4.13490
 Alpha virt. eigenvalues --    4.19553   4.20120   4.23342   4.26588   4.26844
 Alpha virt. eigenvalues --    4.33371   4.34168   4.39153   4.43853   4.45763
 Alpha virt. eigenvalues --    4.48282   4.55786   4.58173   4.63883
          Condensed to atoms (all electrons):
 Mulliken charges:
               1
     1  N   -0.754636
     2  C   -0.060678
     3  C    0.595023
     4  O   -0.498701
     5  C   -0.275625
     6  C   -0.391429
     7  C    0.616331
     8  O   -0.491945
     9  O   -0.563992
    10  H    0.435650
    11  H    0.111047
    12  H    0.194915
    13  H    0.176384
    14  H    0.218680
    15  H    0.168193
    16  H    0.352529
    17  H    0.327122
    18  N   -0.597697
    19  C   -0.073360
    20  C    0.624993
    21  O   -0.510814
    22  C   -0.295255
    23  C   -0.067231
    24  C   -0.448050
    25  C   -0.459693
    26  H    0.345959
    27  H    0.152521
    28  H    0.140533
    29  H    0.168072
    30  H    0.147318
    31  H    0.159988
    32  H    0.146372
    33  H    0.162983
    34  H    0.113979
    35  H    0.166993
    36  H    0.138606
    37  N   -0.632187
    38  C    0.009079
    39  C    0.590330
    40  O   -0.505079
    41  C   -0.312149
    42  C   -0.287731
    43  C   -0.205297
    44  N   -0.572886
    45  C    0.775072
    46  N   -0.794018
    47  N   -0.761394
    48  O   -0.533678
    49  H    0.437133
    50  H    0.343256
    51  H    0.215300
    52  H    0.208287
    53  H    0.185062
    54  H    0.146268
    55  H    0.181149
    56  H    0.153244
    57  H    0.243085
    58  H    0.381930
    59  H    0.427548
    60  H    0.368885
    61  H    0.361690
    62  H    0.402016
 Sum of Mulliken charges =   1.00000
 Mulliken charges with hydrogens summed into heavy atoms:
               1
     1  N   -0.074985
     2  C    0.050369
     3  C    0.595023
     4  O   -0.498701
     5  C    0.095674
     6  C   -0.004557
     7  C    0.616331
     8  O   -0.491945
     9  O   -0.128342
    18  N   -0.251737
    19  C    0.079161
    20  C    0.624993
    21  O   -0.510814
    22  C    0.013350
    23  C    0.080087
    24  C    0.021294
    25  C   -0.040115
    37  N   -0.288931
    38  C    0.224379
    39  C    0.590330
    40  O   -0.505079
    41  C    0.081200
    42  C    0.039687
    43  C    0.191032
    44  N   -0.190957
    45  C    0.775072
    46  N    0.002414
    47  N    0.002313
    48  O   -0.096545
 Electronic spatial extent (au):  <R**2>=         509651.0794
 Charge=              1.0000 electrons
 Dipole moment (field-independent basis, Debye):
    X=             46.7669    Y=             84.0480    Z=             68.8817  Tot=            118.3043
 Quadrupole moment (field-independent basis, Debye-Ang):
   XX=            289.3569   YY=           1341.5515   ZZ=            843.5773
   XY=            817.2451   XZ=            681.0226   YZ=           1218.9666
 Traceless Quadrupole moment (field-independent basis, Debye-Ang):
   XX=           -535.4716   YY=            516.7229   ZZ=             18.7487
   XY=            817.2451   XZ=            681.0226   YZ=           1218.9666
 Octapole moment (field-independent basis, Debye-Ang**2):
  XXX=          -1473.7231  YYY=          18999.6717  ZZZ=           8318.6636  XYY=          12742.6356
  XXY=           5042.4883  XXZ=           4553.0765  XZZ=           8199.5725  YZZ=          15173.2813
  YYZ=          19862.2632  XYZ=          12010.0192
 Hexadecapole moment (field-independent basis, Debye-Ang**3):
 XXXX=        -100320.8955 YYYY=         211523.1648 ZZZZ=          40878.1772 XXXY=         -25515.2776
 XXXZ=         -11309.9668 YYYX=         169682.0189 YYYZ=         292378.7406 ZZZX=          74475.3646
 ZZZY=         154585.4025 XXYY=          68046.1809 XXZZ=          49138.8117 YYZZ=         248884.0657
 XXYZ=          79798.7491 YYXZ=         191366.5032 ZZXY=         146797.1113
 N-N= 3.278010548106D+03 E-N=-9.904354808518D+03  KE= 1.434112081663D+03
 Unable to Open any file for archive entry.
 1\1\GINC-VIM-000\SP\RB3LYP\6-31G(d)\C17H33N6O6(1+)\KENGMITH\24-May-202
 2\0\\# B3LYP/6-31G* empiricaldispersion=gd3 guess=read geom=check nosy
 mm integral(ultrafinegrid)\\Candidate Structure: Conf:239 Charge calc 
 in gas phase\\1,1\N,0,13.2068066715,18.4228240661,11.0662004209\C,0,12
 .7461565333,17.0515758182,11.3409520291\C,0,13.8893206039,16.204249338
 5,11.9301654283\O,0,14.745985142,15.7213281522,11.2028655147\C,0,12.21
 54007585,16.4228895366,10.0480231638\C,0,11.3661093857,15.1687592663,1
 0.2965515706\C,0,10.0442523462,15.5123684713,10.9593175793\O,0,9.37789
 62415,16.4889860982,10.6651334695\O,0,9.5855020655,14.6919713605,11.92
 97221817\H,0,10.1782915716,13.9305338507,12.0517223197\H,0,11.91990079
 1,17.125129149,12.0570024126\H,0,13.0678183463,16.156966879,9.41648945
 04\H,0,11.6097658525,17.1671543322,9.5232743115\H,0,11.1234112882,14.6
 895133977,9.339263076\H,0,11.9255419005,14.4323010793,10.8866828707\H,
 0,13.7478699296,18.7617346361,11.8635990192\H,0,13.8582480819,18.39217
 56726,10.2808940063\N,0,13.9500869357,16.0424239567,13.2960629996\C,0,
 13.0992851601,16.5989086353,14.3273651345\C,0,13.318272295,18.12352333
 53,14.5142133244\O,0,14.2011391447,18.7480367476,13.9391720901\C,0,13.
 29866822,15.8185880515,15.6434353588\C,0,12.9772633351,14.3133057221,1
 5.551148174\C,0,13.2466114647,13.6433539262,16.9061242679\C,0,11.53366
 88265,14.0569887182,15.0940615363\H,0,14.8336910553,15.6460971416,13.5
 988937731\H,0,12.0528133286,16.4759843262,14.021820171\H,0,12.66941819
 55,16.266999535,16.4235055757\H,0,14.3363679283,15.9577205646,15.97588
 0881\H,0,13.6501002622,13.8649403483,14.8083342742\H,0,14.2802537336,1
 3.8036788409,17.2324769626\H,0,12.5831117989,14.0455971285,17.68244266
 81\H,0,13.0770173698,12.5629386493,16.8495512916\H,0,11.3432590099,14.
 4403780384,14.0836347251\H,0,11.3164831665,12.9834101417,15.0878638682
 \H,0,10.8146571857,14.5344787069,15.7735460241\N,0,12.3892438028,18.72
 69165729,15.3096721807\C,0,12.2836740056,20.1751670243,15.4721918711\C
 ,0,11.1376495618,20.4336113198,16.4316758903\O,0,10.1445228505,19.7224
 671388,16.5120265885\C,0,12.0030388298,20.9759280318,14.159279735\C,0,
 10.6444874426,20.722440834,13.4767465142\C,0,10.5937202096,19.33116226
 45,12.8303540484\N,0,9.2630130975,18.8727625205,12.4108876796\C,0,8.44
 82819898,18.160169881,13.1976300459\N,0,8.5623002403,18.2129214691,14.
 5326712799\N,0,7.5092120904,17.3884506545,12.6187169945\O,0,11.2936221
 464,21.5610145249,17.119434779\H,0,10.4945554435,21.7087106221,17.6632
 940983\H,0,11.6636398808,18.1714156155,15.7444277346\H,0,13.2133771478
 ,20.5619507533,15.8994372211\H,0,12.8239897932,20.7530567742,13.472457
 7558\H,0,12.0833573108,22.0365457848,14.4197586491\H,0,9.8218212976,20
 .8495348703,14.1907616961\H,0,10.4901197698,21.484860338,12.7054156699
 \H,0,10.9748884066,18.5885672653,13.5280690033\H,0,11.2449371606,19.30
 69600744,11.9507927955\H,0,9.108517245,18.7578644172,11.4166557757\H,0
 ,9.1247873107,18.9000947433,15.0320821272\H,0,8.0010653545,17.60138097
 34,15.107434328\H,0,6.8395227318,16.8996792862,13.196227685\H,0,7.7894
 773842,16.928138827,11.7497462984\\Version=ES64L-G16RevC.01\HF=-1447.5
 017804\RMSD=7.645e-09\Dipole=-3.5052734,0.0665305,1.4696312\Quadrupole
 =-398.1100304,384.1708152,13.9392152,607.601681,506.3235884,906.271763
 9\PG=C01 [X(C17H33N6O6)]\\@
 The archive entry for this job was punched.


 CHRISTMAS IS ON TOP OF A STEEP HILL.
 THE CLOSER YOU GET, THE STEEPER THE HILL IS.
          -- LINUS, OF PEANUTS
 Job cpu time:       0 days  0 hours  2 minutes 46.1 seconds.
 Elapsed time:       0 days  0 hours  0 minutes 42.0 seconds.
 File lengths (MBytes):  RWF=    248 Int=      0 D2E=      0 Chk=     32 Scr=     16
 Normal termination of Gaussian 16 at Tue May 24 03:34:21 2022.
