 Entering Gaussian System, Link 0=/opt/software/Gaussian/g16-AVX2-C.01/g16/g16
 Input=charge-conf-896.com
 Output=charge-conf-896.log
 Initial command:
 /opt/software/Gaussian/g16-AVX2-C.01/g16/l1.exe "/mnt/gs18/scratch/users/kengmith/Gau-5062.inp" -scrdir="/mnt/gs18/scratch/users/kengmith/"
 Entering Link 1 = /opt/software/Gaussian/g16-AVX2-C.01/g16/l1.exe PID=      5072.
  
 Copyright (c) 1988-2019, Gaussian, Inc.  All Rights Reserved.
  
 This is part of the Gaussian(R) 16 program.  It is based on
 the Gaussian(R) 09 system (copyright 2009, Gaussian, Inc.),
 the Gaussian(R) 03 system (copyright 2003, Gaussian, Inc.),
 the Gaussian(R) 98 system (copyright 1998, Gaussian, Inc.),
 the Gaussian(R) 94 system (copyright 1995, Gaussian, Inc.),
 the Gaussian 92(TM) system (copyright 1992, Gaussian, Inc.),
 the Gaussian 90(TM) system (copyright 1990, Gaussian, Inc.),
 the Gaussian 88(TM) system (copyright 1988, Gaussian, Inc.),
 the Gaussian 86(TM) system (copyright 1986, Carnegie Mellon
 University), and the Gaussian 82(TM) system (copyright 1983,
 Carnegie Mellon University). Gaussian is a federally registered
 trademark of Gaussian, Inc.
  
 This software contains proprietary and confidential information,
 including trade secrets, belonging to Gaussian, Inc.
  
 This software is provided under written license and may be
 used, copied, transmitted, or stored only in accord with that
 written license.
  
 The following legend is applicable only to US Government
 contracts under FAR:
  
                    RESTRICTED RIGHTS LEGEND
  
 Use, reproduction and disclosure by the US Government is
 subject to restrictions as set forth in subparagraphs (a)
 and (c) of the Commercial Computer Software - Restricted
 Rights clause in FAR 52.227-19.
  
 Gaussian, Inc.
 340 Quinnipiac St., Bldg. 40, Wallingford CT 06492
  
  
 ---------------------------------------------------------------
 Warning -- This program may not be used in any manner that
 competes with the business of Gaussian, Inc. or will provide
 assistance to any competitor of Gaussian, Inc.  The licensee
 of this program is prohibited from giving any competitor of
 Gaussian, Inc. access to this program.  By using this program,
 the user acknowledges that Gaussian, Inc. is engaged in the
 business of creating and licensing software in the field of
 computational chemistry and represents and warrants to the
 licensee that it is not a competitor of Gaussian, Inc. and that
 it will not use this program in any manner prohibited above.
 ---------------------------------------------------------------
  

 Cite this work as:
 Gaussian 16, Revision C.01,
 M. J. Frisch, G. W. Trucks, H. B. Schlegel, G. E. Scuseria, 
 M. A. Robb, J. R. Cheeseman, G. Scalmani, V. Barone, 
 G. A. Petersson, H. Nakatsuji, X. Li, M. Caricato, A. V. Marenich, 
 J. Bloino, B. G. Janesko, R. Gomperts, B. Mennucci, H. P. Hratchian, 
 J. V. Ortiz, A. F. Izmaylov, J. L. Sonnenberg, D. Williams-Young, 
 F. Ding, F. Lipparini, F. Egidi, J. Goings, B. Peng, A. Petrone, 
 T. Henderson, D. Ranasinghe, V. G. Zakrzewski, J. Gao, N. Rega, 
 G. Zheng, W. Liang, M. Hada, M. Ehara, K. Toyota, R. Fukuda, 
 J. Hasegawa, M. Ishida, T. Nakajima, Y. Honda, O. Kitao, H. Nakai, 
 T. Vreven, K. Throssell, J. A. Montgomery, Jr., J. E. Peralta, 
 F. Ogliaro, M. J. Bearpark, J. J. Heyd, E. N. Brothers, K. N. Kudin, 
 V. N. Staroverov, T. A. Keith, R. Kobayashi, J. Normand, 
 K. Raghavachari, A. P. Rendell, J. C. Burant, S. S. Iyengar, 
 J. Tomasi, M. Cossi, J. M. Millam, M. Klene, C. Adamo, R. Cammi, 
 J. W. Ochterski, R. L. Martin, K. Morokuma, O. Farkas, 
 J. B. Foresman, and D. J. Fox, Gaussian, Inc., Wallingford CT, 2019.
 
 ******************************************
 Gaussian 16:  ES64L-G16RevC.01  3-Jul-2019
                24-May-2022 
 ******************************************
 %mem=8gb
 %nproc=4
 Will use up to    4 processors via shared memory.
 %chk=conf-896.chk
 ----------------------------------------------------------------------
 # B3LYP/6-31G* empiricaldispersion=gd3 guess=read geom=check nosymm in
 tegral(ultrafinegrid)
 ----------------------------------------------------------------------
 1/29=2,38=1,172=1/1;
 2/12=2,15=1,40=1/2;
 3/5=1,6=6,7=1,11=2,14=-4,25=1,30=1,74=-5,75=-5,116=-2,124=31/1,2,3;
 4/5=1/1;
 5/5=2,38=6/2;
 6/7=2,8=2,9=2,10=2,28=1/1;
 99/5=1,9=1/99;
 ------------------------------------------------------
 Candidate Structure: Conf:896 Charge calc in gas phase
 ------------------------------------------------------
 Structure from the checkpoint file:  "conf-896.chk"
 Charge =  1 Multiplicity = 1
 Redundant internal coordinates found in file.  (old form).
 N,0,13.539620804,17.3446783684,11.5186527356
 C,0,13.9205360539,16.6872936996,12.7790195453
 C,0,14.8901973146,17.6235615983,13.5238175564
 O,0,16.0753195593,17.6719081891,13.2353420161
 C,0,14.6492293769,15.3668882646,12.4830936175
 C,0,13.8872390877,14.4493856493,11.4974260679
 C,0,12.528250611,14.0700429589,12.0270624656
 O,0,11.561106842,14.8246544776,12.0066929101
 O,0,12.3640094431,12.8702647324,12.6019673095
 H,0,13.1805621697,12.3432926378,12.5572064444
 H,0,13.0486132944,16.4733645738,13.4164662704
 H,0,14.8458431845,14.8356969646,13.4233503864
 H,0,15.6143283626,15.6128922158,12.0341684709
 H,0,13.7428856564,14.9905189753,10.5585293022
 H,0,14.4859839856,13.5571835284,11.2832356158
 H,0,12.6461524633,16.9806154075,11.1986289266
 H,0,13.4390608252,18.3499911508,11.6429520875
 N,0,14.3651854467,18.4267698062,14.5040150201
 C,0,13.0094964236,18.4979690538,15.0040442147
 C,0,12.0455894633,19.1247409023,13.9692398158
 O,0,12.416454639,19.9274455974,13.1272829904
 C,0,12.9448899522,19.3562564265,16.2917688217
 C,0,13.4237592919,18.6731300425,17.5900082745
 C,0,14.9078134257,18.2778189416,17.5744966012
 C,0,13.1271045081,19.5951326254,18.7830237037
 H,0,15.0338615732,19.0942627512,14.8683845103
 H,0,12.6549409374,17.4876738097,15.2543448928
 H,0,11.9008864541,19.6624518381,16.4381412946
 H,0,13.5054746402,20.2852970932,16.1168202029
 H,0,12.8276620809,17.7549145807,17.7135349494
 H,0,15.1976011064,17.8538760565,18.5420052771
 H,0,15.1349320685,17.5374199766,16.8025324184
 H,0,15.5438478354,19.1556653938,17.3993320051
 H,0,13.6978716351,20.528831206,18.7043602582
 H,0,12.0635286484,19.8557967727,18.8410226683
 H,0,13.4075965648,19.1139776449,19.725931883
 N,0,10.7426159298,18.7025834808,14.1077147895
 C,0,9.5880431871,19.4795893498,13.6337942629
 C,0,8.3052790802,18.7190544881,13.9644119326
 O,0,7.2901421749,18.7274679643,13.2963495309
 C,0,9.6385845223,19.9155516047,12.1586010813
 C,0,10.0200649759,18.8549111133,11.1205630114
 C,0,9.0650899773,17.6696337137,10.9584093963
 N,0,9.2882198815,16.6581238249,12.0152658457
 C,0,8.405624003,15.7186267604,12.387210328
 N,0,7.0872868375,15.9805153882,12.3661088897
 N,0,8.8574687717,14.5278357063,12.7952241928
 O,0,8.3891725926,18.0656650818,15.1429689335
 H,0,7.5116457448,17.6859228889,15.3391304074
 H,0,10.5498355943,18.1407705392,14.9281849378
 H,0,9.510467378,20.4036228956,14.2330418476
 H,0,10.3694442087,20.7214394253,12.087678586
 H,0,8.6552176702,20.3347546353,11.9204797857
 H,0,10.0748813499,19.3572051091,10.1482829319
 H,0,11.0327689227,18.491914813,11.3267245691
 H,0,9.2289504417,17.1835508134,9.9885654831
 H,0,8.0302564038,18.009304881,10.9942911456
 H,0,10.2598990403,16.3788294944,12.1243569448
 H,0,6.7708923613,16.9431607181,12.4375506651
 H,0,6.415657572,15.2459987044,12.5343349781
 H,0,8.2642140994,13.8816453244,13.2948134412
 H,0,9.8394387801,14.2889855903,12.629986901
 Recover connectivity data from disk.
                           ----------------------------
                           !    Current Parameters    !
                           ! (Angstroms and Degrees)  !
 --------------------------                            --------------------------
 ! Name  Definition              Value                                          !
 --------------------------------------------------------------------------------
 ! R1    R(1,2)                  1.4717                                         !
 ! R2    R(1,16)                 1.0165                                         !
 ! R3    R(1,17)                 1.0179                                         !
 ! R4    R(2,3)                  1.54                                           !
 ! R5    R(2,5)                  1.5369                                         !
 ! R6    R(2,11)                 1.1011                                         !
 ! R7    R(3,4)                  1.2207                                         !
 ! R8    R(3,18)                 1.3717                                         !
 ! R9    R(5,6)                  1.5472                                         !
 ! R10   R(5,12)                 1.0977                                         !
 ! R11   R(5,13)                 1.0925                                         !
 ! R12   R(6,7)                  1.5071                                         !
 ! R13   R(6,14)                 1.0932                                         !
 ! R14   R(6,15)                 1.0956                                         !
 ! R15   R(7,8)                  1.2269                                         !
 ! R16   R(7,9)                  1.3405                                         !
 ! R17   R(9,10)                 0.9729                                         !
 ! R18   R(18,19)                1.4467                                         !
 ! R19   R(18,26)                1.0126                                         !
 ! R20   R(19,20)                1.5469                                         !
 ! R21   R(19,22)                1.5489                                         !
 ! R22   R(19,27)                1.0996                                         !
 ! R23   R(20,21)                1.221                                          !
 ! R24   R(20,37)                1.3766                                         !
 ! R25   R(22,23)                1.5432                                         !
 ! R26   R(22,28)                1.0978                                         !
 ! R27   R(22,29)                1.0991                                         !
 ! R28   R(23,24)                1.5359                                         !
 ! R29   R(23,25)                1.5367                                         !
 ! R30   R(23,30)                1.1017                                         !
 ! R31   R(24,31)                1.0953                                         !
 ! R32   R(24,32)                1.0935                                         !
 ! R33   R(24,33)                1.0981                                         !
 ! R34   R(25,34)                1.0972                                         !
 ! R35   R(25,35)                1.0966                                         !
 ! R36   R(25,36)                1.0951                                         !
 ! R37   R(37,38)                1.4702                                         !
 ! R38   R(37,50)                1.0129                                         !
 ! R39   R(38,39)                1.5275                                         !
 ! R40   R(38,41)                1.5391                                         !
 ! R41   R(38,51)                1.1041                                         !
 ! R42   R(39,40)                1.2153                                         !
 ! R43   R(39,48)                1.3502                                         !
 ! R44   R(41,42)                1.5323                                         !
 ! R45   R(41,52)                1.0902                                         !
 ! R46   R(41,53)                1.0952                                         !
 ! R47   R(42,43)                1.5307                                         !
 ! R48   R(42,54)                1.0957                                         !
 ! R49   R(42,55)                1.0954                                         !
 ! R50   R(43,44)                1.4798                                         !
 ! R51   R(43,56)                1.0971                                         !
 ! R52   R(43,57)                1.0897                                         !
 ! R53   R(44,45)                1.3416                                         !
 ! R54   R(44,58)                1.0169                                         !
 ! R55   R(45,46)                1.3443                                         !
 ! R56   R(45,47)                1.3374                                         !
 ! R57   R(46,59)                1.0158                                         !
 ! R58   R(46,60)                1.0094                                         !
 ! R59   R(47,61)                1.0095                                         !
 ! R60   R(47,62)                1.024                                          !
 ! R61   R(48,49)                0.9761                                         !
 ! A1    A(2,1,16)             109.7035                                         !
 ! A2    A(2,1,17)             111.232                                          !
 ! A3    A(16,1,17)            107.7777                                         !
 ! A4    A(1,2,3)              107.7942                                         !
 ! A5    A(1,2,5)              109.974                                          !
 ! A6    A(1,2,11)             112.1874                                         !
 ! A7    A(3,2,5)              108.4764                                         !
 ! A8    A(3,2,11)             109.6787                                         !
 ! A9    A(5,2,11)             108.6635                                         !
 ! A10   A(2,3,4)              121.4058                                         !
 ! A11   A(2,3,18)             117.4261                                         !
 ! A12   A(4,3,18)             121.1497                                         !
 ! A13   A(2,5,6)              113.492                                          !
 ! A14   A(2,5,12)             109.618                                          !
 ! A15   A(2,5,13)             107.7292                                         !
 ! A16   A(6,5,12)             110.2999                                         !
 ! A17   A(6,5,13)             107.8675                                         !
 ! A18   A(12,5,13)            107.6218                                         !
 ! A19   A(5,6,7)              111.683                                          !
 ! A20   A(5,6,14)             108.5791                                         !
 ! A21   A(5,6,15)             109.773                                          !
 ! A22   A(7,6,14)             107.899                                          !
 ! A23   A(7,6,15)             110.8866                                         !
 ! A24   A(14,6,15)            107.899                                          !
 ! A25   A(6,7,8)              123.38                                           !
 ! A26   A(6,7,9)              119.1099                                         !
 ! A27   A(8,7,9)              117.4539                                         !
 ! A28   A(7,9,10)             111.2377                                         !
 ! A29   A(3,18,19)            129.3801                                         !
 ! A30   A(3,18,26)            112.9769                                         !
 ! A31   A(19,18,26)           117.5147                                         !
 ! A32   A(18,19,20)           111.8794                                         !
 ! A33   A(18,19,22)           110.7144                                         !
 ! A34   A(18,19,27)           109.6102                                         !
 ! A35   A(20,19,22)           107.7974                                         !
 ! A36   A(20,19,27)           108.8834                                         !
 ! A37   A(22,19,27)           107.8447                                         !
 ! A38   A(19,20,21)           122.576                                          !
 ! A39   A(19,20,37)           113.4686                                         !
 ! A40   A(21,20,37)           123.9497                                         !
 ! A41   A(19,22,23)           116.1792                                         !
 ! A42   A(19,22,28)           107.763                                          !
 ! A43   A(19,22,29)           108.348                                          !
 ! A44   A(23,22,28)           107.8431                                         !
 ! A45   A(23,22,29)           110.4766                                         !
 ! A46   A(28,22,29)           105.695                                          !
 ! A47   A(22,23,24)           113.9089                                         !
 ! A48   A(22,23,25)           109.1246                                         !
 ! A49   A(22,23,30)           107.1802                                         !
 ! A50   A(24,23,25)           110.4143                                         !
 ! A51   A(24,23,30)           108.025                                          !
 ! A52   A(25,23,30)           107.9732                                         !
 ! A53   A(23,24,31)           110.2632                                         !
 ! A54   A(23,24,32)           112.4638                                         !
 ! A55   A(23,24,33)           110.8253                                         !
 ! A56   A(31,24,32)           107.8521                                         !
 ! A57   A(31,24,33)           107.2816                                         !
 ! A58   A(32,24,33)           107.9612                                         !
 ! A59   A(23,25,34)           110.7637                                         !
 ! A60   A(23,25,35)           111.7725                                         !
 ! A61   A(23,25,36)           110.8176                                         !
 ! A62   A(34,25,35)           107.8222                                         !
 ! A63   A(34,25,36)           107.6016                                         !
 ! A64   A(35,25,36)           107.8979                                         !
 ! A65   A(20,37,38)           123.2856                                         !
 ! A66   A(20,37,50)           115.5761                                         !
 ! A67   A(38,37,50)           113.8782                                         !
 ! A68   A(37,38,39)           109.0622                                         !
 ! A69   A(37,38,41)           115.6513                                         !
 ! A70   A(37,38,51)           108.8173                                         !
 ! A71   A(39,38,41)           112.0906                                         !
 ! A72   A(39,38,51)           103.8999                                         !
 ! A73   A(41,38,51)           106.5868                                         !
 ! A74   A(38,39,40)           125.3844                                         !
 ! A75   A(38,39,48)           112.1916                                         !
 ! A76   A(40,39,48)           122.351                                          !
 ! A77   A(38,41,42)           117.4782                                         !
 ! A78   A(38,41,52)           107.0822                                         !
 ! A79   A(38,41,53)           106.6984                                         !
 ! A80   A(42,41,52)           107.4988                                         !
 ! A81   A(42,41,53)           109.9494                                         !
 ! A82   A(52,41,53)           107.7484                                         !
 ! A83   A(41,42,43)           116.8986                                         !
 ! A84   A(41,42,54)           107.233                                          !
 ! A85   A(41,42,55)           109.3932                                         !
 ! A86   A(43,42,54)           106.9878                                         !
 ! A87   A(43,42,55)           109.8841                                         !
 ! A88   A(54,42,55)           105.823                                          !
 ! A89   A(42,43,44)           111.0726                                         !
 ! A90   A(42,43,56)           110.0916                                         !
 ! A91   A(42,43,57)           110.3399                                         !
 ! A92   A(44,43,56)           107.8157                                         !
 ! A93   A(44,43,57)           109.4342                                         !
 ! A94   A(56,43,57)           108.0007                                         !
 ! A95   A(43,44,45)           125.2718                                         !
 ! A96   A(43,44,58)           114.1062                                         !
 ! A97   A(45,44,58)           113.9872                                         !
 ! A98   A(44,45,46)           120.2908                                         !
 ! A99   A(44,45,47)           119.0664                                         !
 ! A100  A(46,45,47)           120.6366                                         !
 ! A101  A(45,46,59)           119.2733                                         !
 ! A102  A(45,46,60)           120.5412                                         !
 ! A103  A(59,46,60)           118.0744                                         !
 ! A104  A(45,47,61)           121.4915                                         !
 ! A105  A(45,47,62)           118.8444                                         !
 ! A106  A(61,47,62)           119.6097                                         !
 ! A107  A(39,48,49)           107.9288                                         !
 ! D1    D(16,1,2,3)          -156.2404                                         !
 ! D2    D(16,1,2,5)            85.6739                                         !
 ! D3    D(16,1,2,11)          -35.3871                                         !
 ! D4    D(17,1,2,3)           -37.0924                                         !
 ! D5    D(17,1,2,5)          -155.1781                                         !
 ! D6    D(17,1,2,11)           83.7609                                         !
 ! D7    D(1,2,3,4)            -80.9351                                         !
 ! D8    D(1,2,3,18)            97.5193                                         !
 ! D9    D(5,2,3,4)             38.1099                                         !
 ! D10   D(5,2,3,18)          -143.4356                                         !
 ! D11   D(11,2,3,4)           156.6535                                         !
 ! D12   D(11,2,3,18)          -24.892                                          !
 ! D13   D(1,2,5,6)            -50.8381                                         !
 ! D14   D(1,2,5,12)          -174.6539                                         !
 ! D15   D(1,2,5,13)            68.5146                                         !
 ! D16   D(3,2,5,6)           -168.5013                                         !
 ! D17   D(3,2,5,12)            67.6828                                         !
 ! D18   D(3,2,5,13)           -49.1486                                         !
 ! D19   D(11,2,5,6)            72.3148                                         !
 ! D20   D(11,2,5,12)          -51.5011                                         !
 ! D21   D(11,2,5,13)         -168.3326                                         !
 ! D22   D(2,3,18,19)            2.9137                                         !
 ! D23   D(2,3,18,26)         -172.8062                                         !
 ! D24   D(4,3,18,19)         -178.6277                                         !
 ! D25   D(4,3,18,26)            5.6524                                         !
 ! D26   D(2,5,6,7)            -59.99                                           !
 ! D27   D(2,5,6,14)            58.8637                                         !
 ! D28   D(2,5,6,15)           176.5991                                         !
 ! D29   D(12,5,6,7)            63.4536                                         !
 ! D30   D(12,5,6,14)         -177.6927                                         !
 ! D31   D(12,5,6,15)          -59.9573                                         !
 ! D32   D(13,5,6,7)          -179.2636                                         !
 ! D33   D(13,5,6,14)          -60.4099                                         !
 ! D34   D(13,5,6,15)           57.3255                                         !
 ! D35   D(5,6,7,8)             77.4045                                         !
 ! D36   D(5,6,7,9)            -99.7954                                         !
 ! D37   D(14,6,7,8)           -41.8526                                         !
 ! D38   D(14,6,7,9)           140.9475                                         !
 ! D39   D(15,6,7,8)          -159.8176                                         !
 ! D40   D(15,6,7,9)            22.9825                                         !
 ! D41   D(6,7,9,10)            -3.4126                                         !
 ! D42   D(8,7,9,10)           179.2222                                         !
 ! D43   D(3,18,19,20)         -70.5615                                         !
 ! D44   D(3,18,19,22)         169.1735                                         !
 ! D45   D(3,18,19,27)          50.3234                                         !
 ! D46   D(26,18,19,20)        104.9952                                         !
 ! D47   D(26,18,19,22)        -15.2699                                         !
 ! D48   D(26,18,19,27)       -134.1199                                         !
 ! D49   D(18,19,20,21)        -27.8725                                         !
 ! D50   D(18,19,20,37)        152.9661                                         !
 ! D51   D(22,19,20,21)         94.0813                                         !
 ! D52   D(22,19,20,37)        -85.0801                                         !
 ! D53   D(27,19,20,21)       -149.1782                                         !
 ! D54   D(27,19,20,37)         31.6604                                         !
 ! D55   D(18,19,22,23)        -77.7674                                         !
 ! D56   D(18,19,22,28)        161.1671                                         !
 ! D57   D(18,19,22,29)         47.2435                                         !
 ! D58   D(20,19,22,23)        159.5607                                         !
 ! D59   D(20,19,22,28)         38.4952                                         !
 ! D60   D(20,19,22,29)        -75.4283                                         !
 ! D61   D(27,19,22,23)         42.1458                                         !
 ! D62   D(27,19,22,28)        -78.9198                                         !
 ! D63   D(27,19,22,29)        167.1567                                         !
 ! D64   D(19,20,37,38)        156.0196                                         !
 ! D65   D(19,20,37,50)          7.6932                                         !
 ! D66   D(21,20,37,38)        -23.1285                                         !
 ! D67   D(21,20,37,50)       -171.4549                                         !
 ! D68   D(19,22,23,24)         63.1826                                         !
 ! D69   D(19,22,23,25)       -172.93                                           !
 ! D70   D(19,22,23,30)        -56.2466                                         !
 ! D71   D(28,22,23,24)       -175.7947                                         !
 ! D72   D(28,22,23,25)        -51.9073                                         !
 ! D73   D(28,22,23,30)         64.7761                                         !
 ! D74   D(29,22,23,24)        -60.7354                                         !
 ! D75   D(29,22,23,25)         63.152                                          !
 ! D76   D(29,22,23,30)        179.8354                                         !
 ! D77   D(22,23,24,31)        176.6641                                         !
 ! D78   D(22,23,24,32)        -62.9206                                         !
 ! D79   D(22,23,24,33)         58.0293                                         !
 ! D80   D(25,23,24,31)         53.4761                                         !
 ! D81   D(25,23,24,32)        173.8913                                         !
 ! D82   D(25,23,24,33)        -65.1587                                         !
 ! D83   D(30,23,24,31)        -64.3864                                         !
 ! D84   D(30,23,24,32)         56.0288                                         !
 ! D85   D(30,23,24,33)        176.9787                                         !
 ! D86   D(22,23,25,34)        -63.6763                                         !
 ! D87   D(22,23,25,35)         56.5821                                         !
 ! D88   D(22,23,25,36)        176.9737                                         !
 ! D89   D(24,23,25,34)         62.2513                                         !
 ! D90   D(24,23,25,35)       -177.4903                                         !
 ! D91   D(24,23,25,36)        -57.0987                                         !
 ! D92   D(30,23,25,34)       -179.8544                                         !
 ! D93   D(30,23,25,35)        -59.5959                                         !
 ! D94   D(30,23,25,36)         60.7956                                         !
 ! D95   D(20,37,38,39)       -179.4543                                         !
 ! D96   D(20,37,38,41)         53.1491                                         !
 ! D97   D(20,37,38,51)        -66.7321                                         !
 ! D98   D(50,37,38,39)        -30.6499                                         !
 ! D99   D(50,37,38,41)       -158.0465                                         !
 ! D100  D(50,37,38,51)         82.0723                                         !
 ! D101  D(37,38,39,40)       -147.2045                                         !
 ! D102  D(37,38,39,48)         35.8557                                         !
 ! D103  D(41,38,39,40)        -17.8187                                         !
 ! D104  D(41,38,39,48)        165.2415                                         !
 ! D105  D(51,38,39,40)         96.8782                                         !
 ! D106  D(51,38,39,48)        -80.0616                                         !
 ! D107  D(37,38,41,42)         47.2657                                         !
 ! D108  D(37,38,41,52)        -73.6906                                         !
 ! D109  D(37,38,41,53)        171.1505                                         !
 ! D110  D(39,38,41,42)        -78.6016                                         !
 ! D111  D(39,38,41,52)        160.4421                                         !
 ! D112  D(39,38,41,53)         45.2831                                         !
 ! D113  D(51,38,41,42)        168.3563                                         !
 ! D114  D(51,38,41,52)         47.4                                            !
 ! D115  D(51,38,41,53)        -67.759                                          !
 ! D116  D(38,39,48,49)        173.8727                                         !
 ! D117  D(40,39,48,49)         -3.174                                          !
 ! D118  D(38,41,42,43)         63.9843                                         !
 ! D119  D(38,41,42,54)       -175.9915                                         !
 ! D120  D(38,41,42,55)        -61.6706                                         !
 ! D121  D(52,41,42,43)       -175.2765                                         !
 ! D122  D(52,41,42,54)        -55.2523                                         !
 ! D123  D(52,41,42,55)         59.0686                                         !
 ! D124  D(53,41,42,43)        -58.2459                                         !
 ! D125  D(53,41,42,54)         61.7784                                         !
 ! D126  D(53,41,42,55)        176.0993                                         !
 ! D127  D(41,42,43,44)        -80.6078                                         !
 ! D128  D(41,42,43,56)        160.0468                                         !
 ! D129  D(41,42,43,57)         40.934                                          !
 ! D130  D(54,42,43,44)        159.2377                                         !
 ! D131  D(54,42,43,56)         39.8923                                         !
 ! D132  D(54,42,43,57)        -79.2205                                         !
 ! D133  D(55,42,43,44)         44.8018                                         !
 ! D134  D(55,42,43,56)        -74.5436                                         !
 ! D135  D(55,42,43,57)        166.3436                                         !
 ! D136  D(42,43,44,45)        159.9489                                         !
 ! D137  D(42,43,44,58)        -50.5091                                         !
 ! D138  D(56,43,44,45)        -79.353                                          !
 ! D139  D(56,43,44,58)         70.189                                          !
 ! D140  D(57,43,44,45)         37.8789                                         !
 ! D141  D(57,43,44,58)       -172.5791                                         !
 ! D142  D(43,44,45,46)        -34.1347                                         !
 ! D143  D(43,44,45,47)        146.7668                                         !
 ! D144  D(58,44,45,46)        176.2921                                         !
 ! D145  D(58,44,45,47)         -2.8064                                         !
 ! D146  D(44,45,46,59)        -24.4167                                         !
 ! D147  D(44,45,46,60)        172.4147                                         !
 ! D148  D(47,45,46,59)        154.6676                                         !
 ! D149  D(47,45,46,60)         -8.5011                                         !
 ! D150  D(44,45,47,61)        164.5127                                         !
 ! D151  D(44,45,47,62)        -12.7914                                         !
 ! D152  D(46,45,47,61)        -14.5827                                         !
 ! D153  D(46,45,47,62)        168.1132                                         !
 --------------------------------------------------------------------------------
 Symmetry turned off by external request.
 Stoichiometry    C17H33N6O6(1+)
 Framework group  C1[X(C17H33N6O6)]
 Deg. of freedom   180
 Full point group                 C1      NOp   1
                          Input orientation:                          
 ---------------------------------------------------------------------
 Center     Atomic      Atomic             Coordinates (Angstroms)
 Number     Number       Type             X           Y           Z
 ---------------------------------------------------------------------
      1          7           0       13.539621   17.344678   11.518653
      2          6           0       13.920536   16.687294   12.779020
      3          6           0       14.890197   17.623562   13.523818
      4          8           0       16.075320   17.671908   13.235342
      5          6           0       14.649229   15.366888   12.483094
      6          6           0       13.887239   14.449386   11.497426
      7          6           0       12.528251   14.070043   12.027062
      8          8           0       11.561107   14.824654   12.006693
      9          8           0       12.364009   12.870265   12.601967
     10          1           0       13.180562   12.343293   12.557206
     11          1           0       13.048613   16.473365   13.416466
     12          1           0       14.845843   14.835697   13.423350
     13          1           0       15.614328   15.612892   12.034168
     14          1           0       13.742886   14.990519   10.558529
     15          1           0       14.485984   13.557184   11.283236
     16          1           0       12.646152   16.980615   11.198629
     17          1           0       13.439061   18.349991   11.642952
     18          7           0       14.365185   18.426770   14.504015
     19          6           0       13.009496   18.497969   15.004044
     20          6           0       12.045589   19.124741   13.969240
     21          8           0       12.416455   19.927446   13.127283
     22          6           0       12.944890   19.356256   16.291769
     23          6           0       13.423759   18.673130   17.590008
     24          6           0       14.907813   18.277819   17.574497
     25          6           0       13.127105   19.595133   18.783024
     26          1           0       15.033862   19.094263   14.868385
     27          1           0       12.654941   17.487674   15.254345
     28          1           0       11.900886   19.662452   16.438141
     29          1           0       13.505475   20.285297   16.116820
     30          1           0       12.827662   17.754915   17.713535
     31          1           0       15.197601   17.853876   18.542005
     32          1           0       15.134932   17.537420   16.802532
     33          1           0       15.543848   19.155665   17.399332
     34          1           0       13.697872   20.528831   18.704360
     35          1           0       12.063529   19.855797   18.841023
     36          1           0       13.407597   19.113978   19.725932
     37          7           0       10.742616   18.702583   14.107715
     38          6           0        9.588043   19.479589   13.633794
     39          6           0        8.305279   18.719054   13.964412
     40          8           0        7.290142   18.727468   13.296350
     41          6           0        9.638585   19.915552   12.158601
     42          6           0       10.020065   18.854911   11.120563
     43          6           0        9.065090   17.669634   10.958409
     44          7           0        9.288220   16.658124   12.015266
     45          6           0        8.405624   15.718627   12.387210
     46          7           0        7.087287   15.980515   12.366109
     47          7           0        8.857469   14.527836   12.795224
     48          8           0        8.389173   18.065665   15.142969
     49          1           0        7.511646   17.685923   15.339130
     50          1           0       10.549836   18.140771   14.928185
     51          1           0        9.510467   20.403623   14.233042
     52          1           0       10.369444   20.721439   12.087679
     53          1           0        8.655218   20.334755   11.920480
     54          1           0       10.074881   19.357205   10.148283
     55          1           0       11.032769   18.491915   11.326725
     56          1           0        9.228950   17.183551    9.988565
     57          1           0        8.030256   18.009305   10.994291
     58          1           0       10.259899   16.378829   12.124357
     59          1           0        6.770892   16.943161   12.437551
     60          1           0        6.415658   15.245999   12.534335
     61          1           0        8.264214   13.881645   13.294813
     62          1           0        9.839439   14.288986   12.629987
 ---------------------------------------------------------------------
 Rotational constants (GHZ):           0.1722622           0.1323811           0.0967953
 Standard basis: 6-31G(d) (6D, 7F)
   501 basis functions,   944 primitive gaussians,   501 cartesian basis functions
   112 alpha electrons      112 beta electrons
       nuclear repulsion energy      3216.7310117622 Hartrees.
 NAtoms=   62 NActive=   62 NUniq=   62 SFac= 1.00D+00 NAtFMM=   60 NAOKFM=T Big=T
 Integral buffers will be    131072 words long.
 Raffenetti 2 integral format.
 Two-electron integral symmetry is turned off.
 Nuclear repulsion after empirical dispersion term =     3216.6451177495 Hartrees.
 One-electron integrals computed using PRISM.
 NBasis=   501 RedAO= T EigKep=  1.81D-03  NBF=   501
 NBsUse=   501 1.00D-06 EigRej= -1.00D+00 NBFU=   501
 Initial guess from the checkpoint file:  "conf-896.chk"
 B after Tr=     0.000000    0.000000    0.000000
         Rot=    1.000000    0.000000    0.000000    0.000000 Ang=   0.00 deg.
 Requested convergence on RMS density matrix=1.00D-08 within 128 cycles.
 Requested convergence on MAX density matrix=1.00D-06.
 Requested convergence on             energy=1.00D-06.
 No special actions if energy rises.
 SCF Done:  E(RB3LYP) =  -1447.48817302     A.U. after    2 cycles
            NFock=  2  Conv=0.90D-08     -V/T= 2.0094

 **********************************************************************

            Population analysis using the SCF Density.

 **********************************************************************

 Alpha  occ. eigenvalues --  -19.33762 -19.33140 -19.28028 -19.27936 -19.22763
 Alpha  occ. eigenvalues --  -19.19459 -14.51448 -14.51098 -14.50826 -14.47741
 Alpha  occ. eigenvalues --  -14.44574 -14.40752 -10.47783 -10.46132 -10.45812
 Alpha  occ. eigenvalues --  -10.39613 -10.37019 -10.36469 -10.35077 -10.34074
 Alpha  occ. eigenvalues --  -10.31777 -10.31447 -10.30141 -10.29526 -10.28991
 Alpha  occ. eigenvalues --  -10.28958 -10.28024 -10.25238 -10.25153  -1.24686
 Alpha  occ. eigenvalues --   -1.23956  -1.16311  -1.15523  -1.15224  -1.14746
 Alpha  occ. eigenvalues --   -1.11651  -1.05346  -1.04395  -1.04224  -1.01429
 Alpha  occ. eigenvalues --   -0.98047  -0.91940  -0.89956  -0.89729  -0.87874
 Alpha  occ. eigenvalues --   -0.83740  -0.81728  -0.81310  -0.78293  -0.76251
 Alpha  occ. eigenvalues --   -0.75786  -0.75489  -0.74655  -0.73203  -0.72756
 Alpha  occ. eigenvalues --   -0.71008  -0.70034  -0.67850  -0.66838  -0.65763
 Alpha  occ. eigenvalues --   -0.65487  -0.64923  -0.64287  -0.62919  -0.62625
 Alpha  occ. eigenvalues --   -0.61596  -0.61161  -0.60913  -0.59696  -0.58694
 Alpha  occ. eigenvalues --   -0.58627  -0.58224  -0.57702  -0.56483  -0.55864
 Alpha  occ. eigenvalues --   -0.55200  -0.54707  -0.54446  -0.53809  -0.53592
 Alpha  occ. eigenvalues --   -0.53061  -0.52543  -0.52148  -0.50965  -0.50640
 Alpha  occ. eigenvalues --   -0.50084  -0.49832  -0.48804  -0.47644  -0.46825
 Alpha  occ. eigenvalues --   -0.46553  -0.46398  -0.46324  -0.46217  -0.45940
 Alpha  occ. eigenvalues --   -0.45593  -0.45351  -0.45095  -0.44850  -0.44237
 Alpha  occ. eigenvalues --   -0.42799  -0.41787  -0.41574  -0.41389  -0.41198
 Alpha  occ. eigenvalues --   -0.41090  -0.40020  -0.37483  -0.36203  -0.33558
 Alpha  occ. eigenvalues --   -0.33138  -0.32797
 Alpha virt. eigenvalues --   -0.13511  -0.12937  -0.12473  -0.09422  -0.07622
 Alpha virt. eigenvalues --   -0.07132  -0.05910  -0.05682  -0.03976  -0.02579
 Alpha virt. eigenvalues --   -0.01620  -0.00907  -0.00117   0.00951   0.01660
 Alpha virt. eigenvalues --    0.02070   0.02382   0.02635   0.03178   0.04121
 Alpha virt. eigenvalues --    0.04196   0.04789   0.05238   0.05328   0.06104
 Alpha virt. eigenvalues --    0.06415   0.06799   0.07210   0.07649   0.07993
 Alpha virt. eigenvalues --    0.08448   0.08685   0.09085   0.09241   0.09570
 Alpha virt. eigenvalues --    0.09751   0.10179   0.10806   0.10834   0.11212
 Alpha virt. eigenvalues --    0.11871   0.12278   0.12613   0.13009   0.13206
 Alpha virt. eigenvalues --    0.13624   0.14516   0.14839   0.15892   0.16166
 Alpha virt. eigenvalues --    0.16411   0.17519   0.18105   0.18607   0.18895
 Alpha virt. eigenvalues --    0.19609   0.21978   0.23496   0.23796   0.24952
 Alpha virt. eigenvalues --    0.25814   0.26849   0.27946   0.28562   0.30056
 Alpha virt. eigenvalues --    0.32826   0.34950   0.37050   0.38128   0.39381
 Alpha virt. eigenvalues --    0.39472   0.40385   0.40883   0.41835   0.42275
 Alpha virt. eigenvalues --    0.43014   0.43328   0.43875   0.44021   0.44155
 Alpha virt. eigenvalues --    0.45697   0.46310   0.46618   0.47140   0.48257
 Alpha virt. eigenvalues --    0.48707   0.49151   0.49825   0.50698   0.51118
 Alpha virt. eigenvalues --    0.51613   0.52450   0.52822   0.53121   0.53419
 Alpha virt. eigenvalues --    0.53839   0.54737   0.55747   0.56158   0.56870
 Alpha virt. eigenvalues --    0.57680   0.58164   0.59263   0.59516   0.59740
 Alpha virt. eigenvalues --    0.60408   0.61149   0.61263   0.62028   0.62858
 Alpha virt. eigenvalues --    0.63275   0.63697   0.64337   0.64954   0.65624
 Alpha virt. eigenvalues --    0.66028   0.66893   0.68193   0.68935   0.69898
 Alpha virt. eigenvalues --    0.70474   0.71168   0.72078   0.72964   0.73223
 Alpha virt. eigenvalues --    0.73525   0.73979   0.74746   0.75023   0.75290
 Alpha virt. eigenvalues --    0.75621   0.75837   0.76957   0.77354   0.77801
 Alpha virt. eigenvalues --    0.78109   0.78469   0.79009   0.79777   0.79925
 Alpha virt. eigenvalues --    0.80506   0.81139   0.81592   0.81667   0.82163
 Alpha virt. eigenvalues --    0.82600   0.83551   0.83796   0.84244   0.84499
 Alpha virt. eigenvalues --    0.85348   0.85923   0.86193   0.86514   0.86790
 Alpha virt. eigenvalues --    0.87127   0.87957   0.88518   0.89370   0.89969
 Alpha virt. eigenvalues --    0.91203   0.91270   0.91413   0.92708   0.93812
 Alpha virt. eigenvalues --    0.94609   0.94827   0.95232   0.96467   0.97707
 Alpha virt. eigenvalues --    0.98780   0.99568   1.00478   1.00938   1.01607
 Alpha virt. eigenvalues --    1.03529   1.03906   1.04635   1.06233   1.07489
 Alpha virt. eigenvalues --    1.08264   1.08941   1.09703   1.10422   1.11247
 Alpha virt. eigenvalues --    1.11805   1.12760   1.14173   1.16577   1.17426
 Alpha virt. eigenvalues --    1.18077   1.19118   1.19238   1.21442   1.22810
 Alpha virt. eigenvalues --    1.23217   1.24632   1.26092   1.27274   1.27667
 Alpha virt. eigenvalues --    1.29194   1.29370   1.30382   1.31156   1.31902
 Alpha virt. eigenvalues --    1.34271   1.35541   1.36259   1.37406   1.38371
 Alpha virt. eigenvalues --    1.40017   1.41195   1.42878   1.43566   1.44811
 Alpha virt. eigenvalues --    1.45627   1.46355   1.49189   1.49637   1.50214
 Alpha virt. eigenvalues --    1.50900   1.52049   1.53002   1.54867   1.56048
 Alpha virt. eigenvalues --    1.57549   1.58651   1.58729   1.59553   1.60715
 Alpha virt. eigenvalues --    1.61505   1.62870   1.63545   1.63777   1.64862
 Alpha virt. eigenvalues --    1.66009   1.66416   1.67137   1.68018   1.68219
 Alpha virt. eigenvalues --    1.68752   1.69532   1.70221   1.71250   1.71982
 Alpha virt. eigenvalues --    1.72178   1.73051   1.73595   1.74003   1.74881
 Alpha virt. eigenvalues --    1.75526   1.76525   1.77187   1.78568   1.79057
 Alpha virt. eigenvalues --    1.79515   1.80712   1.81228   1.81611   1.82272
 Alpha virt. eigenvalues --    1.84069   1.85175   1.85284   1.85873   1.86789
 Alpha virt. eigenvalues --    1.87943   1.89350   1.89669   1.90141   1.91110
 Alpha virt. eigenvalues --    1.91233   1.91950   1.92732   1.93211   1.93709
 Alpha virt. eigenvalues --    1.94785   1.96220   1.96742   1.97066   1.98629
 Alpha virt. eigenvalues --    1.99423   1.99786   2.01302   2.02071   2.02747
 Alpha virt. eigenvalues --    2.04585   2.05959   2.06519   2.08825   2.09325
 Alpha virt. eigenvalues --    2.10432   2.12176   2.13446   2.14243   2.14739
 Alpha virt. eigenvalues --    2.16972   2.18531   2.18643   2.19542   2.20726
 Alpha virt. eigenvalues --    2.21837   2.23361   2.24120   2.24854   2.25247
 Alpha virt. eigenvalues --    2.25936   2.26460   2.28553   2.29832   2.30352
 Alpha virt. eigenvalues --    2.32843   2.33795   2.34431   2.35399   2.35758
 Alpha virt. eigenvalues --    2.36863   2.37533   2.38368   2.40719   2.42217
 Alpha virt. eigenvalues --    2.43212   2.43940   2.44828   2.45204   2.46231
 Alpha virt. eigenvalues --    2.47095   2.49142   2.50033   2.50980   2.52283
 Alpha virt. eigenvalues --    2.52687   2.54716   2.56236   2.57168   2.57807
 Alpha virt. eigenvalues --    2.58878   2.59883   2.60720   2.61028   2.62148
 Alpha virt. eigenvalues --    2.63559   2.64097   2.67101   2.69844   2.72445
 Alpha virt. eigenvalues --    2.73786   2.75027   2.76601   2.79150   2.86918
 Alpha virt. eigenvalues --    2.89219   2.90599   2.90973   2.91830   2.93497
 Alpha virt. eigenvalues --    2.95766   2.95958   2.99325   3.04952   3.08852
 Alpha virt. eigenvalues --    3.67962   3.74199   3.75965   3.78694   3.80285
 Alpha virt. eigenvalues --    3.81696   3.91258   3.98379   4.02023   4.04103
 Alpha virt. eigenvalues --    4.05883   4.08819   4.11419   4.12826   4.16254
 Alpha virt. eigenvalues --    4.16865   4.20462   4.21567   4.23706   4.28034
 Alpha virt. eigenvalues --    4.31815   4.34627   4.39716   4.44161   4.48255
 Alpha virt. eigenvalues --    4.51386   4.53530   4.58518   4.63617
          Condensed to atoms (all electrons):
 Mulliken charges:
               1
     1  N   -0.750289
     2  C   -0.049265
     3  C    0.595977
     4  O   -0.485871
     5  C   -0.264091
     6  C   -0.389838
     7  C    0.621548
     8  O   -0.513242
     9  O   -0.546667
    10  H    0.440595
    11  H    0.113107
    12  H    0.143021
    13  H    0.218213
    14  H    0.218408
    15  H    0.167849
    16  H    0.306026
    17  H    0.349124
    18  N   -0.593503
    19  C   -0.055422
    20  C    0.614373
    21  O   -0.505540
    22  C   -0.296987
    23  C   -0.071180
    24  C   -0.457257
    25  C   -0.446203
    26  H    0.348868
    27  H    0.147959
    28  H    0.142231
    29  H    0.167593
    30  H    0.119804
    31  H    0.161141
    32  H    0.157455
    33  H    0.148738
    34  H    0.156275
    35  H    0.141821
    36  H    0.161366
    37  N   -0.637238
    38  C   -0.025685
    39  C    0.614028
    40  O   -0.490719
    41  C   -0.278732
    42  C   -0.298467
    43  C   -0.157317
    44  N   -0.626788
    45  C    0.775616
    46  N   -0.766213
    47  N   -0.778944
    48  O   -0.571176
    49  H    0.427527
    50  H    0.353091
    51  H    0.207346
    52  H    0.203674
    53  H    0.172737
    54  H    0.181248
    55  H    0.154569
    56  H    0.186361
    57  H    0.189541
    58  H    0.393981
    59  H    0.409996
    60  H    0.370757
    61  H    0.365063
    62  H    0.409605
 Sum of Mulliken charges =   1.00000
 Mulliken charges with hydrogens summed into heavy atoms:
               1
     1  N   -0.095138
     2  C    0.063842
     3  C    0.595977
     4  O   -0.485871
     5  C    0.097144
     6  C   -0.003581
     7  C    0.621548
     8  O   -0.513242
     9  O   -0.106072
    18  N   -0.244635
    19  C    0.092536
    20  C    0.614373
    21  O   -0.505540
    22  C    0.012837
    23  C    0.048624
    24  C    0.010076
    25  C    0.013259
    37  N   -0.284146
    38  C    0.181662
    39  C    0.614028
    40  O   -0.490719
    41  C    0.097679
    42  C    0.037350
    43  C    0.218585
    44  N   -0.232807
    45  C    0.775616
    46  N    0.014540
    47  N   -0.004276
    48  O   -0.143649
 Electronic spatial extent (au):  <R**2>=         509732.2344
 Charge=              1.0000 electrons
 Dipole moment (field-independent basis, Debye):
    X=             44.2717    Y=             74.9794    Z=             65.7864  Tot=            109.1317
 Quadrupole moment (field-independent basis, Debye-Ang):
   XX=            250.8172   YY=           1030.6848   ZZ=            753.5907
   XY=            673.1847   XZ=            618.0482   YZ=           1044.6521
 Traceless Quadrupole moment (field-independent basis, Debye-Ang):
   XX=           -427.5471   YY=            352.3206   ZZ=             75.2265
   XY=            673.1847   XZ=            618.0482   YZ=           1044.6521
 Octapole moment (field-independent basis, Debye-Ang**2):
  XXX=          -1966.5566  YYY=          10803.6599  ZZZ=           6342.8406  XYY=           8586.0103
  XXY=           3128.0641  XXZ=           3738.2543  XZZ=           6899.6174  YZZ=          11979.7441
  YYZ=          14713.3906  XYZ=           9662.7590
 Hexadecapole moment (field-independent basis, Debye-Ang**3):
 XXXX=        -110534.4131 YYYY=          16142.2272 ZZZZ=           2021.3091 XXXY=         -50942.9480
 XXXZ=         -21794.7911 YYYX=          67548.4669 YYYZ=         162321.3084 ZZZX=          49433.1086
 ZZZY=          97124.0927 XXYY=          14978.8093 XXZZ=          33413.7803 YYZZ=         163544.3950
 XXYZ=          51133.0326 YYXZ=         128904.0709 ZZXY=         108313.7882
 N-N= 3.216645117749D+03 E-N=-9.782648949604D+03  KE= 1.434077245329D+03
 Unable to Open any file for archive entry.
 1\1\GINC-SKL-148\SP\RB3LYP\6-31G(d)\C17H33N6O6(1+)\KENGMITH\24-May-202
 2\0\\# B3LYP/6-31G* empiricaldispersion=gd3 guess=read geom=check nosy
 mm integral(ultrafinegrid)\\Candidate Structure: Conf:896 Charge calc 
 in gas phase\\1,1\N,0,13.539620804,17.3446783684,11.5186527356\C,0,13.
 9205360539,16.6872936996,12.7790195453\C,0,14.8901973146,17.6235615983
 ,13.5238175564\O,0,16.0753195593,17.6719081891,13.2353420161\C,0,14.64
 92293769,15.3668882646,12.4830936175\C,0,13.8872390877,14.4493856493,1
 1.4974260679\C,0,12.528250611,14.0700429589,12.0270624656\O,0,11.56110
 6842,14.8246544776,12.0066929101\O,0,12.3640094431,12.8702647324,12.60
 19673095\H,0,13.1805621697,12.3432926378,12.5572064444\H,0,13.04861329
 44,16.4733645738,13.4164662704\H,0,14.8458431845,14.8356969646,13.4233
 503864\H,0,15.6143283626,15.6128922158,12.0341684709\H,0,13.7428856564
 ,14.9905189753,10.5585293022\H,0,14.4859839856,13.5571835284,11.283235
 6158\H,0,12.6461524633,16.9806154075,11.1986289266\H,0,13.4390608252,1
 8.3499911508,11.6429520875\N,0,14.3651854467,18.4267698062,14.50401502
 01\C,0,13.0094964236,18.4979690538,15.0040442147\C,0,12.0455894633,19.
 1247409023,13.9692398158\O,0,12.416454639,19.9274455974,13.1272829904\
 C,0,12.9448899522,19.3562564265,16.2917688217\C,0,13.4237592919,18.673
 1300425,17.5900082745\C,0,14.9078134257,18.2778189416,17.5744966012\C,
 0,13.1271045081,19.5951326254,18.7830237037\H,0,15.0338615732,19.09426
 27512,14.8683845103\H,0,12.6549409374,17.4876738097,15.2543448928\H,0,
 11.9008864541,19.6624518381,16.4381412946\H,0,13.5054746402,20.2852970
 932,16.1168202029\H,0,12.8276620809,17.7549145807,17.7135349494\H,0,15
 .1976011064,17.8538760565,18.5420052771\H,0,15.1349320685,17.537419976
 6,16.8025324184\H,0,15.5438478354,19.1556653938,17.3993320051\H,0,13.6
 978716351,20.528831206,18.7043602582\H,0,12.0635286484,19.8557967727,1
 8.8410226683\H,0,13.4075965648,19.1139776449,19.725931883\N,0,10.74261
 59298,18.7025834808,14.1077147895\C,0,9.5880431871,19.4795893498,13.63
 37942629\C,0,8.3052790802,18.7190544881,13.9644119326\O,0,7.2901421749
 ,18.7274679643,13.2963495309\C,0,9.6385845223,19.9155516047,12.1586010
 813\C,0,10.0200649759,18.8549111133,11.1205630114\C,0,9.0650899773,17.
 6696337137,10.9584093963\N,0,9.2882198815,16.6581238249,12.0152658457\
 C,0,8.405624003,15.7186267604,12.387210328\N,0,7.0872868375,15.9805153
 882,12.3661088897\N,0,8.8574687717,14.5278357063,12.7952241928\O,0,8.3
 891725926,18.0656650818,15.1429689335\H,0,7.5116457448,17.6859228889,1
 5.3391304074\H,0,10.5498355943,18.1407705392,14.9281849378\H,0,9.51046
 7378,20.4036228956,14.2330418476\H,0,10.3694442087,20.7214394253,12.08
 7678586\H,0,8.6552176702,20.3347546353,11.9204797857\H,0,10.0748813499
 ,19.3572051091,10.1482829319\H,0,11.0327689227,18.491914813,11.3267245
 691\H,0,9.2289504417,17.1835508134,9.9885654831\H,0,8.0302564038,18.00
 9304881,10.9942911456\H,0,10.2598990403,16.3788294944,12.1243569448\H,
 0,6.7708923613,16.9431607181,12.4375506651\H,0,6.415657572,15.24599870
 44,12.5343349781\H,0,8.2642140994,13.8816453244,13.2948134412\H,0,9.83
 94387801,14.2889855903,12.629986901\\Version=ES64L-G16RevC.01\HF=-1447
 .488173\RMSD=9.029e-09\Dipole=-4.4741011,-3.4173466,0.2541472\Quadrupo
 le=-317.8707647,261.941719,55.9290457,500.4963171,459.503673,776.67325
 62\PG=C01 [X(C17H33N6O6)]\\@
 The archive entry for this job was punched.


 THE 2ND LAW OF THERMODYNAMICS HAS THE SAME
 DEGREE OF TRUTH AS THE STATEMENT THAT IF YOU THROW
 A TUMBLERFULL OF WATER INTO THE SEA, YOU CANNOT GET
 THE SAME TUMBLERFULL OF WATER OUT AGAIN.
          - J.C. MAXWELL, LETTER TO LORD RAYLEIGH, DECEMBER 6,1870
 Job cpu time:       0 days  0 hours  1 minutes 47.9 seconds.
 Elapsed time:       0 days  0 hours  0 minutes 27.4 seconds.
 File lengths (MBytes):  RWF=    248 Int=      0 D2E=      0 Chk=     32 Scr=     16
 Normal termination of Gaussian 16 at Tue May 24 03:34:20 2022.
