 Entering Gaussian System, Link 0=/opt/software/Gaussian/g16-AVX2-C.01/g16/g16
 Input=charge-conf-306.com
 Output=charge-conf-306.log
 Initial command:
 /opt/software/Gaussian/g16-AVX2-C.01/g16/l1.exe "/mnt/gs18/scratch/users/kengmith/Gau-49013.inp" -scrdir="/mnt/gs18/scratch/users/kengmith/"
 Entering Link 1 = /opt/software/Gaussian/g16-AVX2-C.01/g16/l1.exe PID=     49029.
  
 Copyright (c) 1988-2019, Gaussian, Inc.  All Rights Reserved.
  
 This is part of the Gaussian(R) 16 program.  It is based on
 the Gaussian(R) 09 system (copyright 2009, Gaussian, Inc.),
 the Gaussian(R) 03 system (copyright 2003, Gaussian, Inc.),
 the Gaussian(R) 98 system (copyright 1998, Gaussian, Inc.),
 the Gaussian(R) 94 system (copyright 1995, Gaussian, Inc.),
 the Gaussian 92(TM) system (copyright 1992, Gaussian, Inc.),
 the Gaussian 90(TM) system (copyright 1990, Gaussian, Inc.),
 the Gaussian 88(TM) system (copyright 1988, Gaussian, Inc.),
 the Gaussian 86(TM) system (copyright 1986, Carnegie Mellon
 University), and the Gaussian 82(TM) system (copyright 1983,
 Carnegie Mellon University). Gaussian is a federally registered
 trademark of Gaussian, Inc.
  
 This software contains proprietary and confidential information,
 including trade secrets, belonging to Gaussian, Inc.
  
 This software is provided under written license and may be
 used, copied, transmitted, or stored only in accord with that
 written license.
  
 The following legend is applicable only to US Government
 contracts under FAR:
  
                    RESTRICTED RIGHTS LEGEND
  
 Use, reproduction and disclosure by the US Government is
 subject to restrictions as set forth in subparagraphs (a)
 and (c) of the Commercial Computer Software - Restricted
 Rights clause in FAR 52.227-19.
  
 Gaussian, Inc.
 340 Quinnipiac St., Bldg. 40, Wallingford CT 06492
  
  
 ---------------------------------------------------------------
 Warning -- This program may not be used in any manner that
 competes with the business of Gaussian, Inc. or will provide
 assistance to any competitor of Gaussian, Inc.  The licensee
 of this program is prohibited from giving any competitor of
 Gaussian, Inc. access to this program.  By using this program,
 the user acknowledges that Gaussian, Inc. is engaged in the
 business of creating and licensing software in the field of
 computational chemistry and represents and warrants to the
 licensee that it is not a competitor of Gaussian, Inc. and that
 it will not use this program in any manner prohibited above.
 ---------------------------------------------------------------
  

 Cite this work as:
 Gaussian 16, Revision C.01,
 M. J. Frisch, G. W. Trucks, H. B. Schlegel, G. E. Scuseria, 
 M. A. Robb, J. R. Cheeseman, G. Scalmani, V. Barone, 
 G. A. Petersson, H. Nakatsuji, X. Li, M. Caricato, A. V. Marenich, 
 J. Bloino, B. G. Janesko, R. Gomperts, B. Mennucci, H. P. Hratchian, 
 J. V. Ortiz, A. F. Izmaylov, J. L. Sonnenberg, D. Williams-Young, 
 F. Ding, F. Lipparini, F. Egidi, J. Goings, B. Peng, A. Petrone, 
 T. Henderson, D. Ranasinghe, V. G. Zakrzewski, J. Gao, N. Rega, 
 G. Zheng, W. Liang, M. Hada, M. Ehara, K. Toyota, R. Fukuda, 
 J. Hasegawa, M. Ishida, T. Nakajima, Y. Honda, O. Kitao, H. Nakai, 
 T. Vreven, K. Throssell, J. A. Montgomery, Jr., J. E. Peralta, 
 F. Ogliaro, M. J. Bearpark, J. J. Heyd, E. N. Brothers, K. N. Kudin, 
 V. N. Staroverov, T. A. Keith, R. Kobayashi, J. Normand, 
 K. Raghavachari, A. P. Rendell, J. C. Burant, S. S. Iyengar, 
 J. Tomasi, M. Cossi, J. M. Millam, M. Klene, C. Adamo, R. Cammi, 
 J. W. Ochterski, R. L. Martin, K. Morokuma, O. Farkas, 
 J. B. Foresman, and D. J. Fox, Gaussian, Inc., Wallingford CT, 2019.
 
 ******************************************
 Gaussian 16:  ES64L-G16RevC.01  3-Jul-2019
                24-May-2022 
 ******************************************
 %mem=8gb
 %nproc=4
 Will use up to    4 processors via shared memory.
 %chk=conf-306.chk
 ----------------------------------------------------------------------
 # B3LYP/6-31G* empiricaldispersion=gd3 guess=read geom=check nosymm in
 tegral(ultrafinegrid)
 ----------------------------------------------------------------------
 1/29=2,38=1,172=1/1;
 2/12=2,15=1,40=1/2;
 3/5=1,6=6,7=1,11=2,14=-4,25=1,30=1,74=-5,75=-5,116=-2,124=31/1,2,3;
 4/5=1/1;
 5/5=2,38=6/2;
 6/7=2,8=2,9=2,10=2,28=1/1;
 99/5=1,9=1/99;
 ------------------------------------------------------
 Candidate Structure: Conf:306 Charge calc in gas phase
 ------------------------------------------------------
 Structure from the checkpoint file:  "conf-306.chk"
 Charge =  1 Multiplicity = 1
 Redundant internal coordinates found in file.  (old form).
 N,0,9.6505388967,16.5551115504,15.1536429106
 C,0,10.988889459,16.1792259383,14.6602164461
 C,0,10.7927265804,15.2370662623,13.4535946387
 O,0,9.7255658571,14.6498582056,13.3072245213
 C,0,11.9059059349,15.5244788929,15.7130196666
 C,0,12.2201460781,16.4607472394,16.9038998424
 C,0,12.5606913001,17.8575002531,16.4457568679
 O,0,11.9065126556,18.8557761515,16.6964874238
 O,0,13.6596684553,17.9040034843,15.6658867433
 H,0,13.7910742529,18.8357129863,15.399184324
 H,0,11.4693129028,17.0916175704,14.3022424931
 H,0,12.8440212435,15.227987517,15.2357434129
 H,0,11.4365160829,14.60918286,16.0899248792
 H,0,11.3748781756,16.5494105711,17.5909062266
 H,0,13.0652633285,16.0547915481,17.4704388771
 H,0,9.0054977251,15.8270843205,14.8282743032
 H,0,9.6176643007,16.5526818823,16.1708910644
 N,0,11.8491848811,15.0543771462,12.6106545623
 C,0,13.0184015028,15.928470757,12.4295766418
 C,0,12.5527582974,17.1487481754,11.6032313164
 O,0,12.2878762241,17.0490398312,10.4150586214
 C,0,14.1353904479,15.171311554,11.7081493163
 C,0,15.4314468562,15.9861856472,11.5310401789
 C,0,16.0593710167,16.3893700378,12.8749088795
 C,0,16.4331200649,15.1856212145,10.6867711599
 H,0,11.6157469004,14.4752122894,11.8091131058
 H,0,13.3685633431,16.2400450439,13.4153567469
 H,0,13.7573522597,14.8795072823,10.7205334759
 H,0,14.3467939443,14.2521409775,12.2695929096
 H,0,15.1804768049,16.901290941,10.974621127
 H,0,15.407244139,17.037598823,13.473847479
 H,0,16.2890039172,15.5017837042,13.4784598796
 H,0,16.9970927044,16.932286233,12.7153372117
 H,0,16.0101873093,14.9211805627,9.7112986475
 H,0,17.3478532989,15.7622861137,10.5125900564
 H,0,16.7164901141,14.255510676,11.1955188929
 N,0,12.3513956108,18.278201328,12.3486668333
 C,0,11.733739855,19.5071671256,11.8609186518
 C,0,11.4740356263,20.4614778413,13.0244378129
 O,0,10.7181387045,21.4038105045,12.9804198516
 C,0,10.4477084329,19.2680429464,11.0325080071
 C,0,9.3788621349,18.3276807495,11.6204108762
 C,0,8.3862715518,18.9372230139,12.6220347241
 N,0,8.9222412563,19.05600213,13.9863333207
 C,0,8.8101395283,20.11795481,14.7719642355
 N,0,8.0254062807,21.178946898,14.4804843833
 N,0,9.5041793974,20.1746901856,15.9277262668
 O,0,12.1950796484,20.1549546734,14.1366396583
 H,0,11.9124109454,20.7497426861,14.8580683367
 H,0,12.7613399516,18.3092015723,13.2695800243
 H,0,12.4358017557,20.0414626953,11.2012202535
 H,0,10.7743750136,18.8423656735,10.0838451432
 H,0,10.0162756582,20.2525554962,10.8235329203
 H,0,8.7732572241,17.970007206,10.7801351448
 H,0,9.8326029696,17.42812776,12.0488191523
 H,0,7.4843703757,18.3161624817,12.6676488804
 H,0,8.0904259104,19.9253508521,12.259421588
 H,0,9.2173933187,18.1510941431,14.4399831252
 H,0,7.4923549494,21.1777722066,13.6237544993
 H,0,8.3428301578,22.0927340265,14.777005542
 H,0,9.1643702591,20.7654031896,16.6741952854
 H,0,10.1811280277,19.4590655619,16.1851806531
 Recover connectivity data from disk.
                           ----------------------------
                           !    Current Parameters    !
                           ! (Angstroms and Degrees)  !
 --------------------------                            --------------------------
 ! Name  Definition              Value                                          !
 --------------------------------------------------------------------------------
 ! R1    R(1,2)                  1.4751                                         !
 ! R2    R(1,16)                 1.0257                                         !
 ! R3    R(1,17)                 1.0178                                         !
 ! R4    R(2,3)                  1.5434                                         !
 ! R5    R(2,5)                  1.5421                                         !
 ! R6    R(2,11)                 1.0915                                         !
 ! R7    R(3,4)                  1.2268                                         !
 ! R8    R(3,18)                 1.3638                                         !
 ! R9    R(5,6)                  1.5471                                         !
 ! R10   R(5,12)                 1.0935                                         !
 ! R11   R(5,13)                 1.0955                                         !
 ! R12   R(6,7)                  1.5089                                         !
 ! R13   R(6,14)                 1.0928                                         !
 ! R14   R(6,15)                 1.0954                                         !
 ! R15   R(7,8)                  1.2196                                         !
 ! R16   R(7,9)                  1.3484                                         !
 ! R17   R(9,10)                 0.978                                          !
 ! R18   R(18,19)                1.471                                          !
 ! R19   R(18,26)                1.0161                                         !
 ! R20   R(19,20)                1.5456                                         !
 ! R21   R(19,22)                1.5302                                         !
 ! R22   R(19,27)                1.0915                                         !
 ! R23   R(20,21)                1.2214                                         !
 ! R24   R(20,37)                1.3682                                         !
 ! R25   R(22,23)                1.5412                                         !
 ! R26   R(22,28)                1.097                                          !
 ! R27   R(22,29)                1.0976                                         !
 ! R28   R(23,24)                1.5371                                         !
 ! R29   R(23,25)                1.5353                                         !
 ! R30   R(23,30)                1.1                                            !
 ! R31   R(24,31)                1.0974                                         !
 ! R32   R(24,32)                1.0976                                         !
 ! R33   R(24,33)                1.0952                                         !
 ! R34   R(25,34)                1.0956                                         !
 ! R35   R(25,35)                1.0953                                         !
 ! R36   R(25,36)                1.0974                                         !
 ! R37   R(37,38)                1.4594                                         !
 ! R38   R(37,50)                1.0085                                         !
 ! R39   R(38,39)                1.5271                                         !
 ! R40   R(38,41)                1.5483                                         !
 ! R41   R(38,51)                1.1016                                         !
 ! R42   R(39,40)                1.2088                                         !
 ! R43   R(39,48)                1.3605                                         !
 ! R44   R(41,42)                1.5402                                         !
 ! R45   R(41,52)                1.0899                                         !
 ! R46   R(41,53)                1.095                                          !
 ! R47   R(42,43)                1.5362                                         !
 ! R48   R(42,54)                1.0958                                         !
 ! R49   R(42,55)                1.0948                                         !
 ! R50   R(43,44)                1.4706                                         !
 ! R51   R(43,56)                1.096                                          !
 ! R52   R(43,57)                1.0933                                         !
 ! R53   R(44,45)                1.3257                                         !
 ! R54   R(44,58)                1.0544                                         !
 ! R55   R(45,46)                1.3515                                         !
 ! R56   R(45,47)                1.3493                                         !
 ! R57   R(46,59)                1.009                                          !
 ! R58   R(46,60)                1.0118                                         !
 ! R59   R(47,61)                1.0108                                         !
 ! R60   R(47,62)                1.0182                                         !
 ! R61   R(48,49)                0.9768                                         !
 ! A1    A(2,1,16)             106.4759                                         !
 ! A2    A(2,1,17)             111.286                                          !
 ! A3    A(16,1,17)            107.1609                                         !
 ! A4    A(1,2,3)              107.5628                                         !
 ! A5    A(1,2,5)              114.7938                                         !
 ! A6    A(1,2,11)             107.2198                                         !
 ! A7    A(3,2,5)              110.4958                                         !
 ! A8    A(3,2,11)             108.0478                                         !
 ! A9    A(5,2,11)             108.4862                                         !
 ! A10   A(2,3,4)              119.737                                          !
 ! A11   A(2,3,18)             117.8087                                         !
 ! A12   A(4,3,18)             122.4093                                         !
 ! A13   A(2,5,6)              112.9143                                         !
 ! A14   A(2,5,12)             109.1049                                         !
 ! A15   A(2,5,13)             109.5624                                         !
 ! A16   A(6,5,12)             109.0141                                         !
 ! A17   A(6,5,13)             109.1365                                         !
 ! A18   A(12,5,13)            106.9302                                         !
 ! A19   A(5,6,7)              111.8587                                         !
 ! A20   A(5,6,14)             112.0794                                         !
 ! A21   A(5,6,15)             109.3008                                         !
 ! A22   A(7,6,14)             106.8779                                         !
 ! A23   A(7,6,15)             109.0234                                         !
 ! A24   A(14,6,15)            107.5571                                         !
 ! A25   A(6,7,8)              125.0452                                         !
 ! A26   A(6,7,9)              113.0468                                         !
 ! A27   A(8,7,9)              121.8611                                         !
 ! A28   A(7,9,10)             107.4631                                         !
 ! A29   A(3,18,19)            127.7478                                         !
 ! A30   A(3,18,26)            112.7034                                         !
 ! A31   A(19,18,26)           115.1005                                         !
 ! A32   A(18,19,20)           107.1875                                         !
 ! A33   A(18,19,22)           110.1342                                         !
 ! A34   A(18,19,27)           108.2657                                         !
 ! A35   A(20,19,22)           111.0101                                         !
 ! A36   A(20,19,27)           110.7405                                         !
 ! A37   A(22,19,27)           109.4424                                         !
 ! A38   A(19,20,21)           121.3987                                         !
 ! A39   A(19,20,37)           113.8798                                         !
 ! A40   A(21,20,37)           124.436                                          !
 ! A41   A(19,22,23)           113.9811                                         !
 ! A42   A(19,22,28)           107.7292                                         !
 ! A43   A(19,22,29)           108.2887                                         !
 ! A44   A(23,22,28)           109.086                                          !
 ! A45   A(23,22,29)           109.8519                                         !
 ! A46   A(28,22,29)           107.705                                          !
 ! A47   A(22,23,24)           112.4421                                         !
 ! A48   A(22,23,25)           109.6434                                         !
 ! A49   A(22,23,30)           107.8261                                         !
 ! A50   A(24,23,25)           110.5498                                         !
 ! A51   A(24,23,30)           108.4953                                         !
 ! A52   A(25,23,30)           107.7275                                         !
 ! A53   A(23,24,31)           112.9143                                         !
 ! A54   A(23,24,32)           110.7373                                         !
 ! A55   A(23,24,33)           110.6338                                         !
 ! A56   A(31,24,32)           107.5707                                         !
 ! A57   A(31,24,33)           107.1876                                         !
 ! A58   A(32,24,33)           107.5681                                         !
 ! A59   A(23,25,34)           111.3226                                         !
 ! A60   A(23,25,35)           110.9655                                         !
 ! A61   A(23,25,36)           110.8243                                         !
 ! A62   A(34,25,35)           107.9318                                         !
 ! A63   A(34,25,36)           107.9314                                         !
 ! A64   A(35,25,36)           107.7172                                         !
 ! A65   A(20,37,38)           125.1265                                         !
 ! A66   A(20,37,50)           117.5852                                         !
 ! A67   A(38,37,50)           116.8298                                         !
 ! A68   A(37,38,39)           110.096                                          !
 ! A69   A(37,38,41)           113.5968                                         !
 ! A70   A(37,38,51)           109.8071                                         !
 ! A71   A(39,38,41)           111.2795                                         !
 ! A72   A(39,38,51)           105.1629                                         !
 ! A73   A(41,38,51)           106.4895                                         !
 ! A74   A(38,39,40)           124.4545                                         !
 ! A75   A(38,39,48)           113.0762                                         !
 ! A76   A(40,39,48)           122.4671                                         !
 ! A77   A(38,41,42)           117.8046                                         !
 ! A78   A(38,41,52)           106.0857                                         !
 ! A79   A(38,41,53)           106.888                                          !
 ! A80   A(42,41,52)           107.5641                                         !
 ! A81   A(42,41,53)           110.3862                                         !
 ! A82   A(52,41,53)           107.6457                                         !
 ! A83   A(41,42,43)           117.0645                                         !
 ! A84   A(41,42,54)           106.8645                                         !
 ! A85   A(41,42,55)           111.3091                                         !
 ! A86   A(43,42,54)           105.8066                                         !
 ! A87   A(43,42,55)           109.7953                                         !
 ! A88   A(54,42,55)           105.1248                                         !
 ! A89   A(42,43,44)           113.6677                                         !
 ! A90   A(42,43,56)           109.5111                                         !
 ! A91   A(42,43,57)           108.4928                                         !
 ! A92   A(44,43,56)           107.8826                                         !
 ! A93   A(44,43,57)           109.4692                                         !
 ! A94   A(56,43,57)           107.6537                                         !
 ! A95   A(43,44,45)           125.7077                                         !
 ! A96   A(43,44,58)           115.5846                                         !
 ! A97   A(45,44,58)           117.1403                                         !
 ! A98   A(44,45,46)           123.3778                                         !
 ! A99   A(44,45,47)           119.8534                                         !
 ! A100  A(46,45,47)           116.7687                                         !
 ! A101  A(45,46,59)           119.2721                                         !
 ! A102  A(45,46,60)           117.6234                                         !
 ! A103  A(59,46,60)           114.5587                                         !
 ! A104  A(45,47,61)           118.962                                          !
 ! A105  A(45,47,62)           121.939                                          !
 ! A106  A(61,47,62)           116.5865                                         !
 ! A107  A(39,48,49)           108.2536                                         !
 ! D1    D(16,1,2,3)            22.1405                                         !
 ! D2    D(16,1,2,5)          -101.278                                          !
 ! D3    D(16,1,2,11)          138.1361                                         !
 ! D4    D(17,1,2,3)           138.5923                                         !
 ! D5    D(17,1,2,5)            15.1738                                         !
 ! D6    D(17,1,2,11)         -105.4122                                         !
 ! D7    D(1,2,3,4)            -20.1804                                         !
 ! D8    D(1,2,3,18)           162.2013                                         !
 ! D9    D(5,2,3,4)            105.8271                                         !
 ! D10   D(5,2,3,18)           -71.7912                                         !
 ! D11   D(11,2,3,4)          -135.6297                                         !
 ! D12   D(11,2,3,18)           46.7521                                         !
 ! D13   D(1,2,5,6)            -62.1458                                         !
 ! D14   D(1,2,5,12)           176.4718                                         !
 ! D15   D(1,2,5,13)            59.7189                                         !
 ! D16   D(3,2,5,6)            176.016                                          !
 ! D17   D(3,2,5,12)            54.6335                                         !
 ! D18   D(3,2,5,13)           -62.1193                                         !
 ! D19   D(11,2,5,6)            57.7403                                         !
 ! D20   D(11,2,5,12)          -63.6421                                         !
 ! D21   D(11,2,5,13)          179.605                                          !
 ! D22   D(2,3,18,19)          -20.9601                                         !
 ! D23   D(2,3,18,26)         -175.8458                                         !
 ! D24   D(4,3,18,19)          161.4896                                         !
 ! D25   D(4,3,18,26)            6.6039                                         !
 ! D26   D(2,5,6,7)            -44.3715                                         !
 ! D27   D(2,5,6,14)            75.6487                                         !
 ! D28   D(2,5,6,15)          -165.2094                                         !
 ! D29   D(12,5,6,7)            77.0623                                         !
 ! D30   D(12,5,6,14)         -162.9175                                         !
 ! D31   D(12,5,6,15)          -43.7756                                         !
 ! D32   D(13,5,6,7)          -166.4757                                         !
 ! D33   D(13,5,6,14)          -46.4555                                         !
 ! D34   D(13,5,6,15)           72.6864                                         !
 ! D35   D(5,6,7,8)            115.8135                                         !
 ! D36   D(5,6,7,9)            -61.726                                          !
 ! D37   D(14,6,7,8)            -7.2079                                         !
 ! D38   D(14,6,7,9)           175.2526                                         !
 ! D39   D(15,6,7,8)          -123.1877                                         !
 ! D40   D(15,6,7,9)            59.2728                                         !
 ! D41   D(6,7,9,10)           178.5839                                         !
 ! D42   D(8,7,9,10)             0.9556                                         !
 ! D43   D(3,18,19,20)         -75.465                                          !
 ! D44   D(3,18,19,22)         163.6631                                         !
 ! D45   D(3,18,19,27)          44.0367                                         !
 ! D46   D(26,18,19,20)         78.9171                                         !
 ! D47   D(26,18,19,22)        -41.9549                                         !
 ! D48   D(26,18,19,27)       -161.5813                                         !
 ! D49   D(18,19,20,21)        -71.7709                                         !
 ! D50   D(18,19,20,37)        102.3513                                         !
 ! D51   D(22,19,20,21)         48.545                                          !
 ! D52   D(22,19,20,37)       -137.3327                                         !
 ! D53   D(27,19,20,21)        170.3285                                         !
 ! D54   D(27,19,20,37)        -15.5493                                         !
 ! D55   D(18,19,22,23)       -177.2507                                         !
 ! D56   D(18,19,22,28)         61.5553                                         !
 ! D57   D(18,19,22,29)        -54.6716                                         !
 ! D58   D(20,19,22,23)         64.1972                                         !
 ! D59   D(20,19,22,28)        -56.9968                                         !
 ! D60   D(20,19,22,29)       -173.2237                                         !
 ! D61   D(27,19,22,23)        -58.3413                                         !
 ! D62   D(27,19,22,28)       -179.5353                                         !
 ! D63   D(27,19,22,29)         64.2378                                         !
 ! D64   D(19,20,37,38)       -170.7603                                         !
 ! D65   D(19,20,37,50)         17.2797                                         !
 ! D66   D(21,20,37,38)          3.1559                                         !
 ! D67   D(21,20,37,50)       -168.8041                                         !
 ! D68   D(19,22,23,24)         61.8096                                         !
 ! D69   D(19,22,23,25)       -174.7769                                         !
 ! D70   D(19,22,23,30)        -57.7511                                         !
 ! D71   D(28,22,23,24)       -177.7534                                         !
 ! D72   D(28,22,23,25)        -54.3399                                         !
 ! D73   D(28,22,23,30)         62.6858                                         !
 ! D74   D(29,22,23,24)        -59.9096                                         !
 ! D75   D(29,22,23,25)         63.5039                                         !
 ! D76   D(29,22,23,30)       -179.4704                                         !
 ! D77   D(22,23,24,31)        -62.0681                                         !
 ! D78   D(22,23,24,32)         58.6286                                         !
 ! D79   D(22,23,24,33)        177.8009                                         !
 ! D80   D(25,23,24,31)        175.0259                                         !
 ! D81   D(25,23,24,32)        -64.2774                                         !
 ! D82   D(25,23,24,33)         54.8949                                         !
 ! D83   D(30,23,24,31)         57.1025                                         !
 ! D84   D(30,23,24,32)        177.7992                                         !
 ! D85   D(30,23,24,33)        -63.0285                                         !
 ! D86   D(22,23,25,34)         57.4395                                         !
 ! D87   D(22,23,25,35)        177.6718                                         !
 ! D88   D(22,23,25,36)        -62.6972                                         !
 ! D89   D(24,23,25,34)       -178.0406                                         !
 ! D90   D(24,23,25,35)        -57.8083                                         !
 ! D91   D(24,23,25,36)         61.8227                                         !
 ! D92   D(30,23,25,34)        -59.6481                                         !
 ! D93   D(30,23,25,35)         60.5842                                         !
 ! D94   D(30,23,25,36)       -179.7848                                         !
 ! D95   D(20,37,38,39)        170.8695                                         !
 ! D96   D(20,37,38,41)         45.3115                                         !
 ! D97   D(20,37,38,51)        -73.802                                          !
 ! D98   D(50,37,38,39)        -17.1159                                         !
 ! D99   D(50,37,38,41)       -142.6738                                         !
 ! D100  D(50,37,38,51)         98.2127                                         !
 ! D101  D(37,38,39,40)       -162.5884                                         !
 ! D102  D(37,38,39,48)         17.9425                                         !
 ! D103  D(41,38,39,40)        -35.7234                                         !
 ! D104  D(41,38,39,48)        144.8076                                         !
 ! D105  D(51,38,39,40)         79.1832                                         !
 ! D106  D(51,38,39,48)       -100.2858                                         !
 ! D107  D(37,38,41,42)         48.7242                                         !
 ! D108  D(37,38,41,52)        -71.7487                                         !
 ! D109  D(37,38,41,53)        173.5904                                         !
 ! D110  D(39,38,41,42)        -76.2012                                         !
 ! D111  D(39,38,41,52)        163.3258                                         !
 ! D112  D(39,38,41,53)         48.665                                          !
 ! D113  D(51,38,41,42)        169.7175                                         !
 ! D114  D(51,38,41,52)         49.2446                                         !
 ! D115  D(51,38,41,53)        -65.4162                                         !
 ! D116  D(38,39,48,49)       -174.5296                                         !
 ! D117  D(40,39,48,49)          5.9893                                         !
 ! D118  D(38,41,42,43)         83.7543                                         !
 ! D119  D(38,41,42,54)       -157.9174                                         !
 ! D120  D(38,41,42,55)        -43.6558                                         !
 ! D121  D(52,41,42,43)       -156.5445                                         !
 ! D122  D(52,41,42,54)        -38.2161                                         !
 ! D123  D(52,41,42,55)         76.0454                                         !
 ! D124  D(53,41,42,43)        -39.3619                                         !
 ! D125  D(53,41,42,54)         78.9665                                         !
 ! D126  D(53,41,42,55)       -166.772                                          !
 ! D127  D(41,42,43,44)        -80.7736                                         !
 ! D128  D(41,42,43,56)        158.4961                                         !
 ! D129  D(41,42,43,57)         41.2531                                         !
 ! D130  D(54,42,43,44)        160.3296                                         !
 ! D131  D(54,42,43,56)         39.5993                                         !
 ! D132  D(54,42,43,57)        -77.6437                                         !
 ! D133  D(55,42,43,44)         47.3689                                         !
 ! D134  D(55,42,43,56)        -73.3614                                         !
 ! D135  D(55,42,43,57)        169.3956                                         !
 ! D136  D(42,43,44,45)        134.8555                                         !
 ! D137  D(42,43,44,58)        -59.9056                                         !
 ! D138  D(56,43,44,45)       -103.5037                                         !
 ! D139  D(56,43,44,58)         61.7353                                         !
 ! D140  D(57,43,44,45)         13.3715                                         !
 ! D141  D(57,43,44,58)        178.6104                                         !
 ! D142  D(43,44,45,46)          9.1758                                         !
 ! D143  D(43,44,45,47)       -170.6773                                         !
 ! D144  D(58,44,45,46)       -155.8586                                         !
 ! D145  D(58,44,45,47)         24.2884                                         !
 ! D146  D(44,45,46,59)         -0.0857                                         !
 ! D147  D(44,45,46,60)       -146.2973                                         !
 ! D148  D(47,45,46,59)        179.7715                                         !
 ! D149  D(47,45,46,60)         33.56                                           !
 ! D150  D(44,45,47,61)       -155.9925                                         !
 ! D151  D(44,45,47,62)          5.4097                                         !
 ! D152  D(46,45,47,61)         24.1449                                         !
 ! D153  D(46,45,47,62)       -174.4528                                         !
 --------------------------------------------------------------------------------
 Symmetry turned off by external request.
 Stoichiometry    C17H33N6O6(1+)
 Framework group  C1[X(C17H33N6O6)]
 Deg. of freedom   180
 Full point group                 C1      NOp   1
                          Input orientation:                          
 ---------------------------------------------------------------------
 Center     Atomic      Atomic             Coordinates (Angstroms)
 Number     Number       Type             X           Y           Z
 ---------------------------------------------------------------------
      1          7           0        9.650539   16.555112   15.153643
      2          6           0       10.988889   16.179226   14.660216
      3          6           0       10.792727   15.237066   13.453595
      4          8           0        9.725566   14.649858   13.307225
      5          6           0       11.905906   15.524479   15.713020
      6          6           0       12.220146   16.460747   16.903900
      7          6           0       12.560691   17.857500   16.445757
      8          8           0       11.906513   18.855776   16.696487
      9          8           0       13.659668   17.904003   15.665887
     10          1           0       13.791074   18.835713   15.399184
     11          1           0       11.469313   17.091618   14.302242
     12          1           0       12.844021   15.227988   15.235743
     13          1           0       11.436516   14.609183   16.089925
     14          1           0       11.374878   16.549411   17.590906
     15          1           0       13.065263   16.054792   17.470439
     16          1           0        9.005498   15.827084   14.828274
     17          1           0        9.617664   16.552682   16.170891
     18          7           0       11.849185   15.054377   12.610655
     19          6           0       13.018402   15.928471   12.429577
     20          6           0       12.552758   17.148748   11.603231
     21          8           0       12.287876   17.049040   10.415059
     22          6           0       14.135390   15.171312   11.708149
     23          6           0       15.431447   15.986186   11.531040
     24          6           0       16.059371   16.389370   12.874909
     25          6           0       16.433120   15.185621   10.686771
     26          1           0       11.615747   14.475212   11.809113
     27          1           0       13.368563   16.240045   13.415357
     28          1           0       13.757352   14.879507   10.720533
     29          1           0       14.346794   14.252141   12.269593
     30          1           0       15.180477   16.901291   10.974621
     31          1           0       15.407244   17.037599   13.473847
     32          1           0       16.289004   15.501784   13.478460
     33          1           0       16.997093   16.932286   12.715337
     34          1           0       16.010187   14.921181    9.711299
     35          1           0       17.347853   15.762286   10.512590
     36          1           0       16.716490   14.255511   11.195519
     37          7           0       12.351396   18.278201   12.348667
     38          6           0       11.733740   19.507167   11.860919
     39          6           0       11.474036   20.461478   13.024438
     40          8           0       10.718139   21.403811   12.980420
     41          6           0       10.447708   19.268043   11.032508
     42          6           0        9.378862   18.327681   11.620411
     43          6           0        8.386272   18.937223   12.622035
     44          7           0        8.922241   19.056002   13.986333
     45          6           0        8.810140   20.117955   14.771964
     46          7           0        8.025406   21.178947   14.480484
     47          7           0        9.504179   20.174690   15.927726
     48          8           0       12.195080   20.154955   14.136640
     49          1           0       11.912411   20.749743   14.858068
     50          1           0       12.761340   18.309202   13.269580
     51          1           0       12.435802   20.041463   11.201220
     52          1           0       10.774375   18.842366   10.083845
     53          1           0       10.016276   20.252555   10.823533
     54          1           0        8.773257   17.970007   10.780135
     55          1           0        9.832603   17.428128   12.048819
     56          1           0        7.484370   18.316162   12.667649
     57          1           0        8.090426   19.925351   12.259422
     58          1           0        9.217393   18.151094   14.439983
     59          1           0        7.492355   21.177772   13.623754
     60          1           0        8.342830   22.092734   14.777006
     61          1           0        9.164370   20.765403   16.674195
     62          1           0       10.181128   19.459066   16.185181
 ---------------------------------------------------------------------
 Rotational constants (GHZ):           0.2249767           0.1308289           0.1194794
 Standard basis: 6-31G(d) (6D, 7F)
   501 basis functions,   944 primitive gaussians,   501 cartesian basis functions
   112 alpha electrons      112 beta electrons
       nuclear repulsion energy      3353.8260100739 Hartrees.
 NAtoms=   62 NActive=   62 NUniq=   62 SFac= 1.00D+00 NAtFMM=   60 NAOKFM=T Big=T
 Integral buffers will be    131072 words long.
 Raffenetti 2 integral format.
 Two-electron integral symmetry is turned off.
 Nuclear repulsion after empirical dispersion term =     3353.7320027522 Hartrees.
 One-electron integrals computed using PRISM.
 NBasis=   501 RedAO= T EigKep=  1.80D-03  NBF=   501
 NBsUse=   501 1.00D-06 EigRej= -1.00D+00 NBFU=   501
 Initial guess from the checkpoint file:  "conf-306.chk"
 B after Tr=     0.000000    0.000000    0.000000
         Rot=    1.000000    0.000000    0.000000    0.000000 Ang=   0.00 deg.
 Requested convergence on RMS density matrix=1.00D-08 within 128 cycles.
 Requested convergence on MAX density matrix=1.00D-06.
 Requested convergence on             energy=1.00D-06.
 No special actions if energy rises.
 SCF Done:  E(RB3LYP) =  -1447.51496642     A.U. after    1 cycles
            NFock=  1  Conv=0.57D-08     -V/T= 2.0093

 **********************************************************************

            Population analysis using the SCF Density.

 **********************************************************************

 Alpha  occ. eigenvalues --  -19.33549 -19.33332 -19.28288 -19.27012 -19.22950
 Alpha  occ. eigenvalues --  -19.22308 -14.50953 -14.50412 -14.50048 -14.47744
 Alpha  occ. eigenvalues --  -14.46999 -14.45633 -10.47087 -10.46249 -10.45330
 Alpha  occ. eigenvalues --  -10.40089 -10.39481 -10.36218 -10.35433 -10.34973
 Alpha  occ. eigenvalues --  -10.34163 -10.32962 -10.32266 -10.30336 -10.29696
 Alpha  occ. eigenvalues --  -10.27812 -10.27636 -10.25998 -10.24719  -1.24567
 Alpha  occ. eigenvalues --   -1.23804  -1.15617  -1.15365  -1.15074  -1.14819
 Alpha  occ. eigenvalues --   -1.14316  -1.04906  -1.04385  -1.03691  -1.03335
 Alpha  occ. eigenvalues --   -1.02129  -0.92352  -0.91733  -0.90195  -0.87791
 Alpha  occ. eigenvalues --   -0.84836  -0.83355  -0.81649  -0.77875  -0.77336
 Alpha  occ. eigenvalues --   -0.76570  -0.75215  -0.74485  -0.72834  -0.72630
 Alpha  occ. eigenvalues --   -0.71050  -0.69771  -0.68578  -0.68284  -0.66561
 Alpha  occ. eigenvalues --   -0.65317  -0.64710  -0.64470  -0.64023  -0.62489
 Alpha  occ. eigenvalues --   -0.61732  -0.61382  -0.60915  -0.60712  -0.59802
 Alpha  occ. eigenvalues --   -0.59669  -0.58740  -0.58503  -0.57773  -0.56428
 Alpha  occ. eigenvalues --   -0.56156  -0.55135  -0.54724  -0.54347  -0.53643
 Alpha  occ. eigenvalues --   -0.53464  -0.52919  -0.52740  -0.52282  -0.51603
 Alpha  occ. eigenvalues --   -0.51032  -0.50673  -0.50075  -0.49529  -0.48357
 Alpha  occ. eigenvalues --   -0.47792  -0.47537  -0.46985  -0.46546  -0.46436
 Alpha  occ. eigenvalues --   -0.46135  -0.45843  -0.45583  -0.44914  -0.44695
 Alpha  occ. eigenvalues --   -0.42371  -0.41768  -0.41631  -0.41136  -0.40934
 Alpha  occ. eigenvalues --   -0.40599  -0.39906  -0.38932  -0.38327  -0.36745
 Alpha  occ. eigenvalues --   -0.36557  -0.34421
 Alpha virt. eigenvalues --   -0.13731  -0.12950  -0.11625  -0.09999  -0.08388
 Alpha virt. eigenvalues --   -0.07555  -0.06219  -0.04383  -0.03903  -0.02328
 Alpha virt. eigenvalues --   -0.01646  -0.00936  -0.00436  -0.00051   0.00594
 Alpha virt. eigenvalues --    0.01094   0.01701   0.02334   0.02473   0.03394
 Alpha virt. eigenvalues --    0.03741   0.04094   0.04656   0.05154   0.05498
 Alpha virt. eigenvalues --    0.05898   0.06210   0.06711   0.07315   0.07605
 Alpha virt. eigenvalues --    0.07888   0.08334   0.08658   0.09351   0.09800
 Alpha virt. eigenvalues --    0.09846   0.09947   0.10367   0.10951   0.11044
 Alpha virt. eigenvalues --    0.11230   0.11512   0.12167   0.12213   0.12626
 Alpha virt. eigenvalues --    0.13180   0.14084   0.14693   0.15301   0.16030
 Alpha virt. eigenvalues --    0.16688   0.17142   0.17436   0.18639   0.18952
 Alpha virt. eigenvalues --    0.19529   0.19948   0.20859   0.23388   0.24361
 Alpha virt. eigenvalues --    0.25342   0.26424   0.27464   0.28210   0.29840
 Alpha virt. eigenvalues --    0.31917   0.35457   0.37545   0.38158   0.39089
 Alpha virt. eigenvalues --    0.39687   0.40303   0.41130   0.41725   0.42359
 Alpha virt. eigenvalues --    0.43309   0.43618   0.43911   0.44293   0.44495
 Alpha virt. eigenvalues --    0.45065   0.45728   0.46161   0.46846   0.47550
 Alpha virt. eigenvalues --    0.49051   0.49753   0.49910   0.50827   0.51152
 Alpha virt. eigenvalues --    0.51854   0.52762   0.53393   0.53429   0.53710
 Alpha virt. eigenvalues --    0.54377   0.54798   0.55491   0.55849   0.56711
 Alpha virt. eigenvalues --    0.57096   0.57557   0.58231   0.59193   0.59929
 Alpha virt. eigenvalues --    0.60057   0.60982   0.61886   0.62718   0.63177
 Alpha virt. eigenvalues --    0.63808   0.64010   0.64091   0.64276   0.65553
 Alpha virt. eigenvalues --    0.66987   0.67644   0.68847   0.69698   0.70394
 Alpha virt. eigenvalues --    0.70789   0.71444   0.71852   0.72457   0.72743
 Alpha virt. eigenvalues --    0.73624   0.73848   0.74020   0.74469   0.75109
 Alpha virt. eigenvalues --    0.75536   0.75966   0.76562   0.76790   0.77405
 Alpha virt. eigenvalues --    0.77645   0.78485   0.79240   0.79745   0.80405
 Alpha virt. eigenvalues --    0.80958   0.81441   0.81502   0.82240   0.82712
 Alpha virt. eigenvalues --    0.82911   0.83517   0.83580   0.84083   0.84544
 Alpha virt. eigenvalues --    0.84727   0.85727   0.85879   0.86190   0.86852
 Alpha virt. eigenvalues --    0.86948   0.87175   0.87796   0.89045   0.89755
 Alpha virt. eigenvalues --    0.90689   0.91021   0.92175   0.92593   0.93479
 Alpha virt. eigenvalues --    0.93725   0.94271   0.96348   0.96682   0.97082
 Alpha virt. eigenvalues --    0.98891   0.99445   1.00002   1.01307   1.01590
 Alpha virt. eigenvalues --    1.03018   1.03446   1.04897   1.05384   1.05853
 Alpha virt. eigenvalues --    1.06824   1.08121   1.09354   1.10872   1.11411
 Alpha virt. eigenvalues --    1.12348   1.14082   1.14117   1.15494   1.17034
 Alpha virt. eigenvalues --    1.18505   1.19138   1.20685   1.21252   1.22463
 Alpha virt. eigenvalues --    1.23010   1.24644   1.25266   1.27547   1.28268
 Alpha virt. eigenvalues --    1.29213   1.30827   1.32588   1.33284   1.34181
 Alpha virt. eigenvalues --    1.34977   1.35737   1.37458   1.39344   1.41095
 Alpha virt. eigenvalues --    1.41611   1.42433   1.44459   1.44894   1.45421
 Alpha virt. eigenvalues --    1.46352   1.48153   1.48995   1.50317   1.51241
 Alpha virt. eigenvalues --    1.52071   1.52573   1.54023   1.54831   1.56273
 Alpha virt. eigenvalues --    1.57170   1.57472   1.58507   1.59032   1.60897
 Alpha virt. eigenvalues --    1.61648   1.62508   1.63200   1.63863   1.64389
 Alpha virt. eigenvalues --    1.65730   1.66054   1.66903   1.67591   1.68336
 Alpha virt. eigenvalues --    1.68648   1.69163   1.69812   1.70216   1.71780
 Alpha virt. eigenvalues --    1.72277   1.73422   1.74054   1.74855   1.75406
 Alpha virt. eigenvalues --    1.76303   1.76769   1.77519   1.78090   1.78770
 Alpha virt. eigenvalues --    1.80093   1.80959   1.81341   1.81634   1.82642
 Alpha virt. eigenvalues --    1.83272   1.83913   1.84947   1.86344   1.86583
 Alpha virt. eigenvalues --    1.87033   1.88745   1.90370   1.90445   1.90705
 Alpha virt. eigenvalues --    1.91976   1.92960   1.93135   1.94016   1.94300
 Alpha virt. eigenvalues --    1.95122   1.95921   1.97046   1.97965   1.98756
 Alpha virt. eigenvalues --    1.99366   2.01023   2.02446   2.03085   2.03412
 Alpha virt. eigenvalues --    2.04541   2.05286   2.06389   2.07980   2.09309
 Alpha virt. eigenvalues --    2.10380   2.10964   2.13010   2.14218   2.15167
 Alpha virt. eigenvalues --    2.16455   2.17360   2.17724   2.19919   2.20171
 Alpha virt. eigenvalues --    2.20740   2.21710   2.22768   2.23521   2.24144
 Alpha virt. eigenvalues --    2.24948   2.27011   2.27928   2.28556   2.30173
 Alpha virt. eigenvalues --    2.30511   2.31827   2.32841   2.34505   2.35142
 Alpha virt. eigenvalues --    2.35905   2.37959   2.38792   2.41150   2.41964
 Alpha virt. eigenvalues --    2.42559   2.42915   2.44728   2.45073   2.46184
 Alpha virt. eigenvalues --    2.48372   2.49556   2.50632   2.51704   2.53396
 Alpha virt. eigenvalues --    2.54148   2.54723   2.55772   2.56676   2.57526
 Alpha virt. eigenvalues --    2.58367   2.59689   2.61237   2.62262   2.63348
 Alpha virt. eigenvalues --    2.64177   2.66453   2.67753   2.70262   2.71729
 Alpha virt. eigenvalues --    2.73792   2.75431   2.77316   2.80109   2.87848
 Alpha virt. eigenvalues --    2.88356   2.90020   2.90068   2.90754   2.93882
 Alpha virt. eigenvalues --    2.94158   2.96836   2.99603   3.04318   3.08981
 Alpha virt. eigenvalues --    3.68289   3.74458   3.75405   3.82120   3.83329
 Alpha virt. eigenvalues --    3.90122   3.96125   3.99927   4.03335   4.06899
 Alpha virt. eigenvalues --    4.08309   4.09240   4.10128   4.12893   4.17292
 Alpha virt. eigenvalues --    4.20636   4.21392   4.23760   4.27091   4.28432
 Alpha virt. eigenvalues --    4.33383   4.36623   4.39115   4.42951   4.48410
 Alpha virt. eigenvalues --    4.51069   4.55864   4.60831   4.64487
          Condensed to atoms (all electrons):
 Mulliken charges:
               1
     1  N   -0.806231
     2  C   -0.060044
     3  C    0.603777
     4  O   -0.503681
     5  C   -0.298859
     6  C   -0.354680
     7  C    0.596208
     8  O   -0.496193
     9  O   -0.550862
    10  H    0.434180
    11  H    0.137778
    12  H    0.190448
    13  H    0.189706
    14  H    0.182588
    15  H    0.214320
    16  H    0.363679
    17  H    0.327149
    18  N   -0.591623
    19  C   -0.088325
    20  C    0.647077
    21  O   -0.508610
    22  C   -0.275509
    23  C   -0.089105
    24  C   -0.454056
    25  C   -0.446972
    26  H    0.356889
    27  H    0.157702
    28  H    0.170145
    29  H    0.153156
    30  H    0.141824
    31  H    0.118273
    32  H    0.151882
    33  H    0.163665
    34  H    0.158351
    35  H    0.157094
    36  H    0.149992
    37  N   -0.656463
    38  C   -0.024696
    39  C    0.621602
    40  O   -0.475496
    41  C   -0.295035
    42  C   -0.295431
    43  C   -0.163314
    44  N   -0.626399
    45  C    0.758990
    46  N   -0.737800
    47  N   -0.798265
    48  O   -0.612716
    49  H    0.431259
    50  H    0.355721
    51  H    0.212906
    52  H    0.212948
    53  H    0.169812
    54  H    0.183781
    55  H    0.170685
    56  H    0.192882
    57  H    0.162488
    58  H    0.439117
    59  H    0.377364
    60  H    0.376672
    61  H    0.370545
    62  H    0.407708
 Sum of Mulliken charges =   1.00000
 Mulliken charges with hydrogens summed into heavy atoms:
               1
     1  N   -0.115403
     2  C    0.077734
     3  C    0.603777
     4  O   -0.503681
     5  C    0.081296
     6  C    0.042228
     7  C    0.596208
     8  O   -0.496193
     9  O   -0.116683
    18  N   -0.234734
    19  C    0.069377
    20  C    0.647077
    21  O   -0.508610
    22  C    0.047792
    23  C    0.052719
    24  C   -0.020236
    25  C    0.018465
    37  N   -0.300742
    38  C    0.188210
    39  C    0.621602
    40  O   -0.475496
    41  C    0.087725
    42  C    0.059034
    43  C    0.192056
    44  N   -0.187282
    45  C    0.758990
    46  N    0.016236
    47  N   -0.020012
    48  O   -0.181457
 Electronic spatial extent (au):  <R**2>=         516007.8842
 Charge=              1.0000 electrons
 Dipole moment (field-independent basis, Debye):
    X=             51.8583    Y=             91.0779    Z=             71.5376  Tot=            126.8940
 Quadrupole moment (field-independent basis, Debye-Ang):
   XX=            425.6698   YY=           1580.7030   ZZ=            908.9685
   XY=            958.6030   XZ=            770.6304   YZ=           1352.5639
 Traceless Quadrupole moment (field-independent basis, Debye-Ang):
   XX=           -546.1106   YY=            608.9225   ZZ=            -62.8119
   XY=            958.6030   XZ=            770.6304   YZ=           1352.5639
 Octapole moment (field-independent basis, Debye-Ang**2):
  XXX=           1276.3937  YYY=          25074.4767  ZZZ=           9630.8367  XYY=          16018.9379
  XXY=           7752.6375  XXZ=           6489.0586  XZZ=           9607.5059  YZZ=          17328.3185
  YYZ=          23655.6601  XYZ=          14233.8246
 Hexadecapole moment (field-independent basis, Debye-Ang**3):
 XXXX=         -52480.8374 YYYY=         348729.8370 ZZZZ=          66959.1325 XXXY=          24059.2089
 XXXZ=          25579.4346 YYYX=         239195.5943 YYYZ=         382920.9126 ZZZX=          97221.8983
 ZZZY=         188028.7855 XXYY=         119736.9845 XXZZ=          75491.1176 YYZZ=         303835.9581
 XXYZ=         118172.2483 YYXZ=         240657.8320 ZZXY=         179117.8259
 N-N= 3.353732002752D+03 E-N=-1.005554924080D+04  KE= 1.434119574353D+03
 Unable to Open any file for archive entry.
 1\1\GINC-VIM-000\SP\RB3LYP\6-31G(d)\C17H33N6O6(1+)\KENGMITH\24-May-202
 2\0\\# B3LYP/6-31G* empiricaldispersion=gd3 guess=read geom=check nosy
 mm integral(ultrafinegrid)\\Candidate Structure: Conf:306 Charge calc 
 in gas phase\\1,1\N,0,9.6505388967,16.5551115504,15.1536429106\C,0,10.
 988889459,16.1792259383,14.6602164461\C,0,10.7927265804,15.2370662623,
 13.4535946387\O,0,9.7255658571,14.6498582056,13.3072245213\C,0,11.9059
 059349,15.5244788929,15.7130196666\C,0,12.2201460781,16.4607472394,16.
 9038998424\C,0,12.5606913001,17.8575002531,16.4457568679\O,0,11.906512
 6556,18.8557761515,16.6964874238\O,0,13.6596684553,17.9040034843,15.66
 58867433\H,0,13.7910742529,18.8357129863,15.399184324\H,0,11.469312902
 8,17.0916175704,14.3022424931\H,0,12.8440212435,15.227987517,15.235743
 4129\H,0,11.4365160829,14.60918286,16.0899248792\H,0,11.3748781756,16.
 5494105711,17.5909062266\H,0,13.0652633285,16.0547915481,17.4704388771
 \H,0,9.0054977251,15.8270843205,14.8282743032\H,0,9.6176643007,16.5526
 818823,16.1708910644\N,0,11.8491848811,15.0543771462,12.6106545623\C,0
 ,13.0184015028,15.928470757,12.4295766418\C,0,12.5527582974,17.1487481
 754,11.6032313164\O,0,12.2878762241,17.0490398312,10.4150586214\C,0,14
 .1353904479,15.171311554,11.7081493163\C,0,15.4314468562,15.9861856472
 ,11.5310401789\C,0,16.0593710167,16.3893700378,12.8749088795\C,0,16.43
 31200649,15.1856212145,10.6867711599\H,0,11.6157469004,14.4752122894,1
 1.8091131058\H,0,13.3685633431,16.2400450439,13.4153567469\H,0,13.7573
 522597,14.8795072823,10.7205334759\H,0,14.3467939443,14.2521409775,12.
 2695929096\H,0,15.1804768049,16.901290941,10.974621127\H,0,15.40724413
 9,17.037598823,13.473847479\H,0,16.2890039172,15.5017837042,13.4784598
 796\H,0,16.9970927044,16.932286233,12.7153372117\H,0,16.0101873093,14.
 9211805627,9.7112986475\H,0,17.3478532989,15.7622861137,10.5125900564\
 H,0,16.7164901141,14.255510676,11.1955188929\N,0,12.3513956108,18.2782
 01328,12.3486668333\C,0,11.733739855,19.5071671256,11.8609186518\C,0,1
 1.4740356263,20.4614778413,13.0244378129\O,0,10.7181387045,21.40381050
 45,12.9804198516\C,0,10.4477084329,19.2680429464,11.0325080071\C,0,9.3
 788621349,18.3276807495,11.6204108762\C,0,8.3862715518,18.9372230139,1
 2.6220347241\N,0,8.9222412563,19.05600213,13.9863333207\C,0,8.81013952
 83,20.11795481,14.7719642355\N,0,8.0254062807,21.178946898,14.48048438
 33\N,0,9.5041793974,20.1746901856,15.9277262668\O,0,12.1950796484,20.1
 549546734,14.1366396583\H,0,11.9124109454,20.7497426861,14.8580683367\
 H,0,12.7613399516,18.3092015723,13.2695800243\H,0,12.4358017557,20.041
 4626953,11.2012202535\H,0,10.7743750136,18.8423656735,10.0838451432\H,
 0,10.0162756582,20.2525554962,10.8235329203\H,0,8.7732572241,17.970007
 206,10.7801351448\H,0,9.8326029696,17.42812776,12.0488191523\H,0,7.484
 3703757,18.3161624817,12.6676488804\H,0,8.0904259104,19.9253508521,12.
 259421588\H,0,9.2173933187,18.1510941431,14.4399831252\H,0,7.492354949
 4,21.1777722066,13.6237544993\H,0,8.3428301578,22.0927340265,14.777005
 542\H,0,9.1643702591,20.7654031896,16.6741952854\H,0,10.1811280277,19.
 4590655619,16.1851806531\\Version=ES64L-G16RevC.01\HF=-1447.5149664\RM
 SD=5.695e-09\Dipole=-1.603536,2.3238437,2.6473711\Quadrupole=-406.0198
 779,452.7189845,-46.6991066,712.6978287,572.9448068,1005.5981378\PG=C0
 1 [X(C17H33N6O6)]\\@
 The archive entry for this job was punched.


 HEAVEN'S NET CASTS WIDE.
 THOUGH ITS MESHES ARE COARSE, NOTHING SLIPS THROUGH.

                                          -- LAO-TSU
 Job cpu time:       0 days  0 hours  1 minutes 47.3 seconds.
 Elapsed time:       0 days  0 hours  0 minutes 27.3 seconds.
 File lengths (MBytes):  RWF=    248 Int=      0 D2E=      0 Chk=     32 Scr=     16
 Normal termination of Gaussian 16 at Tue May 24 03:34:06 2022.
